
     Program PWSCF v.6.0 (svn rev. 13079) starts on 10Apr2017 at  2:13:47 

     This program is part of the open-source Quantum ESPRESSO suite
     for quantum simulation of materials; please cite
         "P. Giannozzi et al., J. Phys.:Condens. Matter 21 395502 (2009);
          URL http://www.quantum-espresso.org", 
     in publications or presentations arising from this work. More details at
     http://www.quantum-espresso.org/quote

     Parallel version (MPI), running on     1 processors
     Waiting for input...
     Reading input from standard input
     Message from routine read_cards :
     DEPRECATED: no units specified in ATOMIC_POSITIONS card
     Message from routine read_cards :
     ATOMIC_POSITIONS: units set to alat

     Current dimensions of program PWSCF are:
     Max number of different atomic species (ntypx) = 10
     Max number of k-points (npk) =  40000
     Max angular momentum in pseudopotentials (lmaxx) =  3

     Subspace diagonalization in iterative solution of the eigenvalue problem:
     a serial algorithm will be used

 
     G-vector sticks info
     --------------------
     sticks:   dense  smooth     PW     G-vecs:    dense   smooth      PW
     Sum        3181    3181    793               135043   135043   16879
 


     bravais-lattice index     =            1
     lattice parameter (alat)  =      20.0000  a.u.
     unit-cell volume          =    8000.0000 (a.u.)^3
     number of atoms/cell      =            2
     number of atomic types    =            1
     number of electrons       =         8.00
     number of Kohn-Sham states=            4
     kinetic-energy cutoff     =      25.0000  Ry
     charge density cutoff     =     100.0000  Ry
     convergence threshold     =      1.0E-08
     mixing beta               =       0.7000
     number of iterations used =            8  plain     mixing
     Exchange-correlation      =  SLA  PZ   NOGX NOGC ( 1  1  0  0 0 0)
     nstep                     =          100


     celldm(1)=  20.000000  celldm(2)=   0.000000  celldm(3)=   0.000000
     celldm(4)=   0.000000  celldm(5)=   0.000000  celldm(6)=   0.000000

     crystal axes: (cart. coord. in units of alat)
               a(1) = (   1.000000   0.000000   0.000000 )  
               a(2) = (   0.000000   1.000000   0.000000 )  
               a(3) = (   0.000000   0.000000   1.000000 )  

     reciprocal axes: (cart. coord. in units 2 pi/alat)
               b(1) = (  1.000000  0.000000  0.000000 )  
               b(2) = (  0.000000  1.000000  0.000000 )  
               b(3) = (  0.000000  0.000000  1.000000 )  


     PseudoPot. # 1 for Si read from file:
     /home/brianbar/work/quantExpre/Si.pz-vbc.UPF
     MD5 check sum: 6dfa03ddd5817404712e03e4d12deb78
     Pseudo is Norm-conserving, Zval =  4.0
     Generated by new atomic code, or converted to UPF format
     Using radial grid of  431 points,  2 beta functions with: 
                l(1) =   0
                l(2) =   1

     atomic species   valence    mass     pseudopotential
        Si             4.00    28.08600     Si( 1.00)

     No symmetry found



   Cartesian axes

     site n.     atom                  positions (alat units)
         1           Si  tau(   1) = (  -0.1230000  -0.1230000  -0.1230000  )
         2           Si  tau(   2) = (   0.1230000   0.1230000   0.1230000  )

     number of k points=     1
                       cart. coord. in units 2pi/alat
        k(    1) = (   0.0000000   0.0000000   0.0000000), wk =   2.0000000

     Dense  grid:   135043 G-vectors     FFT dimensions: (  64,  64,  64)

     Estimated max dynamical RAM per process >      46.34Mb

     Initial potential from superposition of free atoms
     Check: negative starting charge=   -0.000184

     starting charge    7.99901, renormalised to    8.00000

     negative rho (up, down):  1.844E-04 0.000E+00
     Starting wfc are    8 randomized atomic wfcs

     total cpu time spent up to now is        0.2 secs

     per-process dynamical memory:    70.6 Mb

     Self-consistent Calculation

     iteration #  1     ecut=    25.00 Ry     beta=0.70
     Davidson diagonalization with overlap
     ethr =  1.00E-02,  avg # of iterations =  1.0

     Threshold (ethr) on eigenvalues was too large:
     Diagonalizing with lowered threshold

     Davidson diagonalization with overlap
     ethr =  5.68E-04,  avg # of iterations =  1.0

     negative rho (up, down):  1.708E-05 0.000E+00

     total cpu time spent up to now is        0.4 secs

     total energy              =     -15.03274519 Ry
     Harris-Foulkes estimate   =     -15.04814409 Ry
     estimated scf accuracy    <       0.04680581 Ry

     iteration #  2     ecut=    25.00 Ry     beta=0.70
     Davidson diagonalization with overlap
     ethr =  5.85E-04,  avg # of iterations =  1.0

     negative rho (up, down):  1.196E-08 0.000E+00

     total cpu time spent up to now is        0.6 secs

     total energy              =     -15.03396293 Ry
     Harris-Foulkes estimate   =     -15.03444001 Ry
     estimated scf accuracy    <       0.00206071 Ry

     iteration #  3     ecut=    25.00 Ry     beta=0.70
     Davidson diagonalization with overlap
     ethr =  2.58E-05,  avg # of iterations =  7.0

     negative rho (up, down):  2.863E-08 0.000E+00

     total cpu time spent up to now is        0.8 secs

     total energy              =     -15.06370296 Ry
     Harris-Foulkes estimate   =     -15.06539613 Ry
     estimated scf accuracy    <       0.12412156 Ry

     iteration #  4     ecut=    25.00 Ry     beta=0.70
     Davidson diagonalization with overlap
     ethr =  2.58E-05,  avg # of iterations =  1.0

     negative rho (up, down):  5.233E-05 0.000E+00

     total cpu time spent up to now is        1.0 secs

     total energy              =     -15.08107151 Ry
     Harris-Foulkes estimate   =     -15.06371148 Ry
     estimated scf accuracy    <       0.11798103 Ry

     iteration #  5     ecut=    25.00 Ry     beta=0.70
     Davidson diagonalization with overlap
     ethr =  2.58E-05,  avg # of iterations =  2.0

     total cpu time spent up to now is        1.2 secs

     total energy              =     -15.03432541 Ry
     Harris-Foulkes estimate   =     -15.08138150 Ry
     estimated scf accuracy    <       0.18754348 Ry

     iteration #  6     ecut=    25.00 Ry     beta=0.70
     Davidson diagonalization with overlap
     ethr =  2.58E-05,  avg # of iterations =  3.0

     total cpu time spent up to now is        1.4 secs

     total energy              =     -15.03675855 Ry
     Harris-Foulkes estimate   =     -15.03707127 Ry
     estimated scf accuracy    <       0.02509062 Ry

     iteration #  7     ecut=    25.00 Ry     beta=0.70
     Davidson diagonalization with overlap
     ethr =  2.58E-05,  avg # of iterations =  1.0

     total cpu time spent up to now is        1.6 secs

     total energy              =     -15.03254402 Ry
     Harris-Foulkes estimate   =     -15.03677819 Ry
     estimated scf accuracy    <       0.02411769 Ry

     iteration #  8     ecut=    25.00 Ry     beta=0.70
     Davidson diagonalization with overlap
     ethr =  2.58E-05,  avg # of iterations =  1.0

     negative rho (up, down):  1.122E-04 0.000E+00

     total cpu time spent up to now is        1.8 secs

     total energy              =     -15.02971848 Ry
     Harris-Foulkes estimate   =     -15.03265834 Ry
     estimated scf accuracy    <       0.01013185 Ry

     iteration #  9     ecut=    25.00 Ry     beta=0.70
     Davidson diagonalization with overlap
     ethr =  2.58E-05,  avg # of iterations =  7.0

     negative rho (up, down):  2.851E-04 0.000E+00

     total cpu time spent up to now is        2.1 secs

     total energy              =     -15.03144824 Ry
     Harris-Foulkes estimate   =     -15.03224006 Ry
     estimated scf accuracy    <       0.07757394 Ry

     iteration # 10     ecut=    25.00 Ry     beta=0.70
     Davidson diagonalization with overlap
     ethr =  2.58E-05,  avg # of iterations =  1.0

     negative rho (up, down):  1.241E-03 0.000E+00

     total cpu time spent up to now is        2.3 secs

     total energy              =     -15.03264222 Ry
     Harris-Foulkes estimate   =     -15.03147217 Ry
     estimated scf accuracy    <       0.07614798 Ry

     iteration # 11     ecut=    25.00 Ry     beta=0.70
     Davidson diagonalization with overlap
     ethr =  2.58E-05,  avg # of iterations =  1.0

     negative rho (up, down):  6.204E-07 0.000E+00

     total cpu time spent up to now is        2.5 secs

     total energy              =     -15.02436727 Ry
     Harris-Foulkes estimate   =     -15.03268626 Ry
     estimated scf accuracy    <       0.08034150 Ry

     iteration # 12     ecut=    25.00 Ry     beta=0.70
     Davidson diagonalization with overlap
     ethr =  2.58E-05,  avg # of iterations =  7.0

     negative rho (up, down):  1.004E-08 0.000E+00

     total cpu time spent up to now is        2.7 secs

     total energy              =     -15.02690982 Ry
     Harris-Foulkes estimate   =     -15.03587386 Ry
     estimated scf accuracy    <       0.32715868 Ry

     iteration # 13     ecut=    25.00 Ry     beta=0.70
     Davidson diagonalization with overlap
     ethr =  2.58E-05,  avg # of iterations =  7.0

     negative rho (up, down):  2.232E-08 0.000E+00

     total cpu time spent up to now is        3.0 secs

     total energy              =     -15.03080809 Ry
     Harris-Foulkes estimate   =     -15.03081277 Ry
     estimated scf accuracy    <       0.00037557 Ry

     iteration # 14     ecut=    25.00 Ry     beta=0.70
     Davidson diagonalization with overlap
     c_bands:  1 eigenvalues not converged
     ethr =  4.69E-06,  avg # of iterations = 20.0

     negative rho (up, down):  2.703E-05 0.000E+00

     total cpu time spent up to now is        3.3 secs

     total energy              =     -15.04380766 Ry
     Harris-Foulkes estimate   =     -15.05388026 Ry
     estimated scf accuracy    <       0.31905161 Ry

     iteration # 15     ecut=    25.00 Ry     beta=0.70
     Davidson diagonalization with overlap
     ethr =  4.69E-06,  avg # of iterations = 12.0

     negative rho (up, down):  2.876E-06 0.000E+00

     total cpu time spent up to now is        3.6 secs

     total energy              =     -15.06934675 Ry
     Harris-Foulkes estimate   =     -15.08988362 Ry
     estimated scf accuracy    <       0.82595285 Ry

     iteration # 16     ecut=    25.00 Ry     beta=0.70
     Davidson diagonalization with overlap
     ethr =  4.69E-06,  avg # of iterations =  7.0

     total cpu time spent up to now is        3.9 secs

     total energy              =     -15.06159909 Ry
     Harris-Foulkes estimate   =     -15.07168225 Ry
     estimated scf accuracy    <       0.44204028 Ry

     iteration # 17     ecut=    25.00 Ry     beta=0.70
     Davidson diagonalization with overlap
     ethr =  4.69E-06,  avg # of iterations =  7.0

     negative rho (up, down):  1.670E-06 0.000E+00

     total cpu time spent up to now is        4.1 secs

     total energy              =     -15.06348034 Ry
     Harris-Foulkes estimate   =     -15.06850664 Ry
     estimated scf accuracy    <       0.18482726 Ry

     iteration # 18     ecut=    25.00 Ry     beta=0.70
     Davidson diagonalization with overlap
     ethr =  4.69E-06,  avg # of iterations =  6.0

     negative rho (up, down):  1.760E-05 0.000E+00

     total cpu time spent up to now is        4.4 secs

     total energy              =     -15.06514869 Ry
     Harris-Foulkes estimate   =     -15.06665882 Ry
     estimated scf accuracy    <       0.22288999 Ry

     iteration # 19     ecut=    25.00 Ry     beta=0.70
     Davidson diagonalization with overlap
     ethr =  4.69E-06,  avg # of iterations =  5.0

     negative rho (up, down):  2.113E-05 0.000E+00

     total cpu time spent up to now is        4.6 secs

     total energy              =     -15.07369065 Ry
     Harris-Foulkes estimate   =     -15.06544393 Ry
     estimated scf accuracy    <       0.14757932 Ry

     iteration # 20     ecut=    25.00 Ry     beta=0.70
     Davidson diagonalization with overlap
     ethr =  4.69E-06,  avg # of iterations =  2.0

     negative rho (up, down):  7.976E-05 0.000E+00

     total cpu time spent up to now is        4.8 secs

     total energy              =     -15.07615590 Ry
     Harris-Foulkes estimate   =     -15.07377267 Ry
     estimated scf accuracy    <       0.17937158 Ry

     iteration # 21     ecut=    25.00 Ry     beta=0.70
     Davidson diagonalization with overlap
     ethr =  4.69E-06,  avg # of iterations =  6.0

     negative rho (up, down):  2.976E-04 0.000E+00

     total cpu time spent up to now is        5.1 secs

     total energy              =     -15.07666933 Ry
     Harris-Foulkes estimate   =     -15.07650522 Ry
     estimated scf accuracy    <       0.16876394 Ry

     iteration # 22     ecut=    25.00 Ry     beta=0.70
     Davidson diagonalization with overlap
     ethr =  4.69E-06,  avg # of iterations =  1.0

     negative rho (up, down):  8.116E-05 0.000E+00

     total cpu time spent up to now is        5.3 secs

     total energy              =     -15.02359657 Ry
     Harris-Foulkes estimate   =     -15.07667600 Ry
     estimated scf accuracy    <       0.17022979 Ry

     iteration # 23     ecut=    25.00 Ry     beta=0.70
     Davidson diagonalization with overlap
     ethr =  4.69E-06,  avg # of iterations = 13.0

     negative rho (up, down):  5.981E-06 0.000E+00

     total cpu time spent up to now is        5.6 secs

     total energy              =     -15.02852046 Ry
     Harris-Foulkes estimate   =     -15.04092057 Ry
     estimated scf accuracy    <       0.50565061 Ry

     iteration # 24     ecut=    25.00 Ry     beta=0.70
     Davidson diagonalization with overlap
     c_bands:  1 eigenvalues not converged
     ethr =  4.69E-06,  avg # of iterations = 20.0

     negative rho (up, down):  3.609E-05 0.000E+00

     total cpu time spent up to now is        6.0 secs

     total energy              =     -15.07728596 Ry
     Harris-Foulkes estimate   =     -15.07316334 Ry
     estimated scf accuracy    <       0.30485021 Ry

     iteration # 25     ecut=    25.00 Ry     beta=0.70
     Davidson diagonalization with overlap
     ethr =  4.69E-06,  avg # of iterations = 12.0

     negative rho (up, down):  6.329E-05 0.000E+00

     total cpu time spent up to now is        6.2 secs

     total energy              =     -15.08318077 Ry
     Harris-Foulkes estimate   =     -15.07869667 Ry
     estimated scf accuracy    <       0.36965124 Ry

     iteration # 26     ecut=    25.00 Ry     beta=0.70
     Davidson diagonalization with overlap
     ethr =  4.69E-06,  avg # of iterations =  6.0

     total cpu time spent up to now is        6.5 secs

     total energy              =     -15.04922760 Ry
     Harris-Foulkes estimate   =     -15.08353116 Ry
     estimated scf accuracy    <       0.49518456 Ry

     iteration # 27     ecut=    25.00 Ry     beta=0.70
     Davidson diagonalization with overlap
     ethr =  4.69E-06,  avg # of iterations = 10.0

     total cpu time spent up to now is        6.8 secs

     total energy              =     -15.04515779 Ry
     Harris-Foulkes estimate   =     -15.05170633 Ry
     estimated scf accuracy    <       0.12708836 Ry

     iteration # 28     ecut=    25.00 Ry     beta=0.70
     Davidson diagonalization with overlap
     ethr =  4.69E-06,  avg # of iterations =  4.0

     total cpu time spent up to now is        7.0 secs

     total energy              =     -15.03783383 Ry
     Harris-Foulkes estimate   =     -15.04528397 Ry
     estimated scf accuracy    <       0.09314045 Ry

     iteration # 29     ecut=    25.00 Ry     beta=0.70
     Davidson diagonalization with overlap
     ethr =  4.69E-06,  avg # of iterations =  7.0

     total cpu time spent up to now is        7.3 secs

     total energy              =     -15.03531760 Ry
     Harris-Foulkes estimate   =     -15.03858486 Ry
     estimated scf accuracy    <       0.03168507 Ry

     iteration # 30     ecut=    25.00 Ry     beta=0.70
     Davidson diagonalization with overlap
     ethr =  4.69E-06,  avg # of iterations =  6.0

     total cpu time spent up to now is        7.5 secs

     total energy              =     -15.03234347 Ry
     Harris-Foulkes estimate   =     -15.03557527 Ry
     estimated scf accuracy    <       0.03662972 Ry

     iteration # 31     ecut=    25.00 Ry     beta=0.70
     Davidson diagonalization with overlap
     ethr =  4.69E-06,  avg # of iterations =  2.0

     negative rho (up, down):  1.383E-05 0.000E+00

     total cpu time spent up to now is        7.7 secs

     total energy              =     -15.02890352 Ry
     Harris-Foulkes estimate   =     -15.03241998 Ry
     estimated scf accuracy    <       0.02550529 Ry

     iteration # 32     ecut=    25.00 Ry     beta=0.70
     Davidson diagonalization with overlap
     ethr =  4.69E-06,  avg # of iterations =  7.0

     negative rho (up, down):  8.192E-06 0.000E+00

     total cpu time spent up to now is        8.0 secs

     total energy              =     -15.03021220 Ry
     Harris-Foulkes estimate   =     -15.03030745 Ry
     estimated scf accuracy    <       0.01542415 Ry

     iteration # 33     ecut=    25.00 Ry     beta=0.70
     Davidson diagonalization with overlap
     ethr =  4.69E-06,  avg # of iterations =  1.0

     total cpu time spent up to now is        8.2 secs

     total energy              =     -15.02975427 Ry
     Harris-Foulkes estimate   =     -15.03021580 Ry
     estimated scf accuracy    <       0.01532368 Ry

     iteration # 34     ecut=    25.00 Ry     beta=0.70
     Davidson diagonalization with overlap
     ethr =  4.69E-06,  avg # of iterations =  4.0

     total cpu time spent up to now is        8.4 secs

     total energy              =     -15.02988534 Ry
     Harris-Foulkes estimate   =     -15.02986370 Ry
     estimated scf accuracy    <       0.00735887 Ry

     iteration # 35     ecut=    25.00 Ry     beta=0.70
     Davidson diagonalization with overlap
     ethr =  4.69E-06,  avg # of iterations =  1.0

     total cpu time spent up to now is        8.6 secs

     total energy              =     -15.02985440 Ry
     Harris-Foulkes estimate   =     -15.02988980 Ry
     estimated scf accuracy    <       0.00729986 Ry

     iteration # 36     ecut=    25.00 Ry     beta=0.70
     Davidson diagonalization with overlap
     ethr =  4.69E-06,  avg # of iterations =  1.0

     total cpu time spent up to now is        8.8 secs

     total energy              =     -15.02984222 Ry
     Harris-Foulkes estimate   =     -15.02985919 Ry
     estimated scf accuracy    <       0.00688766 Ry

     iteration # 37     ecut=    25.00 Ry     beta=0.70
     Davidson diagonalization with overlap
     ethr =  4.69E-06,  avg # of iterations =  1.0

     total cpu time spent up to now is        9.0 secs

     total energy              =     -15.02979583 Ry
     Harris-Foulkes estimate   =     -15.02984701 Ry
     estimated scf accuracy    <       0.00676384 Ry

     iteration # 38     ecut=    25.00 Ry     beta=0.70
     Davidson diagonalization with overlap
     ethr =  4.69E-06,  avg # of iterations =  1.0

     total cpu time spent up to now is        9.2 secs

     total energy              =     -15.02967198 Ry
     Harris-Foulkes estimate   =     -15.02980401 Ry
     estimated scf accuracy    <       0.00635765 Ry

     iteration # 39     ecut=    25.00 Ry     beta=0.70
     Davidson diagonalization with overlap
     ethr =  4.69E-06,  avg # of iterations =  6.0

     total cpu time spent up to now is        9.5 secs

     total energy              =     -15.03003760 Ry
     Harris-Foulkes estimate   =     -15.02999875 Ry
     estimated scf accuracy    <       0.00376064 Ry

     iteration # 40     ecut=    25.00 Ry     beta=0.70
     Davidson diagonalization with overlap
     ethr =  4.69E-06,  avg # of iterations =  1.0

     total cpu time spent up to now is        9.7 secs

     total energy              =     -15.03002004 Ry
     Harris-Foulkes estimate   =     -15.03005004 Ry
     estimated scf accuracy    <       0.00383957 Ry

     iteration # 41     ecut=    25.00 Ry     beta=0.70
     Davidson diagonalization with overlap
     ethr =  4.69E-06,  avg # of iterations =  1.0

     total cpu time spent up to now is        9.9 secs

     total energy              =     -15.02999847 Ry
     Harris-Foulkes estimate   =     -15.03002473 Ry
     estimated scf accuracy    <       0.00372001 Ry

     iteration # 42     ecut=    25.00 Ry     beta=0.70
     Davidson diagonalization with overlap
     ethr =  4.69E-06,  avg # of iterations =  1.0

     total cpu time spent up to now is       10.1 secs

     total energy              =     -15.02994657 Ry
     Harris-Foulkes estimate   =     -15.03000123 Ry
     estimated scf accuracy    <       0.00362960 Ry

     iteration # 43     ecut=    25.00 Ry     beta=0.70
     Davidson diagonalization with overlap
     ethr =  4.69E-06,  avg # of iterations =  1.0

     total cpu time spent up to now is       10.3 secs

     total energy              =     -15.02993237 Ry
     Harris-Foulkes estimate   =     -15.02994942 Ry
     estimated scf accuracy    <       0.00343305 Ry

     iteration # 44     ecut=    25.00 Ry     beta=0.70
     Davidson diagonalization with overlap
     ethr =  4.69E-06,  avg # of iterations =  1.0

     total cpu time spent up to now is       10.5 secs

     total energy              =     -15.02994294 Ry
     Harris-Foulkes estimate   =     -15.02993511 Ry
     estimated scf accuracy    <       0.00329361 Ry

     iteration # 45     ecut=    25.00 Ry     beta=0.70
     Davidson diagonalization with overlap
     ethr =  4.69E-06,  avg # of iterations =  1.0

     total cpu time spent up to now is       10.7 secs

     total energy              =     -15.02995280 Ry
     Harris-Foulkes estimate   =     -15.02994540 Ry
     estimated scf accuracy    <       0.00326056 Ry

     iteration # 46     ecut=    25.00 Ry     beta=0.70
     Davidson diagonalization with overlap
     ethr =  4.69E-06,  avg # of iterations =  1.0

     total cpu time spent up to now is       10.9 secs

     total energy              =     -15.02998591 Ry
     Harris-Foulkes estimate   =     -15.02995532 Ry
     estimated scf accuracy    <       0.00320553 Ry

     iteration # 47     ecut=    25.00 Ry     beta=0.70
     Davidson diagonalization with overlap
     ethr =  4.69E-06,  avg # of iterations =  1.0

     negative rho (up, down):  2.705E-05 0.000E+00

     total cpu time spent up to now is       11.1 secs

     total energy              =     -15.02855893 Ry
     Harris-Foulkes estimate   =     -15.02998833 Ry
     estimated scf accuracy    <       0.00327261 Ry

     iteration # 48     ecut=    25.00 Ry     beta=0.70
     Davidson diagonalization with overlap
     c_bands:  1 eigenvalues not converged
     ethr =  4.69E-06,  avg # of iterations = 20.0

     negative rho (up, down):  2.406E-05 0.000E+00

     total cpu time spent up to now is       11.4 secs

     total energy              =     -15.08564717 Ry
     Harris-Foulkes estimate   =     -15.08542589 Ry
     estimated scf accuracy    <       0.71104660 Ry

     iteration # 49     ecut=    25.00 Ry     beta=0.70
     Davidson diagonalization with overlap
     ethr =  4.69E-06,  avg # of iterations =  2.0

     negative rho (up, down):  7.150E-05 0.000E+00

     total cpu time spent up to now is       11.7 secs

     total energy              =     -15.08507808 Ry
     Harris-Foulkes estimate   =     -15.08566477 Ry
     estimated scf accuracy    <       0.71190825 Ry

     iteration # 50     ecut=    25.00 Ry     beta=0.70
     Davidson diagonalization with overlap
     ethr =  4.69E-06,  avg # of iterations =  1.0

     negative rho (up, down):  3.262E-04 0.000E+00

     total cpu time spent up to now is       11.9 secs

     total energy              =     -15.08097336 Ry
     Harris-Foulkes estimate   =     -15.08508331 Ry
     estimated scf accuracy    <       0.70759826 Ry

     iteration # 51     ecut=    25.00 Ry     beta=0.70
     Davidson diagonalization with overlap
     ethr =  4.69E-06,  avg # of iterations =  2.0

     negative rho (up, down):  1.577E-04 0.000E+00

     total cpu time spent up to now is       12.1 secs

     total energy              =     -15.07850796 Ry
     Harris-Foulkes estimate   =     -15.08102395 Ry
     estimated scf accuracy    <       0.68602224 Ry

     iteration # 52     ecut=    25.00 Ry     beta=0.70
     Davidson diagonalization with overlap
     ethr =  4.69E-06,  avg # of iterations =  4.0

     negative rho (up, down):  1.285E-04 0.000E+00

     total cpu time spent up to now is       12.3 secs

     total energy              =     -15.07328631 Ry
     Harris-Foulkes estimate   =     -15.07859443 Ry
     estimated scf accuracy    <       0.64204264 Ry

     iteration # 53     ecut=    25.00 Ry     beta=0.70
     Davidson diagonalization with overlap
     ethr =  4.69E-06,  avg # of iterations =  6.0

     negative rho (up, down):  5.444E-06 0.000E+00

     total cpu time spent up to now is       12.5 secs

     total energy              =     -15.07136221 Ry
     Harris-Foulkes estimate   =     -15.07394291 Ry
     estimated scf accuracy    <       0.44084805 Ry

     iteration # 54     ecut=    25.00 Ry     beta=0.70
     Davidson diagonalization with overlap
     ethr =  4.69E-06,  avg # of iterations =  6.0

     negative rho (up, down):  2.819E-05 0.000E+00

     total cpu time spent up to now is       12.8 secs

     total energy              =     -15.07422758 Ry
     Harris-Foulkes estimate   =     -15.07183253 Ry
     estimated scf accuracy    <       0.29586769 Ry

     iteration # 55     ecut=    25.00 Ry     beta=0.70
     Davidson diagonalization with overlap
     ethr =  4.69E-06,  avg # of iterations =  6.0

     negative rho (up, down):  1.476E-05 0.000E+00

     total cpu time spent up to now is       13.0 secs

     total energy              =     -15.06546820 Ry
     Harris-Foulkes estimate   =     -15.07460405 Ry
     estimated scf accuracy    <       0.40958838 Ry

     iteration # 56     ecut=    25.00 Ry     beta=0.70
     Davidson diagonalization with overlap
     ethr =  4.69E-06,  avg # of iterations =  7.0

     negative rho (up, down):  4.939E-03 0.000E+00

     total cpu time spent up to now is       13.3 secs

     total energy              =     -15.03939084 Ry
     Harris-Foulkes estimate   =     -15.06916046 Ry
     estimated scf accuracy    <       0.14284118 Ry

     iteration # 57     ecut=    25.00 Ry     beta=0.70
     Davidson diagonalization with overlap
     c_bands:  2 eigenvalues not converged
     ethr =  4.69E-06,  avg # of iterations = 20.0

     negative rho (up, down):  2.751E-03 0.000E+00

     total cpu time spent up to now is       13.8 secs

     total energy              =     -15.05935638 Ry
     Harris-Foulkes estimate   =     -15.09727453 Ry
     estimated scf accuracy    <       0.72273531 Ry

     iteration # 58     ecut=    25.00 Ry     beta=0.70
     Davidson diagonalization with overlap
     ethr =  4.69E-06,  avg # of iterations = 12.0

     negative rho (up, down):  2.524E-04 0.000E+00

     total cpu time spent up to now is       14.1 secs

     total energy              =     -15.04085645 Ry
     Harris-Foulkes estimate   =     -15.06434146 Ry
     estimated scf accuracy    <       0.26046821 Ry

     iteration # 59     ecut=    25.00 Ry     beta=0.70
     Davidson diagonalization with overlap
     ethr =  4.69E-06,  avg # of iterations = 11.0

     negative rho (up, down):  1.472E-04 0.000E+00

     total cpu time spent up to now is       14.4 secs

     total energy              =     -15.03850664 Ry
     Harris-Foulkes estimate   =     -15.04482525 Ry
     estimated scf accuracy    <       0.19072608 Ry

     iteration # 60     ecut=    25.00 Ry     beta=0.70
     Davidson diagonalization with overlap
     c_bands:  1 eigenvalues not converged
     ethr =  4.69E-06,  avg # of iterations = 20.0

     negative rho (up, down):  1.113E-05 0.000E+00

     total cpu time spent up to now is       14.8 secs

     total energy              =     -15.04603635 Ry
     Harris-Foulkes estimate   =     -15.05406222 Ry
     estimated scf accuracy    <       0.16446466 Ry

     iteration # 61     ecut=    25.00 Ry     beta=0.70
     Davidson diagonalization with overlap
     ethr =  4.69E-06,  avg # of iterations = 16.0

     negative rho (up, down):  6.183E-06 0.000E+00

     total cpu time spent up to now is       15.2 secs

     total energy              =     -15.05499082 Ry
     Harris-Foulkes estimate   =     -15.06199647 Ry
     estimated scf accuracy    <       0.52503700 Ry

     iteration # 62     ecut=    25.00 Ry     beta=0.70
     Davidson diagonalization with overlap
     ethr =  4.69E-06,  avg # of iterations = 12.0

     negative rho (up, down):  8.227E-06 0.000E+00

     total cpu time spent up to now is       15.5 secs

     total energy              =     -15.05017566 Ry
     Harris-Foulkes estimate   =     -15.05622440 Ry
     estimated scf accuracy    <       0.39447161 Ry

     iteration # 63     ecut=    25.00 Ry     beta=0.70
     Davidson diagonalization with overlap
     c_bands:  1 eigenvalues not converged
     ethr =  4.69E-06,  avg # of iterations = 20.0

     negative rho (up, down):  1.203E-06 0.000E+00

     total cpu time spent up to now is       15.8 secs

     total energy              =     -15.04166520 Ry
     Harris-Foulkes estimate   =     -15.05474087 Ry
     estimated scf accuracy    <       0.11042773 Ry

     iteration # 64     ecut=    25.00 Ry     beta=0.70
     Davidson diagonalization with overlap
     c_bands:  1 eigenvalues not converged
     ethr =  4.69E-06,  avg # of iterations = 20.0

     negative rho (up, down):  1.505E-05 0.000E+00

     total cpu time spent up to now is       16.2 secs

     total energy              =     -15.04656556 Ry
     Harris-Foulkes estimate   =     -15.05001470 Ry
     estimated scf accuracy    <       0.39572547 Ry

     iteration # 65     ecut=    25.00 Ry     beta=0.70
     Davidson diagonalization with overlap
     ethr =  4.69E-06,  avg # of iterations = 20.0

     negative rho (up, down):  1.691E-04 0.000E+00

     total cpu time spent up to now is       16.6 secs

     total energy              =     -15.05158166 Ry
     Harris-Foulkes estimate   =     -15.06004380 Ry
     estimated scf accuracy    <       0.41892608 Ry

     iteration # 66     ecut=    25.00 Ry     beta=0.70
     Davidson diagonalization with overlap
     ethr =  4.69E-06,  avg # of iterations =  8.0

     negative rho (up, down):  4.030E-05 0.000E+00

     total cpu time spent up to now is       16.8 secs

     total energy              =     -15.03833035 Ry
     Harris-Foulkes estimate   =     -15.05538261 Ry
     estimated scf accuracy    <       0.10644578 Ry

     iteration # 67     ecut=    25.00 Ry     beta=0.70
     Davidson diagonalization with overlap
     ethr =  4.69E-06,  avg # of iterations = 18.0

     negative rho (up, down):  1.415E-06 0.000E+00

     total cpu time spent up to now is       17.2 secs

     total energy              =     -15.03930319 Ry
     Harris-Foulkes estimate   =     -15.05234711 Ry
     estimated scf accuracy    <       0.39012983 Ry

     iteration # 68     ecut=    25.00 Ry     beta=0.70
     Davidson diagonalization with overlap
     ethr =  4.69E-06,  avg # of iterations = 11.0

     negative rho (up, down):  1.807E-06 0.000E+00

     total cpu time spent up to now is       17.5 secs

     total energy              =     -15.03648481 Ry
     Harris-Foulkes estimate   =     -15.04108373 Ry
     estimated scf accuracy    <       0.12776603 Ry

     iteration # 69     ecut=    25.00 Ry     beta=0.70
     Davidson diagonalization with overlap
     c_bands:  1 eigenvalues not converged
     ethr =  4.69E-06,  avg # of iterations = 20.0

     total cpu time spent up to now is       17.9 secs

     total energy              =     -15.04782909 Ry
     Harris-Foulkes estimate   =     -15.05110603 Ry
     estimated scf accuracy    <       0.08478139 Ry

     iteration # 70     ecut=    25.00 Ry     beta=0.70
     Davidson diagonalization with overlap
     ethr =  4.69E-06,  avg # of iterations = 11.0

     total cpu time spent up to now is       18.1 secs

     total energy              =     -15.04799184 Ry
     Harris-Foulkes estimate   =     -15.04920313 Ry
     estimated scf accuracy    <       0.08402818 Ry

     iteration # 71     ecut=    25.00 Ry     beta=0.70
     Davidson diagonalization with overlap
     ethr =  4.69E-06,  avg # of iterations =  1.0

     total cpu time spent up to now is       18.3 secs

     total energy              =     -15.04510272 Ry
     Harris-Foulkes estimate   =     -15.04799937 Ry
     estimated scf accuracy    <       0.08004049 Ry

     iteration # 72     ecut=    25.00 Ry     beta=0.70
     Davidson diagonalization with overlap
     ethr =  4.69E-06,  avg # of iterations =  1.0

     negative rho (up, down):  4.725E-06 0.000E+00

     total cpu time spent up to now is       18.6 secs

     total energy              =     -15.04568990 Ry
     Harris-Foulkes estimate   =     -15.04512739 Ry
     estimated scf accuracy    <       0.07060983 Ry

     iteration # 73     ecut=    25.00 Ry     beta=0.70
     Davidson diagonalization with overlap
     ethr =  4.69E-06,  avg # of iterations = 16.0

     total cpu time spent up to now is       18.9 secs

     total energy              =     -15.04071542 Ry
     Harris-Foulkes estimate   =     -15.05337352 Ry
     estimated scf accuracy    <       0.32503588 Ry

     iteration # 74     ecut=    25.00 Ry     beta=0.70
     Davidson diagonalization with overlap
     ethr =  4.69E-06,  avg # of iterations =  8.0

     total cpu time spent up to now is       19.2 secs

     total energy              =     -15.04294441 Ry
     Harris-Foulkes estimate   =     -15.04313629 Ry
     estimated scf accuracy    <       0.07407206 Ry

     iteration # 75     ecut=    25.00 Ry     beta=0.70
     Davidson diagonalization with overlap
     ethr =  4.69E-06,  avg # of iterations =  1.0

     total cpu time spent up to now is       19.4 secs

     total energy              =     -15.04170500 Ry
     Harris-Foulkes estimate   =     -15.04295716 Ry
     estimated scf accuracy    <       0.07322115 Ry

     iteration # 76     ecut=    25.00 Ry     beta=0.70
     Davidson diagonalization with overlap
     ethr =  4.69E-06,  avg # of iterations =  1.0

     negative rho (up, down):  2.849E-05 0.000E+00

     total cpu time spent up to now is       19.6 secs

     total energy              =     -15.03360410 Ry
     Harris-Foulkes estimate   =     -15.04172213 Ry
     estimated scf accuracy    <       0.06919414 Ry

     iteration # 77     ecut=    25.00 Ry     beta=0.70
     Davidson diagonalization with overlap
     c_bands:  1 eigenvalues not converged
     ethr =  4.69E-06,  avg # of iterations = 20.0

     negative rho (up, down):  3.096E-05 0.000E+00

     total cpu time spent up to now is       19.9 secs

     total energy              =     -15.08035015 Ry
     Harris-Foulkes estimate   =     -15.08315344 Ry
     estimated scf accuracy    <       0.66447116 Ry

     iteration # 78     ecut=    25.00 Ry     beta=0.70
     Davidson diagonalization with overlap
     ethr =  4.69E-06,  avg # of iterations =  1.0

     negative rho (up, down):  6.116E-06 0.000E+00

     total cpu time spent up to now is       20.1 secs

     total energy              =     -15.03009149 Ry
     Harris-Foulkes estimate   =     -15.08036581 Ry
     estimated scf accuracy    <       0.65196231 Ry

     iteration # 79     ecut=    25.00 Ry     beta=0.70
     Davidson diagonalization with overlap
     ethr =  4.69E-06,  avg # of iterations = 12.0

     total cpu time spent up to now is       20.5 secs

     total energy              =     -15.04971481 Ry
     Harris-Foulkes estimate   =     -15.07007311 Ry
     estimated scf accuracy    <       0.64373948 Ry

     iteration # 80     ecut=    25.00 Ry     beta=0.70
     Davidson diagonalization with overlap
     ethr =  4.69E-06,  avg # of iterations = 10.0

     negative rho (up, down):  1.120E-06 0.000E+00

     total cpu time spent up to now is       20.8 secs

     total energy              =     -15.03533511 Ry
     Harris-Foulkes estimate   =     -15.05084209 Ry
     estimated scf accuracy    <       0.38781168 Ry

     iteration # 81     ecut=    25.00 Ry     beta=0.70
     Davidson diagonalization with overlap
     ethr =  4.69E-06,  avg # of iterations =  7.0

     negative rho (up, down):  5.784E-08 0.000E+00

     total cpu time spent up to now is       21.0 secs

     total energy              =     -15.04400506 Ry
     Harris-Foulkes estimate   =     -15.03922264 Ry
     estimated scf accuracy    <       0.03772034 Ry

     iteration # 82     ecut=    25.00 Ry     beta=0.70
     Davidson diagonalization with overlap
     ethr =  4.69E-06,  avg # of iterations = 12.0

     negative rho (up, down):  3.920E-08 0.000E+00

     total cpu time spent up to now is       21.4 secs

     total energy              =     -15.05338178 Ry
     Harris-Foulkes estimate   =     -15.05570410 Ry
     estimated scf accuracy    <       0.52851583 Ry

     iteration # 83     ecut=    25.00 Ry     beta=0.70
     Davidson diagonalization with overlap
     ethr =  4.69E-06,  avg # of iterations =  2.0

     total cpu time spent up to now is       21.6 secs

     total energy              =     -15.03607447 Ry
     Harris-Foulkes estimate   =     -15.05346643 Ry
     estimated scf accuracy    <       0.52023958 Ry

     iteration # 84     ecut=    25.00 Ry     beta=0.70
     Davidson diagonalization with overlap
     c_bands:  1 eigenvalues not converged
     ethr =  4.69E-06,  avg # of iterations = 20.0

     total cpu time spent up to now is       21.9 secs

     total energy              =     -15.04964685 Ry
     Harris-Foulkes estimate   =     -15.04881595 Ry
     estimated scf accuracy    <       0.31793481 Ry

     iteration # 85     ecut=    25.00 Ry     beta=0.70
     Davidson diagonalization with overlap
     ethr =  4.69E-06,  avg # of iterations = 12.0

     total cpu time spent up to now is       22.2 secs

     total energy              =     -15.05033146 Ry
     Harris-Foulkes estimate   =     -15.05203531 Ry
     estimated scf accuracy    <       0.09765908 Ry

     iteration # 86     ecut=    25.00 Ry     beta=0.70
     Davidson diagonalization with overlap
     ethr =  4.69E-06,  avg # of iterations =  7.0

     total cpu time spent up to now is       22.4 secs

     total energy              =     -15.04948371 Ry
     Harris-Foulkes estimate   =     -15.05095124 Ry
     estimated scf accuracy    <       0.07389894 Ry

     iteration # 87     ecut=    25.00 Ry     beta=0.70
     Davidson diagonalization with overlap
     ethr =  4.69E-06,  avg # of iterations =  1.0

     total cpu time spent up to now is       22.6 secs

     total energy              =     -15.04627063 Ry
     Harris-Foulkes estimate   =     -15.04949652 Ry
     estimated scf accuracy    <       0.06870251 Ry

     iteration # 88     ecut=    25.00 Ry     beta=0.70
     Davidson diagonalization with overlap
     ethr =  4.69E-06,  avg # of iterations =  1.0

     total cpu time spent up to now is       22.8 secs

     total energy              =     -15.03403055 Ry
     Harris-Foulkes estimate   =     -15.04629781 Ry
     estimated scf accuracy    <       0.05768251 Ry

     iteration # 89     ecut=    25.00 Ry     beta=0.70
     Davidson diagonalization with overlap
     c_bands:  2 eigenvalues not converged
     ethr =  4.69E-06,  avg # of iterations = 20.0

     total cpu time spent up to now is       23.3 secs

     total energy              =     -15.04280598 Ry
     Harris-Foulkes estimate   =     -15.05335214 Ry
     estimated scf accuracy    <       0.39231606 Ry

     iteration # 90     ecut=    25.00 Ry     beta=0.70
     Davidson diagonalization with overlap
     ethr =  4.69E-06,  avg # of iterations = 13.0

     total cpu time spent up to now is       23.6 secs

     total energy              =     -15.04623583 Ry
     Harris-Foulkes estimate   =     -15.04494968 Ry
     estimated scf accuracy    <       0.09063684 Ry

     iteration # 91     ecut=    25.00 Ry     beta=0.70
     Davidson diagonalization with overlap
     ethr =  4.69E-06,  avg # of iterations =  6.0

     total cpu time spent up to now is       23.8 secs

     total energy              =     -15.04268381 Ry
     Harris-Foulkes estimate   =     -15.04675228 Ry
     estimated scf accuracy    <       0.13794015 Ry

     iteration # 92     ecut=    25.00 Ry     beta=0.70
     Davidson diagonalization with overlap
     ethr =  4.69E-06,  avg # of iterations =  6.0

     total cpu time spent up to now is       24.0 secs

     total energy              =     -15.04693434 Ry
     Harris-Foulkes estimate   =     -15.04320743 Ry
     estimated scf accuracy    <       0.05545038 Ry

     iteration # 93     ecut=    25.00 Ry     beta=0.70
     Davidson diagonalization with overlap
     ethr =  4.69E-06,  avg # of iterations =  9.0

     total cpu time spent up to now is       24.3 secs

     total energy              =     -15.04337946 Ry
     Harris-Foulkes estimate   =     -15.04748646 Ry
     estimated scf accuracy    <       0.14062743 Ry

     iteration # 94     ecut=    25.00 Ry     beta=0.70
     Davidson diagonalization with overlap
     ethr =  4.69E-06,  avg # of iterations =  7.0

     total cpu time spent up to now is       24.5 secs

     total energy              =     -15.04616946 Ry
     Harris-Foulkes estimate   =     -15.04370167 Ry
     estimated scf accuracy    <       0.07139326 Ry

     iteration # 95     ecut=    25.00 Ry     beta=0.70
     Davidson diagonalization with overlap
     ethr =  4.69E-06,  avg # of iterations =  6.0

     total cpu time spent up to now is       24.7 secs

     total energy              =     -15.04569318 Ry
     Harris-Foulkes estimate   =     -15.04639663 Ry
     estimated scf accuracy    <       0.12769836 Ry

     iteration # 96     ecut=    25.00 Ry     beta=0.70
     Davidson diagonalization with overlap
     ethr =  4.69E-06,  avg # of iterations =  1.0

     negative rho (up, down):  2.689E-07 0.000E+00

     total cpu time spent up to now is       24.9 secs

     total energy              =     -15.03693135 Ry
     Harris-Foulkes estimate   =     -15.04569638 Ry
     estimated scf accuracy    <       0.12530054 Ry

     iteration # 97     ecut=    25.00 Ry     beta=0.70
     Davidson diagonalization with overlap
     c_bands:  1 eigenvalues not converged
     ethr =  4.69E-06,  avg # of iterations = 20.0

     negative rho (up, down):  2.771E-07 0.000E+00

     total cpu time spent up to now is       25.3 secs

     total energy              =     -15.04336166 Ry
     Harris-Foulkes estimate   =     -15.04580670 Ry
     estimated scf accuracy    <       0.06117701 Ry

     iteration # 98     ecut=    25.00 Ry     beta=0.70
     Davidson diagonalization with overlap
     ethr =  4.69E-06,  avg # of iterations = 13.0

     total cpu time spent up to now is       25.6 secs

     total energy              =     -15.04293343 Ry
     Harris-Foulkes estimate   =     -15.04549746 Ry
     estimated scf accuracy    <       0.05578862 Ry

     iteration # 99     ecut=    25.00 Ry     beta=0.70
     Davidson diagonalization with overlap
     ethr =  4.69E-06,  avg # of iterations =  5.0

     total cpu time spent up to now is       25.8 secs

     total energy              =     -15.04329466 Ry
     Harris-Foulkes estimate   =     -15.04306107 Ry
     estimated scf accuracy    <       0.04770712 Ry

     iteration #100     ecut=    25.00 Ry     beta=0.70
     Davidson diagonalization with overlap
     ethr =  4.69E-06,  avg # of iterations =  1.0

     total cpu time spent up to now is       26.0 secs

     total energy              =     -15.04919683 Ry
     Harris-Foulkes estimate   =     -15.04329794 Ry
     estimated scf accuracy    <       0.04852108 Ry

     End of self-consistent calculation

     convergence NOT achieved after 100 iterations: stopping

     Writing output data file pwscf.save
 
     init_run     :      0.14s CPU      0.17s WALL (       1 calls)
     electrons    :     18.26s CPU     25.86s WALL (       1 calls)

     Called by init_run:
     wfcinit      :      0.05s CPU      0.06s WALL (       1 calls)
     potinit      :      0.03s CPU      0.04s WALL (       1 calls)

     Called by electrons:
     c_bands      :     10.37s CPU     10.81s WALL (     101 calls)
     sum_band     :      2.07s CPU      2.12s WALL (     101 calls)
     v_of_rho     :      1.58s CPU      1.81s WALL (     101 calls)
     mix_rho      :      4.00s CPU     10.76s WALL (     101 calls)

     Called by c_bands:
     init_us_2    :      0.34s CPU      0.42s WALL (     203 calls)
     cegterg      :      9.97s CPU     10.27s WALL (     101 calls)

     Called by sum_band:

     Called by *egterg:
     h_psi        :      8.64s CPU      8.77s WALL (     832 calls)
     g_psi        :      0.16s CPU      0.17s WALL (     730 calls)
     cdiaghg      :      0.02s CPU      0.05s WALL (     830 calls)

     Called by h_psi:
     h_psi:pot    :      8.58s CPU      8.69s WALL (     832 calls)
     h_psi:calbec :      0.18s CPU      0.17s WALL (     832 calls)
     vloc_psi     :      8.20s CPU      8.33s WALL (     832 calls)
     add_vuspsi   :      0.19s CPU      0.19s WALL (     832 calls)

     General routines
     calbec       :      0.18s CPU      0.17s WALL (     832 calls)
     fft          :      1.29s CPU      1.44s WALL (     406 calls)
     fftw         :      7.83s CPU      7.99s WALL (    4068 calls)
     davcio       :      0.54s CPU      5.17s WALL (    1928 calls)
 
     Parallel routines
     fft_scatter  :      1.70s CPU      1.71s WALL (    4474 calls)
 
     PWSCF        :    18.43s CPU        26.13s WALL

 
   This run was terminated on:   2:14:13  10Apr2017            

=------------------------------------------------------------------------------=
   JOB DONE.
=------------------------------------------------------------------------------=
