
     Program PWSCF v.6.0 (svn rev. 13079) starts on 10Apr2017 at 21: 8: 3 

     This program is part of the open-source Quantum ESPRESSO suite
     for quantum simulation of materials; please cite
         "P. Giannozzi et al., J. Phys.:Condens. Matter 21 395502 (2009);
          URL http://www.quantum-espresso.org", 
     in publications or presentations arising from this work. More details at
     http://www.quantum-espresso.org/quote

     Parallel version (MPI), running on     1 processors
     Waiting for input...
     Reading input from standard input
     Message from routine read_cards :
     DEPRECATED: no units specified in ATOMIC_POSITIONS card
     Message from routine read_cards :
     ATOMIC_POSITIONS: units set to alat

     Current dimensions of program PWSCF are:
     Max number of different atomic species (ntypx) = 10
     Max number of k-points (npk) =  40000
     Max angular momentum in pseudopotentials (lmaxx) =  3

     Subspace diagonalization in iterative solution of the eigenvalue problem:
     a serial algorithm will be used

 
     G-vector sticks info
     --------------------
     sticks:   dense  smooth     PW     G-vecs:    dense   smooth      PW
     Sum        3181    3181    793               135043   135043   16879
 


     bravais-lattice index     =            1
     lattice parameter (alat)  =      20.0000  a.u.
     unit-cell volume          =    8000.0000 (a.u.)^3
     number of atoms/cell      =            2
     number of atomic types    =            1
     number of electrons       =         8.00
     number of Kohn-Sham states=            4
     kinetic-energy cutoff     =      25.0000  Ry
     charge density cutoff     =     100.0000  Ry
     convergence threshold     =      1.0E-02
     mixing beta               =       0.7000
     number of iterations used =            8  plain     mixing
     Exchange-correlation      =  SLA  PZ   NOGX NOGC ( 1  1  0  0 0 0)
     nstep                     =          100


     celldm(1)=  20.000000  celldm(2)=   0.000000  celldm(3)=   0.000000
     celldm(4)=   0.000000  celldm(5)=   0.000000  celldm(6)=   0.000000

     crystal axes: (cart. coord. in units of alat)
               a(1) = (   1.000000   0.000000   0.000000 )  
               a(2) = (   0.000000   1.000000   0.000000 )  
               a(3) = (   0.000000   0.000000   1.000000 )  

     reciprocal axes: (cart. coord. in units 2 pi/alat)
               b(1) = (  1.000000  0.000000  0.000000 )  
               b(2) = (  0.000000  1.000000  0.000000 )  
               b(3) = (  0.000000  0.000000  1.000000 )  


     PseudoPot. # 1 for Si read from file:
     /home/brianbar/work/quantExpre/Si.pz-vbc.UPF
     MD5 check sum: 6dfa03ddd5817404712e03e4d12deb78
     Pseudo is Norm-conserving, Zval =  4.0
     Generated by new atomic code, or converted to UPF format
     Using radial grid of  431 points,  2 beta functions with: 
                l(1) =   0
                l(2) =   1

     atomic species   valence    mass     pseudopotential
        Si             4.00    28.08600     Si( 1.00)

     No symmetry found



   Cartesian axes

     site n.     atom                  positions (alat units)
         1           Si  tau(   1) = (  -0.1230000  -0.1230000  -0.1230000  )
         2           Si  tau(   2) = (   0.1230000   0.1230000   0.1230000  )

     number of k points=     1
                       cart. coord. in units 2pi/alat
        k(    1) = (   0.0000000   0.0000000   0.0000000), wk =   2.0000000

     Dense  grid:   135043 G-vectors     FFT dimensions: (  64,  64,  64)

     Estimated max dynamical RAM per process >      46.34Mb

     Initial potential from superposition of free atoms
     Check: negative starting charge=   -0.000184

     starting charge    7.99901, renormalised to    8.00000

     negative rho (up, down):  1.844E-04 0.000E+00
     Starting wfc are    8 randomized atomic wfcs

     total cpu time spent up to now is        0.3 secs

     per-process dynamical memory:    70.6 Mb

     Self-consistent Calculation

     iteration #  1     ecut=    25.00 Ry     beta=0.70
     Davidson diagonalization with overlap
     ethr =  1.00E-02,  avg # of iterations =  1.0

     Threshold (ethr) on eigenvalues was too large:
     Diagonalizing with lowered threshold

     Davidson diagonalization with overlap
     ethr =  5.68E-04,  avg # of iterations =  1.0

     negative rho (up, down):  1.708E-05 0.000E+00

     total cpu time spent up to now is        0.5 secs

     total energy              =     -15.03274519 Ry
     Harris-Foulkes estimate   =     -15.04814409 Ry
     estimated scf accuracy    <       0.04680581 Ry

     iteration #  2     ecut=    25.00 Ry     beta=0.70
     Davidson diagonalization with overlap
     ethr =  5.85E-04,  avg # of iterations =  1.0

     total cpu time spent up to now is        0.7 secs

     End of self-consistent calculation

          k = 0.0000 0.0000 0.0000 ( 16879 PWs)   bands (ev):

   -10.5255 -10.4131  -4.0357  -3.8257

     highest occupied level (ev):    -3.8257

!    total energy              =     -15.03395487 Ry
     Harris-Foulkes estimate   =     -15.03444001 Ry
     estimated scf accuracy    <       0.00206071 Ry

     convergence has been achieved in   2 iterations

     Forces acting on atoms (Ry/au):

     atom    1 type  1   force =     0.02240198    0.02272238    0.02291332
     atom    2 type  1   force =    -0.02240198   -0.02272238   -0.02291332

     Total force =     0.055555     Total SCF correction =     0.001689

     Molecular Dynamics Calculation
     mass Si               =    28.09
     Time step             =    20.00 a.u.,  0.9676 femto-seconds

     Entering Dynamics:    iteration =     1
                           time      =   0.0010 pico-seconds


ATOMIC_POSITIONS (alat)
Si      -0.122991249  -0.122991124  -0.122991049
Si       0.122991249   0.122991124   0.122991049


     kinetic energy (Ekin) =     0.00000000 Ry
     temperature           =     0.00000000 K 
     Ekin + Etot (const)   =   -15.03395487 Ry

     Linear momentum :    0.0000000000    0.0000000000    0.0000000000

     Writing output data file pwscf.save
     Check: negative starting charge=   -0.000184
     NEW-OLD atomic charge density approx. for the potential
     Check: negative starting charge=   -0.000184

     total cpu time spent up to now is        1.0 secs

     per-process dynamical memory:    76.4 Mb

     Self-consistent Calculation

     iteration #  1     ecut=    25.00 Ry     beta=0.70
     Davidson diagonalization with overlap
     ethr =  1.00E-06,  avg # of iterations = 18.0

     total cpu time spent up to now is        1.4 secs

     total energy              =     -15.02738522 Ry
     Harris-Foulkes estimate   =     -15.06624405 Ry
     estimated scf accuracy    <       0.12900742 Ry

     iteration #  2     ecut=    25.00 Ry     beta=0.70
     Davidson diagonalization with overlap
     ethr =  1.61E-03,  avg # of iterations =  1.0

     total cpu time spent up to now is        1.5 secs

     total energy              =     -15.02738103 Ry
     Harris-Foulkes estimate   =     -15.03264017 Ry
     estimated scf accuracy    <       0.01006789 Ry

     iteration #  3     ecut=    25.00 Ry     beta=0.70
     Davidson diagonalization with overlap
     ethr =  1.26E-04,  avg # of iterations =  5.0

     total cpu time spent up to now is        1.7 secs

     total energy              =     -14.97085264 Ry
     Harris-Foulkes estimate   =     -15.06364072 Ry
     estimated scf accuracy    <       0.92708955 Ry

     iteration #  4     ecut=    25.00 Ry     beta=0.70
     Davidson diagonalization with overlap
     ethr =  1.26E-04,  avg # of iterations =  7.0

     total cpu time spent up to now is        2.0 secs

     total energy              =     -15.04490440 Ry
     Harris-Foulkes estimate   =     -15.05908628 Ry
     estimated scf accuracy    <       0.83118107 Ry

     iteration #  5     ecut=    25.00 Ry     beta=0.70
     Davidson diagonalization with overlap
     ethr =  1.26E-04,  avg # of iterations =  1.0

     total cpu time spent up to now is        2.2 secs

     total energy              =     -15.04225348 Ry
     Harris-Foulkes estimate   =     -15.04512513 Ry
     estimated scf accuracy    <       0.77727340 Ry

     iteration #  6     ecut=    25.00 Ry     beta=0.70
     Davidson diagonalization with overlap
     ethr =  1.26E-04,  avg # of iterations =  1.0

     total cpu time spent up to now is        2.4 secs

     total energy              =     -15.04590223 Ry
     Harris-Foulkes estimate   =     -15.04239237 Ry
     estimated scf accuracy    <       0.76360260 Ry

     iteration #  7     ecut=    25.00 Ry     beta=0.70
     Davidson diagonalization with overlap
     ethr =  1.26E-04,  avg # of iterations =  1.0

     negative rho (up, down):  9.416E-06 0.000E+00

     total cpu time spent up to now is        2.6 secs

     total energy              =     -14.98503118 Ry
     Harris-Foulkes estimate   =     -15.04595942 Ry
     estimated scf accuracy    <       0.76136982 Ry

     iteration #  8     ecut=    25.00 Ry     beta=0.70
     Davidson diagonalization with overlap
     ethr =  1.26E-04,  avg # of iterations =  6.0

     negative rho (up, down):  1.499E-07 0.000E+00

     total cpu time spent up to now is        2.8 secs

     total energy              =     -15.03975451 Ry
     Harris-Foulkes estimate   =     -15.05216614 Ry
     estimated scf accuracy    <       0.69582327 Ry

     iteration #  9     ecut=    25.00 Ry     beta=0.70
     Davidson diagonalization with overlap
     ethr =  1.26E-04,  avg # of iterations =  1.0

     total cpu time spent up to now is        3.1 secs

     total energy              =     -15.02818333 Ry
     Harris-Foulkes estimate   =     -15.03994047 Ry
     estimated scf accuracy    <       0.66065167 Ry

     iteration # 10     ecut=    25.00 Ry     beta=0.70
     Davidson diagonalization with overlap
     ethr =  1.26E-04,  avg # of iterations =  3.0

     negative rho (up, down):  2.099E-06 0.000E+00

     total cpu time spent up to now is        3.3 secs

     total energy              =     -15.04598279 Ry
     Harris-Foulkes estimate   =     -15.03013831 Ry
     estimated scf accuracy    <       0.43524067 Ry

     iteration # 11     ecut=    25.00 Ry     beta=0.70
     Davidson diagonalization with overlap
     ethr =  1.26E-04,  avg # of iterations =  4.0

     negative rho (up, down):  1.824E-06 0.000E+00

     total cpu time spent up to now is        3.5 secs

     total energy              =     -15.05221359 Ry
     Harris-Foulkes estimate   =     -15.04729606 Ry
     estimated scf accuracy    <       0.61735153 Ry

     iteration # 12     ecut=    25.00 Ry     beta=0.70
     Davidson diagonalization with overlap
     ethr =  1.26E-04,  avg # of iterations =  1.0

     negative rho (up, down):  8.781E-07 0.000E+00

     total cpu time spent up to now is        3.7 secs

     total energy              =     -15.04994831 Ry
     Harris-Foulkes estimate   =     -15.05228348 Ry
     estimated scf accuracy    <       0.63046778 Ry

     iteration # 13     ecut=    25.00 Ry     beta=0.70
     Davidson diagonalization with overlap
     ethr =  1.26E-04,  avg # of iterations =  1.0

     negative rho (up, down):  2.115E-07 0.000E+00

     total cpu time spent up to now is        3.9 secs

     total energy              =     -15.04396967 Ry
     Harris-Foulkes estimate   =     -15.04998543 Ry
     estimated scf accuracy    <       0.62742436 Ry

     iteration # 14     ecut=    25.00 Ry     beta=0.70
     Davidson diagonalization with overlap
     ethr =  1.26E-04,  avg # of iterations =  1.0

     negative rho (up, down):  4.660E-08 0.000E+00

     total cpu time spent up to now is        4.1 secs

     total energy              =     -15.03351585 Ry
     Harris-Foulkes estimate   =     -15.04421869 Ry
     estimated scf accuracy    <       0.58368073 Ry

     iteration # 15     ecut=    25.00 Ry     beta=0.70
     Davidson diagonalization with overlap
     ethr =  1.26E-04,  avg # of iterations =  1.0

     negative rho (up, down):  4.909E-08 0.000E+00

     total cpu time spent up to now is        4.3 secs

     total energy              =     -15.03149854 Ry
     Harris-Foulkes estimate   =     -15.03386149 Ry
     estimated scf accuracy    <       0.54883915 Ry

     iteration # 16     ecut=    25.00 Ry     beta=0.70
     Davidson diagonalization with overlap
     ethr =  1.26E-04,  avg # of iterations =  1.0

     negative rho (up, down):  1.868E-03 0.000E+00

     total cpu time spent up to now is        4.6 secs

     total energy              =     -14.86489596 Ry
     Harris-Foulkes estimate   =     -15.03183564 Ry
     estimated scf accuracy    <       0.52508928 Ry

     iteration # 17     ecut=    25.00 Ry     beta=0.70
     Davidson diagonalization with overlap
     ethr =  1.26E-04,  avg # of iterations =  8.0

     negative rho (up, down):  6.638E-05 0.000E+00

     total cpu time spent up to now is        4.9 secs

     total energy              =     -15.21418173 Ry
     Harris-Foulkes estimate   =     -15.34225231 Ry
     estimated scf accuracy    <       2.06317659 Ry

     iteration # 18     ecut=    25.00 Ry     beta=0.70
     Davidson diagonalization with overlap
     ethr =  1.26E-04,  avg # of iterations =  2.0

     negative rho (up, down):  7.434E-05 0.000E+00

     total cpu time spent up to now is        5.2 secs

     total energy              =     -15.13384410 Ry
     Harris-Foulkes estimate   =     -15.21787214 Ry
     estimated scf accuracy    <       1.77211497 Ry

     iteration # 19     ecut=    25.00 Ry     beta=0.70
     Davidson diagonalization with overlap
     ethr =  1.26E-04,  avg # of iterations = 14.0

     negative rho (up, down):  2.284E-05 0.000E+00

     total cpu time spent up to now is        5.5 secs

     total energy              =     -15.08341336 Ry
     Harris-Foulkes estimate   =     -15.17690018 Ry
     estimated scf accuracy    <       1.69217071 Ry

     iteration # 20     ecut=    25.00 Ry     beta=0.70
     Davidson diagonalization with overlap
     ethr =  1.26E-04,  avg # of iterations =  5.0

     negative rho (up, down):  3.900E-07 0.000E+00

     total cpu time spent up to now is        5.8 secs

     total energy              =     -15.09340833 Ry
     Harris-Foulkes estimate   =     -15.09653407 Ry
     estimated scf accuracy    <       0.92661938 Ry

     iteration # 21     ecut=    25.00 Ry     beta=0.70
     Davidson diagonalization with overlap
     ethr =  1.26E-04,  avg # of iterations =  1.0

     negative rho (up, down):  1.492E-08 0.000E+00

     total cpu time spent up to now is        6.0 secs

     total energy              =     -15.08950717 Ry
     Harris-Foulkes estimate   =     -15.09354464 Ry
     estimated scf accuracy    <       0.92242383 Ry

     iteration # 22     ecut=    25.00 Ry     beta=0.70
     Davidson diagonalization with overlap
     ethr =  1.26E-04,  avg # of iterations =  1.0

     total cpu time spent up to now is        6.2 secs

     total energy              =     -15.07526681 Ry
     Harris-Foulkes estimate   =     -15.08959947 Ry
     estimated scf accuracy    <       0.90855767 Ry

     iteration # 23     ecut=    25.00 Ry     beta=0.70
     Davidson diagonalization with overlap
     ethr =  1.26E-04,  avg # of iterations =  3.0

     total cpu time spent up to now is        6.5 secs

     total energy              =     -15.08066810 Ry
     Harris-Foulkes estimate   =     -15.07663061 Ry
     estimated scf accuracy    <       0.70694616 Ry

     iteration # 24     ecut=    25.00 Ry     beta=0.70
     Davidson diagonalization with overlap
     ethr =  1.26E-04,  avg # of iterations =  1.0

     total cpu time spent up to now is        6.7 secs

     total energy              =     -15.08150721 Ry
     Harris-Foulkes estimate   =     -15.08084328 Ry
     estimated scf accuracy    <       0.71889900 Ry

     iteration # 25     ecut=    25.00 Ry     beta=0.70
     Davidson diagonalization with overlap
     ethr =  1.26E-04,  avg # of iterations =  1.0

     negative rho (up, down):  3.787E-05 0.000E+00

     total cpu time spent up to now is        6.9 secs

     total energy              =     -15.07931155 Ry
     Harris-Foulkes estimate   =     -15.08166729 Ry
     estimated scf accuracy    <       0.72612984 Ry

     iteration # 26     ecut=    25.00 Ry     beta=0.70
     Davidson diagonalization with overlap
     ethr =  1.26E-04,  avg # of iterations =  7.0

     negative rho (up, down):  9.413E-04 0.000E+00

     total cpu time spent up to now is        7.2 secs

     total energy              =     -15.06913626 Ry
     Harris-Foulkes estimate   =     -15.13322378 Ry
     estimated scf accuracy    <       0.58922242 Ry

     iteration # 27     ecut=    25.00 Ry     beta=0.70
     Davidson diagonalization with overlap
     ethr =  1.26E-04,  avg # of iterations =  7.0

     negative rho (up, down):  7.310E-02 0.000E+00

     total cpu time spent up to now is        7.5 secs

     total energy              =     -15.44829252 Ry
     Harris-Foulkes estimate   =     -15.19608406 Ry
     estimated scf accuracy    <       1.80829425 Ry

     iteration # 28     ecut=    25.00 Ry     beta=0.70
     Davidson diagonalization with overlap
     ethr =  1.26E-04,  avg # of iterations =  4.0

     negative rho (up, down):  3.342E-03 0.000E+00

     total cpu time spent up to now is        7.7 secs

     total energy              =     -15.57668604 Ry
     Harris-Foulkes estimate   =     -15.47992597 Ry
     estimated scf accuracy    <       2.33973022 Ry

     iteration # 29     ecut=    25.00 Ry     beta=0.70
     Davidson diagonalization with overlap
     ethr =  1.26E-04,  avg # of iterations =  3.0

     negative rho (up, down):  1.367E-04 0.000E+00

     total cpu time spent up to now is        8.0 secs

     total energy              =     -15.35123200 Ry
     Harris-Foulkes estimate   =     -15.58397940 Ry
     estimated scf accuracy    <       2.54364088 Ry

     iteration # 30     ecut=    25.00 Ry     beta=0.70
     Davidson diagonalization with overlap
     ethr =  1.26E-04,  avg # of iterations =  3.0

     negative rho (up, down):  3.559E-05 0.000E+00

     total cpu time spent up to now is        8.2 secs

     total energy              =     -15.18799414 Ry
     Harris-Foulkes estimate   =     -15.35510297 Ry
     estimated scf accuracy    <       2.12276342 Ry

     iteration # 31     ecut=    25.00 Ry     beta=0.70
     Davidson diagonalization with overlap
     ethr =  1.26E-04,  avg # of iterations =  4.0

     negative rho (up, down):  1.428E-05 0.000E+00

     total cpu time spent up to now is        8.5 secs

     total energy              =     -14.50430477 Ry
     Harris-Foulkes estimate   =     -15.19153230 Ry
     estimated scf accuracy    <       1.73854484 Ry

     iteration # 32     ecut=    25.00 Ry     beta=0.70
     Davidson diagonalization with overlap
     ethr =  1.26E-04,  avg # of iterations =  7.0

     negative rho (up, down):  1.169E-05 0.000E+00

     total cpu time spent up to now is        8.8 secs

     total energy              =     -15.47356328 Ry
     Harris-Foulkes estimate   =     -15.62924488 Ry
     estimated scf accuracy    <       2.66491976 Ry

     iteration # 33     ecut=    25.00 Ry     beta=0.70
     Davidson diagonalization with overlap
     ethr =  1.26E-04,  avg # of iterations =  2.0

     negative rho (up, down):  1.859E-05 0.000E+00

     total cpu time spent up to now is        9.0 secs

     total energy              =     -15.29075076 Ry
     Harris-Foulkes estimate   =     -15.47675966 Ry
     estimated scf accuracy    <       2.35768687 Ry

     iteration # 34     ecut=    25.00 Ry     beta=0.70
     Davidson diagonalization with overlap
     ethr =  1.26E-04,  avg # of iterations =  4.0

     negative rho (up, down):  1.026E-05 0.000E+00

     total cpu time spent up to now is        9.3 secs

     total energy              =     -15.22781328 Ry
     Harris-Foulkes estimate   =     -15.29572778 Ry
     estimated scf accuracy    <       1.95132915 Ry

     iteration # 35     ecut=    25.00 Ry     beta=0.70
     Davidson diagonalization with overlap
     ethr =  1.26E-04,  avg # of iterations =  2.0

     negative rho (up, down):  1.765E-05 0.000E+00

     total cpu time spent up to now is        9.5 secs

     total energy              =     -15.41970326 Ry
     Harris-Foulkes estimate   =     -15.22861488 Ry
     estimated scf accuracy    <       1.79172964 Ry

     iteration # 36     ecut=    25.00 Ry     beta=0.70
     Davidson diagonalization with overlap
     ethr =  1.26E-04,  avg # of iterations =  4.0

     negative rho (up, down):  2.055E-05 0.000E+00

     total cpu time spent up to now is        9.8 secs

     total energy              =     -15.42192049 Ry
     Harris-Foulkes estimate   =     -15.42649594 Ry
     estimated scf accuracy    <       2.24186253 Ry

     iteration # 37     ecut=    25.00 Ry     beta=0.70
     Davidson diagonalization with overlap
     ethr =  1.26E-04,  avg # of iterations =  1.0

     negative rho (up, down):  6.160E-05 0.000E+00

     total cpu time spent up to now is       10.0 secs

     total energy              =     -15.41843086 Ry
     Harris-Foulkes estimate   =     -15.42194229 Ry
     estimated scf accuracy    <       2.23444759 Ry

     iteration # 38     ecut=    25.00 Ry     beta=0.70
     Davidson diagonalization with overlap
     ethr =  1.26E-04,  avg # of iterations =  1.0

     negative rho (up, down):  4.361E-04 0.000E+00

     total cpu time spent up to now is       10.2 secs

     total energy              =     -15.46017891 Ry
     Harris-Foulkes estimate   =     -15.41845916 Ry
     estimated scf accuracy    <       2.23260915 Ry

     iteration # 39     ecut=    25.00 Ry     beta=0.70
     Davidson diagonalization with overlap
     ethr =  1.26E-04,  avg # of iterations =  1.0

     negative rho (up, down):  1.187E-03 0.000E+00

     total cpu time spent up to now is       10.4 secs

     total energy              =     -15.08669127 Ry
     Harris-Foulkes estimate   =     -15.46031862 Ry
     estimated scf accuracy    <       2.30407680 Ry

     iteration # 40     ecut=    25.00 Ry     beta=0.70
     Davidson diagonalization with overlap
     ethr =  1.26E-04,  avg # of iterations =  5.0

     negative rho (up, down):  1.028E-03 0.000E+00

     total cpu time spent up to now is       10.7 secs

     total energy              =     -14.59518850 Ry
     Harris-Foulkes estimate   =     -15.11649984 Ry
     estimated scf accuracy    <       1.21224775 Ry

     iteration # 41     ecut=    25.00 Ry     beta=0.70
     Davidson diagonalization with overlap
     ethr =  1.26E-04,  avg # of iterations =  7.0

     negative rho (up, down):  3.747E-07 0.000E+00

     total cpu time spent up to now is       11.0 secs

     total energy              =     -15.16208094 Ry
     Harris-Foulkes estimate   =     -15.70337814 Ry
     estimated scf accuracy    <       2.86157794 Ry

     iteration # 42     ecut=    25.00 Ry     beta=0.70
     Davidson diagonalization with overlap
     ethr =  1.26E-04,  avg # of iterations =  5.0

     total cpu time spent up to now is       11.2 secs

     total energy              =     -14.92407270 Ry
     Harris-Foulkes estimate   =     -15.20085287 Ry
     estimated scf accuracy    <       1.70280044 Ry

     iteration # 43     ecut=    25.00 Ry     beta=0.70
     Davidson diagonalization with overlap
     ethr =  1.26E-04,  avg # of iterations = 12.0

     total cpu time spent up to now is       11.6 secs

     total energy              =     -15.04332665 Ry
     Harris-Foulkes estimate   =     -15.06523943 Ry
     estimated scf accuracy    <       0.87601104 Ry

     iteration # 44     ecut=    25.00 Ry     beta=0.70
     Davidson diagonalization with overlap
     ethr =  1.26E-04,  avg # of iterations =  3.0

     total cpu time spent up to now is       11.8 secs

     total energy              =     -15.02903797 Ry
     Harris-Foulkes estimate   =     -15.04416305 Ry
     estimated scf accuracy    <       0.70051635 Ry

     iteration # 45     ecut=    25.00 Ry     beta=0.70
     Davidson diagonalization with overlap
     ethr =  1.26E-04,  avg # of iterations =  4.0

     negative rho (up, down):  2.465E-06 0.000E+00

     total cpu time spent up to now is       12.0 secs

     total energy              =     -15.00238704 Ry
     Harris-Foulkes estimate   =     -15.03100513 Ry
     estimated scf accuracy    <       0.47479597 Ry

     iteration # 46     ecut=    25.00 Ry     beta=0.70
     Davidson diagonalization with overlap
     ethr =  1.26E-04,  avg # of iterations =  6.0

     negative rho (up, down):  3.375E-06 0.000E+00

     total cpu time spent up to now is       12.3 secs

     total energy              =     -15.05175117 Ry
     Harris-Foulkes estimate   =     -15.04632643 Ry
     estimated scf accuracy    <       0.48565182 Ry

     iteration # 47     ecut=    25.00 Ry     beta=0.70
     Davidson diagonalization with overlap
     ethr =  1.26E-04,  avg # of iterations =  1.0

     negative rho (up, down):  1.496E-06 0.000E+00

     total cpu time spent up to now is       12.5 secs

     total energy              =     -15.05977959 Ry
     Harris-Foulkes estimate   =     -15.05187755 Ry
     estimated scf accuracy    <       0.50267886 Ry

     iteration # 48     ecut=    25.00 Ry     beta=0.70
     Davidson diagonalization with overlap
     ethr =  1.26E-04,  avg # of iterations =  3.0

     negative rho (up, down):  1.742E-06 0.000E+00

     total cpu time spent up to now is       12.7 secs

     total energy              =     -15.06224888 Ry
     Harris-Foulkes estimate   =     -15.06112596 Ry
     estimated scf accuracy    <       0.67905798 Ry

     iteration # 49     ecut=    25.00 Ry     beta=0.70
     Davidson diagonalization with overlap
     ethr =  1.26E-04,  avg # of iterations =  1.0

     negative rho (up, down):  1.585E-06 0.000E+00

     total cpu time spent up to now is       13.0 secs

     total energy              =     -15.03298165 Ry
     Harris-Foulkes estimate   =     -15.06237526 Ry
     estimated scf accuracy    <       0.68537683 Ry

     iteration # 50     ecut=    25.00 Ry     beta=0.70
     Davidson diagonalization with overlap
     ethr =  1.26E-04,  avg # of iterations =  4.0

     negative rho (up, down):  7.085E-07 0.000E+00

     total cpu time spent up to now is       13.2 secs

     total energy              =     -15.04043349 Ry
     Harris-Foulkes estimate   =     -15.03560867 Ry
     estimated scf accuracy    <       0.40738014 Ry

     iteration # 51     ecut=    25.00 Ry     beta=0.70
     Davidson diagonalization with overlap
     ethr =  1.26E-04,  avg # of iterations =  1.0

     negative rho (up, down):  7.659E-07 0.000E+00

     total cpu time spent up to now is       13.4 secs

     total energy              =     -15.04120692 Ry
     Harris-Foulkes estimate   =     -15.04053155 Ry
     estimated scf accuracy    <       0.42280939 Ry

     iteration # 52     ecut=    25.00 Ry     beta=0.70
     Davidson diagonalization with overlap
     ethr =  1.26E-04,  avg # of iterations =  1.0

     negative rho (up, down):  5.541E-07 0.000E+00

     total cpu time spent up to now is       13.6 secs

     total energy              =     -15.03866246 Ry
     Harris-Foulkes estimate   =     -15.04128751 Ry
     estimated scf accuracy    <       0.42564735 Ry

     iteration # 53     ecut=    25.00 Ry     beta=0.70
     Davidson diagonalization with overlap
     ethr =  1.26E-04,  avg # of iterations =  1.0

     negative rho (up, down):  1.194E-07 0.000E+00

     total cpu time spent up to now is       13.8 secs

     total energy              =     -15.04227732 Ry
     Harris-Foulkes estimate   =     -15.03872985 Ry
     estimated scf accuracy    <       0.42285969 Ry

     iteration # 54     ecut=    25.00 Ry     beta=0.70
     Davidson diagonalization with overlap
     ethr =  1.26E-04,  avg # of iterations =  1.0

     negative rho (up, down):  2.606E-04 0.000E+00

     total cpu time spent up to now is       14.0 secs

     total energy              =     -14.98507062 Ry
     Harris-Foulkes estimate   =     -15.04236002 Ry
     estimated scf accuracy    <       0.43581244 Ry

     iteration # 55     ecut=    25.00 Ry     beta=0.70
     Davidson diagonalization with overlap
     ethr =  1.26E-04,  avg # of iterations =  6.0

     negative rho (up, down):  4.091E-05 0.000E+00

     total cpu time spent up to now is       14.3 secs

     total energy              =     -15.07964475 Ry
     Harris-Foulkes estimate   =     -15.11860169 Ry
     estimated scf accuracy    <       0.58580694 Ry

     iteration # 56     ecut=    25.00 Ry     beta=0.70
     Davidson diagonalization with overlap
     ethr =  1.26E-04,  avg # of iterations =  1.0

     negative rho (up, down):  6.886E-05 0.000E+00

     total cpu time spent up to now is       14.5 secs

     total energy              =     -15.04468553 Ry
     Harris-Foulkes estimate   =     -15.08033698 Ry
     estimated scf accuracy    <       0.47895940 Ry

     iteration # 57     ecut=    25.00 Ry     beta=0.70
     Davidson diagonalization with overlap
     ethr =  1.26E-04,  avg # of iterations = 11.0

     negative rho (up, down):  2.418E-05 0.000E+00

     total cpu time spent up to now is       14.8 secs

     total energy              =     -15.07406473 Ry
     Harris-Foulkes estimate   =     -15.07427811 Ry
     estimated scf accuracy    <       0.28966115 Ry

     iteration # 58     ecut=    25.00 Ry     beta=0.70
     Davidson diagonalization with overlap
     ethr =  1.26E-04,  avg # of iterations =  1.0

     negative rho (up, down):  1.791E-05 0.000E+00

     total cpu time spent up to now is       15.0 secs

     total energy              =     -15.06625760 Ry
     Harris-Foulkes estimate   =     -15.07424696 Ry
     estimated scf accuracy    <       0.29613420 Ry

     iteration # 59     ecut=    25.00 Ry     beta=0.70
     Davidson diagonalization with overlap
     ethr =  1.26E-04,  avg # of iterations =  1.0

     negative rho (up, down):  1.731E-05 0.000E+00

     total cpu time spent up to now is       15.3 secs

     total energy              =     -15.06417043 Ry
     Harris-Foulkes estimate   =     -15.06649202 Ry
     estimated scf accuracy    <       0.27354849 Ry

     iteration # 60     ecut=    25.00 Ry     beta=0.70
     Davidson diagonalization with overlap
     ethr =  1.26E-04,  avg # of iterations =  1.0

     negative rho (up, down):  9.107E-06 0.000E+00

     total cpu time spent up to now is       15.5 secs

     total energy              =     -15.06813811 Ry
     Harris-Foulkes estimate   =     -15.06430814 Ry
     estimated scf accuracy    <       0.26425055 Ry

     iteration # 61     ecut=    25.00 Ry     beta=0.70
     Davidson diagonalization with overlap
     ethr =  1.26E-04,  avg # of iterations =  1.0

     negative rho (up, down):  4.058E-06 0.000E+00

     total cpu time spent up to now is       15.7 secs

     total energy              =     -15.06283396 Ry
     Harris-Foulkes estimate   =     -15.06825900 Ry
     estimated scf accuracy    <       0.27822998 Ry

     iteration # 62     ecut=    25.00 Ry     beta=0.70
     Davidson diagonalization with overlap
     ethr =  1.26E-04,  avg # of iterations =  1.0

     negative rho (up, down):  9.257E-06 0.000E+00

     total cpu time spent up to now is       15.9 secs

     total energy              =     -15.04845481 Ry
     Harris-Foulkes estimate   =     -15.06312829 Ry
     estimated scf accuracy    <       0.25298822 Ry

     iteration # 63     ecut=    25.00 Ry     beta=0.70
     Davidson diagonalization with overlap
     ethr =  1.26E-04,  avg # of iterations =  5.0

     negative rho (up, down):  1.000E-03 0.000E+00

     total cpu time spent up to now is       16.1 secs

     total energy              =     -15.19268388 Ry
     Harris-Foulkes estimate   =     -15.09063802 Ry
     estimated scf accuracy    <       0.86948565 Ry

     iteration # 64     ecut=    25.00 Ry     beta=0.70
     Davidson diagonalization with overlap
     ethr =  1.26E-04,  avg # of iterations =  4.0

     negative rho (up, down):  6.273E-04 0.000E+00

     total cpu time spent up to now is       16.4 secs

     total energy              =     -15.25835448 Ry
     Harris-Foulkes estimate   =     -15.21950532 Ry
     estimated scf accuracy    <       1.71553816 Ry

     iteration # 65     ecut=    25.00 Ry     beta=0.70
     Davidson diagonalization with overlap
     ethr =  1.26E-04,  avg # of iterations =  1.0

     negative rho (up, down):  2.135E-03 0.000E+00

     total cpu time spent up to now is       16.6 secs

     total energy              =     -15.25906960 Ry
     Harris-Foulkes estimate   =     -15.25854479 Ry
     estimated scf accuracy    <       1.77986934 Ry

     iteration # 66     ecut=    25.00 Ry     beta=0.70
     Davidson diagonalization with overlap
     ethr =  1.26E-04,  avg # of iterations =  4.0

     negative rho (up, down):  1.723E-03 0.000E+00

     total cpu time spent up to now is       16.9 secs

     total energy              =     -15.55412116 Ry
     Harris-Foulkes estimate   =     -15.26908679 Ry
     estimated scf accuracy    <       1.99663987 Ry

     iteration # 67     ecut=    25.00 Ry     beta=0.70
     Davidson diagonalization with overlap
     ethr =  1.26E-04,  avg # of iterations =  3.0

     negative rho (up, down):  7.656E-03 0.000E+00

     total cpu time spent up to now is       17.1 secs

     total energy              =     -15.93791458 Ry
     Harris-Foulkes estimate   =     -15.56164855 Ry
     estimated scf accuracy    <       2.55083830 Ry

     iteration # 68     ecut=    25.00 Ry     beta=0.70
     Davidson diagonalization with overlap
     ethr =  1.26E-04,  avg # of iterations =  3.0

     negative rho (up, down):  9.024E-04 0.000E+00

     total cpu time spent up to now is       17.4 secs

     total energy              =     -15.03369292 Ry
     Harris-Foulkes estimate   =     -15.94420610 Ry
     estimated scf accuracy    <       3.18361179 Ry

     iteration # 69     ecut=    25.00 Ry     beta=0.70
     Davidson diagonalization with overlap
     ethr =  1.26E-04,  avg # of iterations =  6.0

     negative rho (up, down):  1.845E-04 0.000E+00

     total cpu time spent up to now is       17.6 secs

     total energy              =     -14.80303013 Ry
     Harris-Foulkes estimate   =     -15.08431734 Ry
     estimated scf accuracy    <       1.27026118 Ry

     iteration # 70     ecut=    25.00 Ry     beta=0.70
     Davidson diagonalization with overlap
     ethr =  1.26E-04,  avg # of iterations = 10.0

     negative rho (up, down):  2.332E-04 0.000E+00

     total cpu time spent up to now is       18.0 secs

     total energy              =     -15.63350246 Ry
     Harris-Foulkes estimate   =     -15.24812530 Ry
     estimated scf accuracy    <       1.89250418 Ry

     iteration # 71     ecut=    25.00 Ry     beta=0.70
     Davidson diagonalization with overlap
     ethr =  1.26E-04,  avg # of iterations =  4.0

     negative rho (up, down):  2.521E-04 0.000E+00

     total cpu time spent up to now is       18.2 secs

     total energy              =     -15.45580663 Ry
     Harris-Foulkes estimate   =     -15.64900066 Ry
     estimated scf accuracy    <       2.65983944 Ry

     iteration # 72     ecut=    25.00 Ry     beta=0.70
     Davidson diagonalization with overlap
     ethr =  1.26E-04,  avg # of iterations =  2.0

     negative rho (up, down):  1.767E-04 0.000E+00

     total cpu time spent up to now is       18.4 secs

     total energy              =     -15.32319895 Ry
     Harris-Foulkes estimate   =     -15.45762662 Ry
     estimated scf accuracy    <       2.33840460 Ry

     iteration # 73     ecut=    25.00 Ry     beta=0.70
     Davidson diagonalization with overlap
     ethr =  1.26E-04,  avg # of iterations =  3.0

     negative rho (up, down):  2.298E-04 0.000E+00

     total cpu time spent up to now is       18.7 secs

     total energy              =     -15.32649742 Ry
     Harris-Foulkes estimate   =     -15.32475431 Ry
     estimated scf accuracy    <       2.08211373 Ry

     iteration # 74     ecut=    25.00 Ry     beta=0.70
     Davidson diagonalization with overlap
     ethr =  1.26E-04,  avg # of iterations =  1.0

     negative rho (up, down):  3.012E-04 0.000E+00

     total cpu time spent up to now is       18.9 secs

     total energy              =     -15.37943484 Ry
     Harris-Foulkes estimate   =     -15.32655528 Ry
     estimated scf accuracy    <       2.08457469 Ry

     iteration # 75     ecut=    25.00 Ry     beta=0.70
     Davidson diagonalization with overlap
     ethr =  1.26E-04,  avg # of iterations =  1.0

     negative rho (up, down):  1.254E-04 0.000E+00

     total cpu time spent up to now is       19.1 secs

     total energy              =     -15.16460583 Ry
     Harris-Foulkes estimate   =     -15.37966523 Ry
     estimated scf accuracy    <       2.17952880 Ry

     iteration # 76     ecut=    25.00 Ry     beta=0.70
     Davidson diagonalization with overlap
     ethr =  1.26E-04,  avg # of iterations =  5.0

     negative rho (up, down):  3.645E-07 0.000E+00

     total cpu time spent up to now is       19.4 secs

     total energy              =     -14.82091460 Ry
     Harris-Foulkes estimate   =     -15.17046301 Ry
     estimated scf accuracy    <       1.64439656 Ry

     iteration # 77     ecut=    25.00 Ry     beta=0.70
     Davidson diagonalization with overlap
     ethr =  1.26E-04,  avg # of iterations = 11.0

     negative rho (up, down):  3.603E-07 0.000E+00

     total cpu time spent up to now is       19.7 secs

     total energy              =     -15.24167084 Ry
     Harris-Foulkes estimate   =     -15.17957854 Ry
     estimated scf accuracy    <       1.64279433 Ry

     iteration # 78     ecut=    25.00 Ry     beta=0.70
     Davidson diagonalization with overlap
     ethr =  1.26E-04,  avg # of iterations =  3.0

     negative rho (up, down):  1.932E-05 0.000E+00

     total cpu time spent up to now is       19.9 secs

     total energy              =     -15.45582195 Ry
     Harris-Foulkes estimate   =     -15.24276915 Ry
     estimated scf accuracy    <       1.82517785 Ry

     iteration # 79     ecut=    25.00 Ry     beta=0.70
     Davidson diagonalization with overlap
     ethr =  1.26E-04,  avg # of iterations =  3.0

     negative rho (up, down):  1.710E-05 0.000E+00

     total cpu time spent up to now is       20.1 secs

     total energy              =     -15.44443039 Ry
     Harris-Foulkes estimate   =     -15.46239430 Ry
     estimated scf accuracy    <       2.29987201 Ry

     iteration # 80     ecut=    25.00 Ry     beta=0.70
     Davidson diagonalization with overlap
     ethr =  1.26E-04,  avg # of iterations =  1.0

     negative rho (up, down):  9.456E-06 0.000E+00

     total cpu time spent up to now is       20.3 secs

     total energy              =     -15.33431932 Ry
     Harris-Foulkes estimate   =     -15.44457704 Ry
     estimated scf accuracy    <       2.26786856 Ry

     iteration # 81     ecut=    25.00 Ry     beta=0.70
     Davidson diagonalization with overlap
     ethr =  1.26E-04,  avg # of iterations =  2.0

     negative rho (up, down):  1.930E-05 0.000E+00

     total cpu time spent up to now is       20.6 secs

     total energy              =     -15.31205416 Ry
     Harris-Foulkes estimate   =     -15.33546504 Ry
     estimated scf accuracy    <       2.05431687 Ry

     iteration # 82     ecut=    25.00 Ry     beta=0.70
     Davidson diagonalization with overlap
     ethr =  1.26E-04,  avg # of iterations =  1.0

     negative rho (up, down):  3.852E-05 0.000E+00

     total cpu time spent up to now is       20.8 secs

     total energy              =     -15.62277043 Ry
     Harris-Foulkes estimate   =     -15.31226520 Ry
     estimated scf accuracy    <       2.02295572 Ry

     iteration # 83     ecut=    25.00 Ry     beta=0.70
     Davidson diagonalization with overlap
     ethr =  1.26E-04,  avg # of iterations =  3.0

     negative rho (up, down):  4.171E-07 0.000E+00

     total cpu time spent up to now is       21.0 secs

     total energy              =     -14.84779166 Ry
     Harris-Foulkes estimate   =     -15.63019014 Ry
     estimated scf accuracy    <       2.60151732 Ry

     iteration # 84     ecut=    25.00 Ry     beta=0.70
     Davidson diagonalization with overlap
     ethr =  1.26E-04,  avg # of iterations = 20.0

     negative rho (up, down):  3.032E-06 0.000E+00

     total cpu time spent up to now is       21.4 secs

     total energy              =     -15.30250184 Ry
     Harris-Foulkes estimate   =     -15.13325425 Ry
     estimated scf accuracy    <       1.29458104 Ry

     iteration # 85     ecut=    25.00 Ry     beta=0.70
     Davidson diagonalization with overlap
     ethr =  1.26E-04,  avg # of iterations =  4.0

     negative rho (up, down):  1.989E-02 0.000E+00

     total cpu time spent up to now is       21.7 secs

     total energy              =     -16.43451003 Ry
     Harris-Foulkes estimate   =     -15.32982362 Ry
     estimated scf accuracy    <       2.12377766 Ry

     iteration # 86     ecut=    25.00 Ry     beta=0.70
     Davidson diagonalization with overlap
     ethr =  1.26E-04,  avg # of iterations =  3.0

     negative rho (up, down):  3.790E-02 0.000E+00

     total cpu time spent up to now is       22.0 secs

     total energy              =     -16.72515618 Ry
     Harris-Foulkes estimate   =     -16.51031161 Ry
     estimated scf accuracy    <       4.07029141 Ry

     iteration # 87     ecut=    25.00 Ry     beta=0.70
     Davidson diagonalization with overlap
     ethr =  1.26E-04,  avg # of iterations =  2.0

     negative rho (up, down):  2.227E-01 0.000E+00

     total cpu time spent up to now is       22.2 secs

     total energy              =     -17.67963318 Ry
     Harris-Foulkes estimate   =     -16.72641261 Ry
     estimated scf accuracy    <       4.37914049 Ry

     iteration # 88     ecut=    25.00 Ry     beta=0.70
     Davidson diagonalization with overlap
     ethr =  1.26E-04,  avg # of iterations = 12.0

     negative rho (up, down):  1.422E-01 0.000E+00

     total cpu time spent up to now is       22.5 secs

     total energy              =     -17.93707346 Ry
     Harris-Foulkes estimate   =     -18.76094584 Ry
     estimated scf accuracy    <      13.75663329 Ry

     iteration # 89     ecut=    25.00 Ry     beta=0.70
     Davidson diagonalization with overlap
     ethr =  1.26E-04,  avg # of iterations =  2.0

     negative rho (up, down):  1.158E-02 0.000E+00

     total cpu time spent up to now is       22.8 secs

     total energy              =     -15.87561460 Ry
     Harris-Foulkes estimate   =     -17.94034580 Ry
     estimated scf accuracy    <      12.63353949 Ry

     iteration # 90     ecut=    25.00 Ry     beta=0.70
     Davidson diagonalization with overlap
     ethr =  1.26E-04,  avg # of iterations = 10.0

     negative rho (up, down):  4.170E-02 0.000E+00

     total cpu time spent up to now is       23.1 secs

     total energy              =     -16.65262461 Ry
     Harris-Foulkes estimate   =     -15.98896591 Ry
     estimated scf accuracy    <       3.59145090 Ry

     iteration # 91     ecut=    25.00 Ry     beta=0.70
     Davidson diagonalization with overlap
     ethr =  1.26E-04,  avg # of iterations =  5.0

     negative rho (up, down):  4.251E-02 0.000E+00

     total cpu time spent up to now is       23.3 secs

     total energy              =     -16.52533771 Ry
     Harris-Foulkes estimate   =     -16.97635576 Ry
     estimated scf accuracy    <      11.46274539 Ry

     iteration # 92     ecut=    25.00 Ry     beta=0.70
     Davidson diagonalization with overlap
     ethr =  1.26E-04,  avg # of iterations =  3.0

     negative rho (up, down):  4.479E-02 0.000E+00

     total cpu time spent up to now is       23.6 secs

     total energy              =     -10.56995205 Ry
     Harris-Foulkes estimate   =     -16.53409478 Ry
     estimated scf accuracy    <      10.56372940 Ry

     iteration # 93     ecut=    25.00 Ry     beta=0.70
     Davidson diagonalization with overlap
     ethr =  1.26E-04,  avg # of iterations = 10.0

     negative rho (up, down):  4.659E-02 0.000E+00

     total cpu time spent up to now is       24.0 secs

     total energy              =     -18.07070223 Ry
     Harris-Foulkes estimate   =     -17.73553045 Ry
     estimated scf accuracy    <       6.07425642 Ry

     iteration # 94     ecut=    25.00 Ry     beta=0.70
     Davidson diagonalization with overlap
     ethr =  1.26E-04,  avg # of iterations = 10.0

     negative rho (up, down):  3.052E-04 0.000E+00

     total cpu time spent up to now is       24.3 secs

     total energy              =     -17.82378185 Ry
     Harris-Foulkes estimate   =     -19.34352248 Ry
     estimated scf accuracy    <      15.15604956 Ry

     iteration # 95     ecut=    25.00 Ry     beta=0.70
     Davidson diagonalization with overlap
     ethr =  1.26E-04,  avg # of iterations =  2.0

     negative rho (up, down):  2.144E-05 0.000E+00

     total cpu time spent up to now is       24.5 secs

     total energy              =     -15.98194900 Ry
     Harris-Foulkes estimate   =     -17.83682293 Ry
     estimated scf accuracy    <      12.90121141 Ry

     iteration # 96     ecut=    25.00 Ry     beta=0.70
     Davidson diagonalization with overlap
     ethr =  1.26E-04,  avg # of iterations = 11.0

     negative rho (up, down):  1.284E-05 0.000E+00

     total cpu time spent up to now is       24.9 secs

     total energy              =     -15.77710896 Ry
     Harris-Foulkes estimate   =     -16.05789548 Ry
     estimated scf accuracy    <       4.28177181 Ry

     iteration # 97     ecut=    25.00 Ry     beta=0.70
     Davidson diagonalization with overlap
     ethr =  1.26E-04,  avg # of iterations =  4.0

     negative rho (up, down):  9.991E-06 0.000E+00

     total cpu time spent up to now is       25.1 secs

     total energy              =     -16.19279360 Ry
     Harris-Foulkes estimate   =     -15.80576311 Ry
     estimated scf accuracy    <       3.07515688 Ry

     iteration # 98     ecut=    25.00 Ry     beta=0.70
     Davidson diagonalization with overlap
     ethr =  1.26E-04,  avg # of iterations =  7.0

     negative rho (up, down):  1.219E-06 0.000E+00

     total cpu time spent up to now is       25.4 secs

     total energy              =     -13.61624578 Ry
     Harris-Foulkes estimate   =     -16.24705164 Ry
     estimated scf accuracy    <       9.10350251 Ry

     iteration # 99     ecut=    25.00 Ry     beta=0.70
     Davidson diagonalization with overlap
     ethr =  1.26E-04,  avg # of iterations =  9.0

     negative rho (up, down):  2.420E-03 0.000E+00

     total cpu time spent up to now is       25.8 secs

     total energy              =     -14.77161721 Ry
     Harris-Foulkes estimate   =     -15.26304660 Ry
     estimated scf accuracy    <       2.08734245 Ry

     iteration #100     ecut=    25.00 Ry     beta=0.70
     Davidson diagonalization with overlap
     ethr =  1.26E-04,  avg # of iterations =  8.0

     negative rho (up, down):  2.598E-03 0.000E+00

     total cpu time spent up to now is       26.1 secs

     total energy              =     -15.31261679 Ry
     Harris-Foulkes estimate   =     -15.31309051 Ry
     estimated scf accuracy    <       2.41345472 Ry

     End of self-consistent calculation

     convergence NOT achieved after 100 iterations: stopping

     Writing output data file pwscf.save
 
     init_run     :      0.15s CPU      0.21s WALL (       1 calls)
     electrons    :     18.10s CPU     25.52s WALL (       2 calls)
     update_pot   :      0.07s CPU      0.11s WALL (       1 calls)
     forces       :      0.05s CPU      0.05s WALL (       1 calls)

     Called by init_run:
     wfcinit      :      0.05s CPU      0.09s WALL (       1 calls)
     potinit      :      0.04s CPU      0.04s WALL (       1 calls)

     Called by electrons:
     c_bands      :      8.88s CPU      9.31s WALL (     103 calls)
     sum_band     :      2.42s CPU      2.47s WALL (     103 calls)
     v_of_rho     :      1.90s CPU      1.96s WALL (     104 calls)
     mix_rho      :      4.66s CPU     11.17s WALL (     103 calls)

     Called by c_bands:
     init_us_2    :      0.43s CPU      0.44s WALL (     207 calls)
     cegterg      :      8.39s CPU      8.45s WALL (     103 calls)

     Called by sum_band:

     Called by *egterg:
     h_psi        :      7.35s CPU      7.43s WALL (     522 calls)
     g_psi        :      0.13s CPU      0.14s WALL (     418 calls)
     cdiaghg      :      0.01s CPU      0.03s WALL (     519 calls)

     Called by h_psi:
     h_psi:pot    :      7.31s CPU      7.35s WALL (     522 calls)
     h_psi:calbec :      0.15s CPU      0.14s WALL (     522 calls)
     vloc_psi     :      7.01s CPU      7.06s WALL (     522 calls)
     add_vuspsi   :      0.15s CPU      0.15s WALL (     522 calls)

     General routines
     calbec       :      0.15s CPU      0.14s WALL (     526 calls)
     fft          :      1.43s CPU      1.57s WALL (     420 calls)
     fftw         :      7.07s CPU      7.13s WALL (    3228 calls)
     davcio       :      0.77s CPU      5.61s WALL (    1932 calls)
 
     Parallel routines
     fft_scatter  :      1.54s CPU      1.55s WALL (    3648 calls)
 
     PWSCF        :    18.44s CPU        26.24s WALL

 
   This run was terminated on:  21: 8:29  10Apr2017            

=------------------------------------------------------------------------------=
   JOB DONE.
=------------------------------------------------------------------------------=
