
     Program PWSCF v.6.2 (svn rev. 14038) starts on 18May2018 at 14:14:55 

     This program is part of the open-source Quantum ESPRESSO suite
     for quantum simulation of materials; please cite
         "P. Giannozzi et al., J. Phys.:Condens. Matter 21 395502 (2009);
         "P. Giannozzi et al., J. Phys.:Condens. Matter 29 465901 (2017);
          URL http://www.quantum-espresso.org", 
     in publications or presentations arising from this work. More details at
     http://www.quantum-espresso.org/quote

     Parallel version (MPI), running on    28 processors

     MPI processes distributed on     1 nodes
     R & G space division:  proc/nbgrp/npool/nimage =      28
     Reading input from ../ecut2-60/16000.in
Warning: card &IONS ignored
Warning: card     POT_EXTRAPOLATION='SECOND-ORDER' ignored
Warning: card     WFC_EXTRAPOLATION='SECOND-ORDER' ignored
Warning: card     ION_TEMPERATURE = 'ANDERSEN' ignored
Warning: card / ignored

     Current dimensions of program PWSCF are:
     Max number of different atomic species (ntypx) = 10
     Max number of k-points (npk) =  40000
     Max angular momentum in pseudopotentials (lmaxx) =  3
               file H.pbe-kjpaw_psl.1.0.0.UPF: wavefunction(s)  1S renormalized
               file O.pbe-n-kjpaw_psl.1.0.0.UPF: wavefunction(s)  2S 2P renormalized

     Subspace diagonalization in iterative solution of the eigenvalue problem:
     a serial algorithm will be used

 
     Parallelization info
     --------------------
     sticks:   dense  smooth     PW     G-vecs:    dense   smooth      PW
     Min         273     273     67                17945    17945    2235
     Max         274     274     68                17950    17950    2240
     Sum        7645    7645   1901               502479   502479   62669
 


     bravais-lattice index     =            1
     lattice parameter (alat)  =      20.0000  a.u.
     unit-cell volume          =    8000.0000 (a.u.)^3
     number of atoms/cell      =            3
     number of atomic types    =            2
     number of electrons       =         8.00
     number of Kohn-Sham states=            8
     kinetic-energy cutoff     =      60.0000  Ry
     charge density cutoff     =     240.0000  Ry
     convergence threshold     =      1.0E-08
     mixing beta               =       0.7000
     number of iterations used =            8  plain     mixing
     Exchange-correlation      = SLA PW PBX PBC ( 1  4  3  4 0 0)

     celldm(1)=  20.000000  celldm(2)=   0.000000  celldm(3)=   0.000000
     celldm(4)=   0.000000  celldm(5)=   0.000000  celldm(6)=   0.000000

     crystal axes: (cart. coord. in units of alat)
               a(1) = (   1.000000   0.000000   0.000000 )  
               a(2) = (   0.000000   1.000000   0.000000 )  
               a(3) = (   0.000000   0.000000   1.000000 )  

     reciprocal axes: (cart. coord. in units 2 pi/alat)
               b(1) = (  1.000000  0.000000  0.000000 )  
               b(2) = (  0.000000  1.000000  0.000000 )  
               b(3) = (  0.000000  0.000000  1.000000 )  


     PseudoPot. # 1 for H  read from file:
     ../pslibrary/pbe/PSEUDOPOTENTIALS/H.pbe-kjpaw_psl.1.0.0.UPF
     MD5 check sum: e77ef4e89cfa2d6a63e4c80bb1a147aa
     Pseudo is Projector augmented-wave, Zval =  1.0
     Generated using "atomic" code by A. Dal Corso v.6.2 svn rev. 14038
     Shape of augmentation charge: PSQ
     Using radial grid of  929 points,  2 beta functions with: 
                l(1) =   0
                l(2) =   0
     Q(r) pseudized with 0 coefficients 


     PseudoPot. # 2 for O  read from file:
     ../pslibrary/pbe/PSEUDOPOTENTIALS/O.pbe-n-kjpaw_psl.1.0.0.UPF
     MD5 check sum: bb09017f9a02654af35f7312a94eda3e
     Pseudo is Projector augmented-wave + core cor, Zval =  6.0
     Generated using "atomic" code by A. Dal Corso v.6.2 svn rev. 14038
     Shape of augmentation charge: PSQ
     Using radial grid of 1095 points,  4 beta functions with: 
                l(1) =   0
                l(2) =   0
                l(3) =   1
                l(4) =   1
     Q(r) pseudized with 0 coefficients 


     atomic species   valence    mass     pseudopotential
        H              1.00     1.01000     H ( 1.00)
        O              6.00    16.00000     O ( 1.00)

     No symmetry found



   Cartesian axes

     site n.     atom                  positions (alat units)
         1           O   tau(   1) = (  -0.0040208  -0.0097288   0.0055931  )
         2           H   tau(   2) = (  -0.0252565   0.1165225   0.0567062  )
         3           H   tau(   3) = (   0.0889514   0.0375970  -0.0569466  )

     number of k points=     1  Marzari-Vanderbilt smearing, width (Ry)=  0.0250
                       cart. coord. in units 2pi/alat
        k(    1) = (   0.0000000   0.0000000   0.0000000), wk =   2.0000000

     Dense  grid:   502479 G-vectors     FFT dimensions: ( 100, 100, 100)

     Estimated max dynamical RAM per process >      21.64 MB

     Estimated total dynamical RAM >     605.96 MB

     Check: negative/imaginary core charge=   -0.000001    0.000000

     Initial potential from superposition of free atoms
     Check: negative starting charge=   -0.004868

     starting charge    7.99998, renormalised to    8.00000

     negative rho (up, down):  4.868E-03 0.000E+00
     Starting wfc are    6 randomized atomic wfcs +    2 random wfc
     Checking if some PAW data can be deallocated... 

     total cpu time spent up to now is        1.1 secs

     Self-consistent Calculation

     iteration #  1     ecut=    60.00 Ry     beta= 0.70
     Davidson diagonalization with overlap
     ethr =  1.00E-02,  avg # of iterations =  7.0

     negative rho (up, down):  6.008E-03 0.000E+00

     total cpu time spent up to now is        1.3 secs

     total energy              =     -43.53797689 Ry
     Harris-Foulkes estimate   =     -43.87802919 Ry
     estimated scf accuracy    <       0.45418685 Ry

     iteration #  2     ecut=    60.00 Ry     beta= 0.70
     Davidson diagonalization with overlap
     ethr =  5.68E-03,  avg # of iterations =  3.0

     negative rho (up, down):  4.793E-03 0.000E+00

     total cpu time spent up to now is        1.5 secs

     total energy              =     -43.44838153 Ry
     Harris-Foulkes estimate   =     -44.17290909 Ry
     estimated scf accuracy    <       2.20521667 Ry

     iteration #  3     ecut=    60.00 Ry     beta= 0.70
     Davidson diagonalization with overlap
     ethr =  5.68E-03,  avg # of iterations =  3.0

     negative rho (up, down):  4.397E-03 0.000E+00

     total cpu time spent up to now is        1.6 secs

     total energy              =     -43.70767271 Ry
     Harris-Foulkes estimate   =     -43.71816043 Ry
     estimated scf accuracy    <       0.04035544 Ry

     iteration #  4     ecut=    60.00 Ry     beta= 0.70
     Davidson diagonalization with overlap
     ethr =  5.04E-04,  avg # of iterations =  4.0

     negative rho (up, down):  4.693E-03 0.000E+00

     total cpu time spent up to now is        1.7 secs

     total energy              =     -43.78308317 Ry
     Harris-Foulkes estimate   =     -43.79137918 Ry
     estimated scf accuracy    <       0.04053050 Ry

     iteration #  5     ecut=    60.00 Ry     beta= 0.70
     Davidson diagonalization with overlap
     ethr =  5.04E-04,  avg # of iterations =  1.0

     negative rho (up, down):  4.839E-03 0.000E+00

     total cpu time spent up to now is        1.9 secs

     total energy              =     -43.78210097 Ry
     Harris-Foulkes estimate   =     -43.78428252 Ry
     estimated scf accuracy    <       0.01406245 Ry

     iteration #  6     ecut=    60.00 Ry     beta= 0.70
     Davidson diagonalization with overlap
     ethr =  1.76E-04,  avg # of iterations =  1.0

     negative rho (up, down):  4.929E-03 0.000E+00

     total cpu time spent up to now is        2.0 secs

     total energy              =     -43.78176796 Ry
     Harris-Foulkes estimate   =     -43.78257568 Ry
     estimated scf accuracy    <       0.00651741 Ry

     iteration #  7     ecut=    60.00 Ry     beta= 0.70
     Davidson diagonalization with overlap
     ethr =  8.15E-05,  avg # of iterations =  8.0

     negative rho (up, down):  5.075E-03 0.000E+00

     total cpu time spent up to now is        2.2 secs

     total energy              =     -43.78580426 Ry
     Harris-Foulkes estimate   =     -43.78632763 Ry
     estimated scf accuracy    <       0.00250835 Ry

     iteration #  8     ecut=    60.00 Ry     beta= 0.70
     Davidson diagonalization with overlap
     ethr =  3.14E-05,  avg # of iterations =  4.0

     negative rho (up, down):  5.109E-03 0.000E+00

     total cpu time spent up to now is        2.3 secs

     total energy              =     -43.78668651 Ry
     Harris-Foulkes estimate   =     -43.78668832 Ry
     estimated scf accuracy    <       0.00004089 Ry

     iteration #  9     ecut=    60.00 Ry     beta= 0.70
     Davidson diagonalization with overlap
     ethr =  5.11E-07,  avg # of iterations =  9.0

     negative rho (up, down):  5.283E-03 0.000E+00

     total cpu time spent up to now is        2.5 secs

     total energy              =     -43.78669531 Ry
     Harris-Foulkes estimate   =     -43.78668936 Ry
     estimated scf accuracy    <       0.00003549 Ry

     iteration # 10     ecut=    60.00 Ry     beta= 0.70
     Davidson diagonalization with overlap
     ethr =  4.44E-07,  avg # of iterations =  2.0

     negative rho (up, down):  5.272E-03 0.000E+00

     total cpu time spent up to now is        2.7 secs

     total energy              =     -43.78669502 Ry
     Harris-Foulkes estimate   =     -43.78670011 Ry
     estimated scf accuracy    <       0.00005862 Ry

     iteration # 11     ecut=    60.00 Ry     beta= 0.70
     Davidson diagonalization with overlap
     ethr =  4.44E-07,  avg # of iterations =  1.0

     negative rho (up, down):  5.283E-03 0.000E+00

     total cpu time spent up to now is        2.8 secs

     total energy              =     -43.78668810 Ry
     Harris-Foulkes estimate   =     -43.78669569 Ry
     estimated scf accuracy    <       0.00004229 Ry

     iteration # 12     ecut=    60.00 Ry     beta= 0.70
     Davidson diagonalization with overlap
     ethr =  4.44E-07,  avg # of iterations =  1.0

     negative rho (up, down):  5.292E-03 0.000E+00

     total cpu time spent up to now is        3.0 secs

     total energy              =     -43.78668870 Ry
     Harris-Foulkes estimate   =     -43.78668923 Ry
     estimated scf accuracy    <       0.00001977 Ry

     iteration # 13     ecut=    60.00 Ry     beta= 0.70
     Davidson diagonalization with overlap
     ethr =  2.47E-07,  avg # of iterations =  1.0

     negative rho (up, down):  5.288E-03 0.000E+00

     total cpu time spent up to now is        3.1 secs

     total energy              =     -43.78668522 Ry
     Harris-Foulkes estimate   =     -43.78668889 Ry
     estimated scf accuracy    <       0.00001721 Ry

     iteration # 14     ecut=    60.00 Ry     beta= 0.70
     Davidson diagonalization with overlap
     ethr =  2.15E-07,  avg # of iterations =  1.0

     negative rho (up, down):  5.285E-03 0.000E+00

     total cpu time spent up to now is        3.2 secs

     total energy              =     -43.78668462 Ry
     Harris-Foulkes estimate   =     -43.78668601 Ry
     estimated scf accuracy    <       0.00000562 Ry

     iteration # 15     ecut=    60.00 Ry     beta= 0.70
     Davidson diagonalization with overlap
     ethr =  7.03E-08,  avg # of iterations =  2.0

     negative rho (up, down):  5.283E-03 0.000E+00

     total cpu time spent up to now is        3.4 secs

     total energy              =     -43.78668571 Ry
     Harris-Foulkes estimate   =     -43.78668577 Ry
     estimated scf accuracy    <       0.00000032 Ry

     iteration # 16     ecut=    60.00 Ry     beta= 0.70
     Davidson diagonalization with overlap
     ethr =  3.95E-09,  avg # of iterations =  3.0

     negative rho (up, down):  5.283E-03 0.000E+00

     total cpu time spent up to now is        3.6 secs

     total energy              =     -43.78668617 Ry
     Harris-Foulkes estimate   =     -43.78668613 Ry
     estimated scf accuracy    <       0.00000129 Ry

     iteration # 17     ecut=    60.00 Ry     beta= 0.70
     Davidson diagonalization with overlap
     ethr =  3.95E-09,  avg # of iterations =  1.0

     negative rho (up, down):  5.283E-03 0.000E+00

     total cpu time spent up to now is        3.7 secs

     total energy              =     -43.78668611 Ry
     Harris-Foulkes estimate   =     -43.78668617 Ry
     estimated scf accuracy    <       0.00000142 Ry

     iteration # 18     ecut=    60.00 Ry     beta= 0.70
     Davidson diagonalization with overlap
     ethr =  3.95E-09,  avg # of iterations =  1.0

     negative rho (up, down):  5.283E-03 0.000E+00

     total cpu time spent up to now is        3.8 secs

     total energy              =     -43.78668574 Ry
     Harris-Foulkes estimate   =     -43.78668611 Ry
     estimated scf accuracy    <       0.00000125 Ry

     iteration # 19     ecut=    60.00 Ry     beta= 0.70
     Davidson diagonalization with overlap
     ethr =  3.95E-09,  avg # of iterations =  1.0

     negative rho (up, down):  5.284E-03 0.000E+00

     total cpu time spent up to now is        4.0 secs

     total energy              =     -43.78668562 Ry
     Harris-Foulkes estimate   =     -43.78668579 Ry
     estimated scf accuracy    <       0.00000030 Ry

     iteration # 20     ecut=    60.00 Ry     beta= 0.70
     Davidson diagonalization with overlap
     ethr =  3.71E-09,  avg # of iterations =  3.0

     negative rho (up, down):  5.283E-03 0.000E+00

     total cpu time spent up to now is        4.2 secs

     total energy              =     -43.78668580 Ry
     Harris-Foulkes estimate   =     -43.78668590 Ry
     estimated scf accuracy    <       0.00000042 Ry

     iteration # 21     ecut=    60.00 Ry     beta= 0.70
     Davidson diagonalization with overlap
     ethr =  3.71E-09,  avg # of iterations =  1.0

     negative rho (up, down):  5.283E-03 0.000E+00

     total cpu time spent up to now is        4.3 secs

     total energy              =     -43.78668578 Ry
     Harris-Foulkes estimate   =     -43.78668581 Ry
     estimated scf accuracy    <       0.00000013 Ry

     iteration # 22     ecut=    60.00 Ry     beta= 0.70
     Davidson diagonalization with overlap
     ethr =  1.66E-09,  avg # of iterations =  2.0

     negative rho (up, down):  5.283E-03 0.000E+00

     total cpu time spent up to now is        4.5 secs

     End of self-consistent calculation

          k = 0.0000 0.0000 0.0000 ( 62669 PWs)   bands (ev):

   -22.6692  -9.8386  -9.3744  -6.6840  -3.1881  -1.5223  -0.0376   0.8787

     the Fermi energy is    -4.6681 ev

!    total energy              =     -43.78668580 Ry
     Harris-Foulkes estimate   =     -43.78668580 Ry
     estimated scf accuracy    <          7.7E-09 Ry

     total all-electron energy =      -152.633567 Ry

     The total energy is the sum of the following terms:

     one-electron contribution =     -56.89985452 Ry
     hartree contribution      =      30.23174142 Ry
     xc contribution           =      -8.33382454 Ry
     ewald contribution        =       0.81244549 Ry
     one-center paw contrib.   =      -9.59719364 Ry
     smearing contrib. (-TS)   =      -0.00000000 Ry

     convergence has been achieved in  22 iterations

     Writing output data file pwscf.save
 
     init_run     :      0.36s CPU      0.41s WALL (       1 calls)
     electrons    :      2.89s CPU      3.43s WALL (       1 calls)

     Called by init_run:
     wfcinit      :      0.07s CPU      0.09s WALL (       1 calls)
     potinit      :      0.07s CPU      0.07s WALL (       1 calls)

     Called by electrons:
     c_bands      :      0.78s CPU      0.81s WALL (      22 calls)
     sum_band     :      0.61s CPU      0.63s WALL (      22 calls)
     v_of_rho     :      0.53s CPU      0.55s WALL (      23 calls)
     newd         :      0.32s CPU      0.35s WALL (      23 calls)
     PAW_pot      :      0.19s CPU      0.24s WALL (      23 calls)
     mix_rho      :      0.42s CPU      0.70s WALL (      22 calls)

     Called by c_bands:
     init_us_2    :      0.03s CPU      0.03s WALL (      45 calls)
     cegterg      :      0.75s CPU      0.77s WALL (      22 calls)

     Called by sum_band:
     sum_band:bec :      0.00s CPU      0.00s WALL (      22 calls)
     addusdens    :      0.40s CPU      0.40s WALL (      22 calls)

     Called by *egterg:
     h_psi        :      0.69s CPU      0.71s WALL (      83 calls)
     s_psi        :      0.01s CPU      0.01s WALL (      83 calls)
     g_psi        :      0.01s CPU      0.01s WALL (      60 calls)
     cdiaghg      :      0.02s CPU      0.02s WALL (      82 calls)

     Called by h_psi:
     h_psi:pot    :      0.69s CPU      0.70s WALL (      83 calls)
     h_psi:calbec :      0.03s CPU      0.03s WALL (      83 calls)
     vloc_psi     :      0.65s CPU      0.67s WALL (      83 calls)
     add_vuspsi   :      0.01s CPU      0.01s WALL (      83 calls)

     General routines
     calbec       :      0.03s CPU      0.03s WALL (     105 calls)
     fft          :      0.38s CPU      0.39s WALL (     298 calls)
     fftw         :      0.70s CPU      0.72s WALL (    1036 calls)
     davcio       :      0.05s CPU      0.26s WALL (     347 calls)
 
     Parallel routines
     fft_scatt_xy :      0.09s CPU      0.09s WALL (    1334 calls)
     fft_scatt_yz :      0.40s CPU      0.42s WALL (    1334 calls)
 
     PWSCF        :     3.91s CPU         4.92s WALL

 
   This run was terminated on:  14:15: 0  18May2018            

=------------------------------------------------------------------------------=
   JOB DONE.
=------------------------------------------------------------------------------=
