
     Program PWSCF v.6.2 (svn rev. 14038) starts on 18May2018 at 14:15:29 

     This program is part of the open-source Quantum ESPRESSO suite
     for quantum simulation of materials; please cite
         "P. Giannozzi et al., J. Phys.:Condens. Matter 21 395502 (2009);
         "P. Giannozzi et al., J. Phys.:Condens. Matter 29 465901 (2017);
          URL http://www.quantum-espresso.org", 
     in publications or presentations arising from this work. More details at
     http://www.quantum-espresso.org/quote

     Parallel version (MPI), running on    28 processors

     MPI processes distributed on     1 nodes
     R & G space division:  proc/nbgrp/npool/nimage =      28
     Reading input from ../ecut2-60/19000.in
Warning: card &IONS ignored
Warning: card     POT_EXTRAPOLATION='SECOND-ORDER' ignored
Warning: card     WFC_EXTRAPOLATION='SECOND-ORDER' ignored
Warning: card     ION_TEMPERATURE = 'ANDERSEN' ignored
Warning: card / ignored

     Current dimensions of program PWSCF are:
     Max number of different atomic species (ntypx) = 10
     Max number of k-points (npk) =  40000
     Max angular momentum in pseudopotentials (lmaxx) =  3
               file H.pbe-kjpaw_psl.1.0.0.UPF: wavefunction(s)  1S renormalized
               file O.pbe-n-kjpaw_psl.1.0.0.UPF: wavefunction(s)  2S 2P renormalized

     Subspace diagonalization in iterative solution of the eigenvalue problem:
     a serial algorithm will be used

 
     Parallelization info
     --------------------
     sticks:   dense  smooth     PW     G-vecs:    dense   smooth      PW
     Min         273     273     67                17945    17945    2235
     Max         274     274     68                17950    17950    2240
     Sum        7645    7645   1901               502479   502479   62669
 


     bravais-lattice index     =            1
     lattice parameter (alat)  =      20.0000  a.u.
     unit-cell volume          =    8000.0000 (a.u.)^3
     number of atoms/cell      =            3
     number of atomic types    =            2
     number of electrons       =         8.00
     number of Kohn-Sham states=            8
     kinetic-energy cutoff     =      60.0000  Ry
     charge density cutoff     =     240.0000  Ry
     convergence threshold     =      1.0E-08
     mixing beta               =       0.7000
     number of iterations used =            8  plain     mixing
     Exchange-correlation      = SLA PW PBX PBC ( 1  4  3  4 0 0)

     celldm(1)=  20.000000  celldm(2)=   0.000000  celldm(3)=   0.000000
     celldm(4)=   0.000000  celldm(5)=   0.000000  celldm(6)=   0.000000

     crystal axes: (cart. coord. in units of alat)
               a(1) = (   1.000000   0.000000   0.000000 )  
               a(2) = (   0.000000   1.000000   0.000000 )  
               a(3) = (   0.000000   0.000000   1.000000 )  

     reciprocal axes: (cart. coord. in units 2 pi/alat)
               b(1) = (  1.000000  0.000000  0.000000 )  
               b(2) = (  0.000000  1.000000  0.000000 )  
               b(3) = (  0.000000  0.000000  1.000000 )  


     PseudoPot. # 1 for H  read from file:
     ../pslibrary/pbe/PSEUDOPOTENTIALS/H.pbe-kjpaw_psl.1.0.0.UPF
     MD5 check sum: e77ef4e89cfa2d6a63e4c80bb1a147aa
     Pseudo is Projector augmented-wave, Zval =  1.0
     Generated using "atomic" code by A. Dal Corso v.6.2 svn rev. 14038
     Shape of augmentation charge: PSQ
     Using radial grid of  929 points,  2 beta functions with: 
                l(1) =   0
                l(2) =   0
     Q(r) pseudized with 0 coefficients 


     PseudoPot. # 2 for O  read from file:
     ../pslibrary/pbe/PSEUDOPOTENTIALS/O.pbe-n-kjpaw_psl.1.0.0.UPF
     MD5 check sum: bb09017f9a02654af35f7312a94eda3e
     Pseudo is Projector augmented-wave + core cor, Zval =  6.0
     Generated using "atomic" code by A. Dal Corso v.6.2 svn rev. 14038
     Shape of augmentation charge: PSQ
     Using radial grid of 1095 points,  4 beta functions with: 
                l(1) =   0
                l(2) =   0
                l(3) =   1
                l(4) =   1
     Q(r) pseudized with 0 coefficients 


     atomic species   valence    mass     pseudopotential
        H              1.00     1.01000     H ( 1.00)
        O              6.00    16.00000     O ( 1.00)

     No symmetry found



   Cartesian axes

     site n.     atom                  positions (alat units)
         1           O   tau(   1) = (  -0.0002929   0.0062674   0.0112235  )
         2           H   tau(   2) = (   0.0673402  -0.0286855  -0.0364563  )
         3           H   tau(   3) = (  -0.0627008  -0.0706001  -0.0529764  )

     number of k points=     1  Marzari-Vanderbilt smearing, width (Ry)=  0.0250
                       cart. coord. in units 2pi/alat
        k(    1) = (   0.0000000   0.0000000   0.0000000), wk =   2.0000000

     Dense  grid:   502479 G-vectors     FFT dimensions: ( 100, 100, 100)

     Estimated max dynamical RAM per process >      21.64 MB

     Estimated total dynamical RAM >     605.96 MB

     Check: negative/imaginary core charge=   -0.000001    0.000000

     Initial potential from superposition of free atoms
     Check: negative starting charge=   -0.005010

     starting charge    7.99998, renormalised to    8.00000

     negative rho (up, down):  5.010E-03 0.000E+00
     Starting wfc are    6 randomized atomic wfcs +    2 random wfc
     Checking if some PAW data can be deallocated... 

     total cpu time spent up to now is        1.1 secs

     Self-consistent Calculation

     iteration #  1     ecut=    60.00 Ry     beta= 0.70
     Davidson diagonalization with overlap
     ethr =  1.00E-02,  avg # of iterations =  6.0

     negative rho (up, down):  6.402E-03 0.000E+00

     total cpu time spent up to now is        1.4 secs

     total energy              =     -43.72831432 Ry
     Harris-Foulkes estimate   =     -44.07008616 Ry
     estimated scf accuracy    <       0.45966411 Ry

     iteration #  2     ecut=    60.00 Ry     beta= 0.70
     Davidson diagonalization with overlap
     ethr =  5.75E-03,  avg # of iterations =  3.0

     negative rho (up, down):  5.360E-03 0.000E+00

     total cpu time spent up to now is        1.5 secs

     total energy              =     -43.75385655 Ry
     Harris-Foulkes estimate   =     -44.16085177 Ry
     estimated scf accuracy    <       0.99317102 Ry

     iteration #  3     ecut=    60.00 Ry     beta= 0.70
     Davidson diagonalization with overlap
     ethr =  5.75E-03,  avg # of iterations =  1.0

     negative rho (up, down):  4.033E-03 0.000E+00

     total cpu time spent up to now is        1.6 secs

     total energy              =     -43.82534049 Ry
     Harris-Foulkes estimate   =     -43.86103859 Ry
     estimated scf accuracy    <       0.10164111 Ry

     iteration #  4     ecut=    60.00 Ry     beta= 0.70
     Davidson diagonalization with overlap
     ethr =  1.27E-03,  avg # of iterations =  3.0

     negative rho (up, down):  4.657E-03 0.000E+00

     total cpu time spent up to now is        2.4 secs

     total energy              =     -43.94780247 Ry
     Harris-Foulkes estimate   =     -43.97388331 Ry
     estimated scf accuracy    <       0.10901424 Ry

     iteration #  5     ecut=    60.00 Ry     beta= 0.70
     Davidson diagonalization with overlap
     ethr =  1.27E-03,  avg # of iterations =  1.0

     negative rho (up, down):  4.856E-03 0.000E+00

     total cpu time spent up to now is        2.5 secs

     total energy              =     -43.94291488 Ry
     Harris-Foulkes estimate   =     -43.95065044 Ry
     estimated scf accuracy    <       0.04523959 Ry

     iteration #  6     ecut=    60.00 Ry     beta= 0.70
     Davidson diagonalization with overlap
     ethr =  5.65E-04,  avg # of iterations =  1.0

     negative rho (up, down):  5.017E-03 0.000E+00

     total cpu time spent up to now is        2.7 secs

     total energy              =     -43.94488644 Ry
     Harris-Foulkes estimate   =     -43.94637709 Ry
     estimated scf accuracy    <       0.01514842 Ry

     iteration #  7     ecut=    60.00 Ry     beta= 0.70
     Davidson diagonalization with overlap
     ethr =  1.89E-04,  avg # of iterations =  4.0

     negative rho (up, down):  5.218E-03 0.000E+00

     total cpu time spent up to now is        2.8 secs

     total energy              =     -43.94648462 Ry
     Harris-Foulkes estimate   =     -43.94690203 Ry
     estimated scf accuracy    <       0.00515722 Ry

     iteration #  8     ecut=    60.00 Ry     beta= 0.70
     Davidson diagonalization with overlap
     ethr =  6.45E-05,  avg # of iterations =  2.0

     negative rho (up, down):  5.438E-03 0.000E+00

     total cpu time spent up to now is        3.0 secs

     total energy              =     -43.94679395 Ry
     Harris-Foulkes estimate   =     -43.94701759 Ry
     estimated scf accuracy    <       0.00243912 Ry

     iteration #  9     ecut=    60.00 Ry     beta= 0.70
     Davidson diagonalization with overlap
     ethr =  3.05E-05,  avg # of iterations =  1.0

     negative rho (up, down):  5.881E-03 0.000E+00

     total cpu time spent up to now is        3.1 secs

     total energy              =     -43.94628702 Ry
     Harris-Foulkes estimate   =     -43.94684189 Ry
     estimated scf accuracy    <       0.00155580 Ry

     iteration # 10     ecut=    60.00 Ry     beta= 0.70
     Davidson diagonalization with overlap
     ethr =  1.94E-05,  avg # of iterations =  3.0

     negative rho (up, down):  5.851E-03 0.000E+00

     total cpu time spent up to now is        3.3 secs

     total energy              =     -43.94653538 Ry
     Harris-Foulkes estimate   =     -43.94652650 Ry
     estimated scf accuracy    <       0.00007225 Ry

     iteration # 11     ecut=    60.00 Ry     beta= 0.70
     Davidson diagonalization with overlap
     ethr =  9.03E-07,  avg # of iterations = 11.0

     negative rho (up, down):  5.881E-03 0.000E+00

     total cpu time spent up to now is        3.5 secs

     total energy              =     -43.94658153 Ry
     Harris-Foulkes estimate   =     -43.94658373 Ry
     estimated scf accuracy    <       0.00002327 Ry

     iteration # 12     ecut=    60.00 Ry     beta= 0.70
     Davidson diagonalization with overlap
     ethr =  2.91E-07,  avg # of iterations =  1.0

     negative rho (up, down):  5.972E-03 0.000E+00

     total cpu time spent up to now is        3.6 secs

     total energy              =     -43.94657586 Ry
     Harris-Foulkes estimate   =     -43.94658184 Ry
     estimated scf accuracy    <       0.00001486 Ry

     iteration # 13     ecut=    60.00 Ry     beta= 0.70
     Davidson diagonalization with overlap
     ethr =  1.86E-07,  avg # of iterations = 12.0

     negative rho (up, down):  5.972E-03 0.000E+00

     total cpu time spent up to now is        3.8 secs

     total energy              =     -43.94657988 Ry
     Harris-Foulkes estimate   =     -43.94657987 Ry
     estimated scf accuracy    <       0.00000563 Ry

     iteration # 14     ecut=    60.00 Ry     beta= 0.70
     Davidson diagonalization with overlap
     ethr =  7.04E-08,  avg # of iterations =  1.0

     negative rho (up, down):  5.975E-03 0.000E+00

     total cpu time spent up to now is        3.9 secs

     total energy              =     -43.94657903 Ry
     Harris-Foulkes estimate   =     -43.94657992 Ry
     estimated scf accuracy    <       0.00000575 Ry

     iteration # 15     ecut=    60.00 Ry     beta= 0.70
     Davidson diagonalization with overlap
     ethr =  7.04E-08,  avg # of iterations =  1.0

     negative rho (up, down):  5.975E-03 0.000E+00

     total cpu time spent up to now is        4.1 secs

     total energy              =     -43.94657738 Ry
     Harris-Foulkes estimate   =     -43.94657910 Ry
     estimated scf accuracy    <       0.00000344 Ry

     iteration # 16     ecut=    60.00 Ry     beta= 0.70
     Davidson diagonalization with overlap
     ethr =  4.30E-08,  avg # of iterations =  3.0

     negative rho (up, down):  5.976E-03 0.000E+00

     total cpu time spent up to now is        4.3 secs

     total energy              =     -43.94657836 Ry
     Harris-Foulkes estimate   =     -43.94657986 Ry
     estimated scf accuracy    <       0.00000585 Ry

     iteration # 17     ecut=    60.00 Ry     beta= 0.70
     Davidson diagonalization with overlap
     ethr =  4.30E-08,  avg # of iterations =  1.0

     negative rho (up, down):  5.977E-03 0.000E+00

     total cpu time spent up to now is        4.4 secs

     total energy              =     -43.94657766 Ry
     Harris-Foulkes estimate   =     -43.94657849 Ry
     estimated scf accuracy    <       0.00000217 Ry

     iteration # 18     ecut=    60.00 Ry     beta= 0.70
     Davidson diagonalization with overlap
     ethr =  2.71E-08,  avg # of iterations =  3.0

     negative rho (up, down):  5.978E-03 0.000E+00

     total cpu time spent up to now is        4.6 secs

     total energy              =     -43.94657834 Ry
     Harris-Foulkes estimate   =     -43.94657832 Ry
     estimated scf accuracy    <       0.00000005 Ry

     iteration # 19     ecut=    60.00 Ry     beta= 0.70
     Davidson diagonalization with overlap
     ethr =  6.69E-10,  avg # of iterations =  4.0

     negative rho (up, down):  5.975E-03 0.000E+00

     total cpu time spent up to now is        4.7 secs

     total energy              =     -43.94657828 Ry
     Harris-Foulkes estimate   =     -43.94657836 Ry
     estimated scf accuracy    <       0.00000023 Ry

     iteration # 20     ecut=    60.00 Ry     beta= 0.70
     Davidson diagonalization with overlap
     ethr =  6.69E-10,  avg # of iterations =  3.0

     negative rho (up, down):  5.975E-03 0.000E+00

     total cpu time spent up to now is        4.9 secs

     total energy              =     -43.94657830 Ry
     Harris-Foulkes estimate   =     -43.94657830 Ry
     estimated scf accuracy    <       0.00000001 Ry

     iteration # 21     ecut=    60.00 Ry     beta= 0.70
     Davidson diagonalization with overlap
     ethr =  1.45E-10,  avg # of iterations =  3.0

     negative rho (up, down):  5.975E-03 0.000E+00

     total cpu time spent up to now is        5.0 secs

     End of self-consistent calculation

          k = 0.0000 0.0000 0.0000 ( 62669 PWs)   bands (ev):

   -24.6484 -10.9835 -10.0912  -7.0359  -1.9850  -0.0995   0.5015   0.8884

     the Fermi energy is    -5.1557 ev

!    total energy              =     -43.94657830 Ry
     Harris-Foulkes estimate   =     -43.94657830 Ry
     estimated scf accuracy    <          1.7E-09 Ry

     total all-electron energy =      -152.793460 Ry

     The total energy is the sum of the following terms:

     one-electron contribution =     -61.63128327 Ry
     hartree contribution      =      32.50687414 Ry
     xc contribution           =      -8.67231667 Ry
     ewald contribution        =       3.44255044 Ry
     one-center paw contrib.   =      -9.59240294 Ry
     smearing contrib. (-TS)   =       0.00000000 Ry

     convergence has been achieved in  21 iterations

     Writing output data file pwscf.save
 
     init_run     :      0.36s CPU      0.42s WALL (       1 calls)
     electrons    :      2.91s CPU      3.99s WALL (       1 calls)

     Called by init_run:
     wfcinit      :      0.06s CPU      0.09s WALL (       1 calls)
     potinit      :      0.07s CPU      0.08s WALL (       1 calls)

     Called by electrons:
     c_bands      :      0.83s CPU      1.47s WALL (      21 calls)
     sum_band     :      0.59s CPU      0.61s WALL (      21 calls)
     v_of_rho     :      0.51s CPU      0.53s WALL (      22 calls)
     newd         :      0.32s CPU      0.33s WALL (      22 calls)
     PAW_pot      :      0.19s CPU      0.20s WALL (      22 calls)
     mix_rho      :      0.38s CPU      0.67s WALL (      21 calls)

     Called by c_bands:
     init_us_2    :      0.03s CPU      0.03s WALL (      43 calls)
     cegterg      :      0.80s CPU      0.82s WALL (      21 calls)

     Called by sum_band:
     sum_band:bec :      0.00s CPU      0.00s WALL (      21 calls)
     addusdens    :      0.38s CPU      0.39s WALL (      21 calls)

     Called by *egterg:
     h_psi        :      0.72s CPU      0.74s WALL (      90 calls)
     s_psi        :      0.01s CPU      0.01s WALL (      90 calls)
     g_psi        :      0.01s CPU      0.01s WALL (      68 calls)
     cdiaghg      :      0.02s CPU      0.02s WALL (      89 calls)

     Called by h_psi:
     h_psi:pot    :      0.71s CPU      0.73s WALL (      90 calls)
     h_psi:calbec :      0.03s CPU      0.03s WALL (      90 calls)
     vloc_psi     :      0.67s CPU      0.70s WALL (      90 calls)
     add_vuspsi   :      0.01s CPU      0.01s WALL (      90 calls)

     General routines
     calbec       :      0.03s CPU      0.03s WALL (     111 calls)
     fft          :      0.38s CPU      0.39s WALL (     285 calls)
     fftw         :      0.71s CPU      0.74s WALL (    1060 calls)
     davcio       :      0.04s CPU      0.25s WALL (     327 calls)
 
     Parallel routines
     fft_scatt_xy :      0.09s CPU      0.09s WALL (    1345 calls)
     fft_scatt_yz :      0.40s CPU      0.42s WALL (    1345 calls)
 
     PWSCF        :     3.88s CPU         5.52s WALL

 
   This run was terminated on:  14:15:35  18May2018            

=------------------------------------------------------------------------------=
   JOB DONE.
=------------------------------------------------------------------------------=
