
     Program PWSCF v.6.2 (svn rev. 14038) starts on 18May2018 at 14:15:35 

     This program is part of the open-source Quantum ESPRESSO suite
     for quantum simulation of materials; please cite
         "P. Giannozzi et al., J. Phys.:Condens. Matter 21 395502 (2009);
         "P. Giannozzi et al., J. Phys.:Condens. Matter 29 465901 (2017);
          URL http://www.quantum-espresso.org", 
     in publications or presentations arising from this work. More details at
     http://www.quantum-espresso.org/quote

     Parallel version (MPI), running on    28 processors

     MPI processes distributed on     1 nodes
     R & G space division:  proc/nbgrp/npool/nimage =      28
     Reading input from ../ecut2-60/19500.in
Warning: card &IONS ignored
Warning: card     POT_EXTRAPOLATION='SECOND-ORDER' ignored
Warning: card     WFC_EXTRAPOLATION='SECOND-ORDER' ignored
Warning: card     ION_TEMPERATURE = 'ANDERSEN' ignored
Warning: card / ignored

     Current dimensions of program PWSCF are:
     Max number of different atomic species (ntypx) = 10
     Max number of k-points (npk) =  40000
     Max angular momentum in pseudopotentials (lmaxx) =  3
               file H.pbe-kjpaw_psl.1.0.0.UPF: wavefunction(s)  1S renormalized
               file O.pbe-n-kjpaw_psl.1.0.0.UPF: wavefunction(s)  2S 2P renormalized

     Subspace diagonalization in iterative solution of the eigenvalue problem:
     a serial algorithm will be used

 
     Parallelization info
     --------------------
     sticks:   dense  smooth     PW     G-vecs:    dense   smooth      PW
     Min         273     273     67                17945    17945    2235
     Max         274     274     68                17950    17950    2240
     Sum        7645    7645   1901               502479   502479   62669
 


     bravais-lattice index     =            1
     lattice parameter (alat)  =      20.0000  a.u.
     unit-cell volume          =    8000.0000 (a.u.)^3
     number of atoms/cell      =            3
     number of atomic types    =            2
     number of electrons       =         8.00
     number of Kohn-Sham states=            8
     kinetic-energy cutoff     =      60.0000  Ry
     charge density cutoff     =     240.0000  Ry
     convergence threshold     =      1.0E-08
     mixing beta               =       0.7000
     number of iterations used =            8  plain     mixing
     Exchange-correlation      = SLA PW PBX PBC ( 1  4  3  4 0 0)

     celldm(1)=  20.000000  celldm(2)=   0.000000  celldm(3)=   0.000000
     celldm(4)=   0.000000  celldm(5)=   0.000000  celldm(6)=   0.000000

     crystal axes: (cart. coord. in units of alat)
               a(1) = (   1.000000   0.000000   0.000000 )  
               a(2) = (   0.000000   1.000000   0.000000 )  
               a(3) = (   0.000000   0.000000   1.000000 )  

     reciprocal axes: (cart. coord. in units 2 pi/alat)
               b(1) = (  1.000000  0.000000  0.000000 )  
               b(2) = (  0.000000  1.000000  0.000000 )  
               b(3) = (  0.000000  0.000000  1.000000 )  


     PseudoPot. # 1 for H  read from file:
     ../pslibrary/pbe/PSEUDOPOTENTIALS/H.pbe-kjpaw_psl.1.0.0.UPF
     MD5 check sum: e77ef4e89cfa2d6a63e4c80bb1a147aa
     Pseudo is Projector augmented-wave, Zval =  1.0
     Generated using "atomic" code by A. Dal Corso v.6.2 svn rev. 14038
     Shape of augmentation charge: PSQ
     Using radial grid of  929 points,  2 beta functions with: 
                l(1) =   0
                l(2) =   0
     Q(r) pseudized with 0 coefficients 


     PseudoPot. # 2 for O  read from file:
     ../pslibrary/pbe/PSEUDOPOTENTIALS/O.pbe-n-kjpaw_psl.1.0.0.UPF
     MD5 check sum: bb09017f9a02654af35f7312a94eda3e
     Pseudo is Projector augmented-wave + core cor, Zval =  6.0
     Generated using "atomic" code by A. Dal Corso v.6.2 svn rev. 14038
     Shape of augmentation charge: PSQ
     Using radial grid of 1095 points,  4 beta functions with: 
                l(1) =   0
                l(2) =   0
                l(3) =   1
                l(4) =   1
     Q(r) pseudized with 0 coefficients 


     atomic species   valence    mass     pseudopotential
        H              1.00     1.01000     H ( 1.00)
        O              6.00    16.00000     O ( 1.00)

     No symmetry found



   Cartesian axes

     site n.     atom                  positions (alat units)
         1           O   tau(   1) = (  -0.0058989  -0.0028549   0.0077749  )
         2           H   tau(   2) = (   0.0243323   0.1056599   0.0159005  )
         3           H   tau(   3) = (   0.0691159  -0.0604339  -0.0507032  )

     number of k points=     1  Marzari-Vanderbilt smearing, width (Ry)=  0.0250
                       cart. coord. in units 2pi/alat
        k(    1) = (   0.0000000   0.0000000   0.0000000), wk =   2.0000000

     Dense  grid:   502479 G-vectors     FFT dimensions: ( 100, 100, 100)

     Estimated max dynamical RAM per process >      21.64 MB

     Estimated total dynamical RAM >     605.96 MB

     Check: negative/imaginary core charge=   -0.000001    0.000000

     Initial potential from superposition of free atoms
     Check: negative starting charge=   -0.004864

     starting charge    7.99998, renormalised to    8.00000

     negative rho (up, down):  4.864E-03 0.000E+00
     Starting wfc are    6 randomized atomic wfcs +    2 random wfc
     Checking if some PAW data can be deallocated... 

     total cpu time spent up to now is        1.2 secs

     Self-consistent Calculation

     iteration #  1     ecut=    60.00 Ry     beta= 0.70
     Davidson diagonalization with overlap
     ethr =  1.00E-02,  avg # of iterations =  6.0

     negative rho (up, down):  6.266E-03 0.000E+00

     total cpu time spent up to now is        1.4 secs

     total energy              =     -43.72370376 Ry
     Harris-Foulkes estimate   =     -44.03613644 Ry
     estimated scf accuracy    <       0.42186306 Ry

     iteration #  2     ecut=    60.00 Ry     beta= 0.70
     Davidson diagonalization with overlap
     ethr =  5.27E-03,  avg # of iterations =  3.0

     negative rho (up, down):  4.945E-03 0.000E+00

     total cpu time spent up to now is        1.6 secs

     total energy              =     -43.73088561 Ry
     Harris-Foulkes estimate   =     -44.12274838 Ry
     estimated scf accuracy    <       0.95939525 Ry

     iteration #  3     ecut=    60.00 Ry     beta= 0.70
     Davidson diagonalization with overlap
     ethr =  5.27E-03,  avg # of iterations =  1.0

     negative rho (up, down):  4.324E-03 0.000E+00

     total cpu time spent up to now is        1.7 secs

     total energy              =     -43.84134062 Ry
     Harris-Foulkes estimate   =     -43.86044952 Ry
     estimated scf accuracy    <       0.05433396 Ry

     iteration #  4     ecut=    60.00 Ry     beta= 0.70
     Davidson diagonalization with overlap
     ethr =  6.79E-04,  avg # of iterations =  3.0

     negative rho (up, down):  4.705E-03 0.000E+00

     total cpu time spent up to now is        1.8 secs

     total energy              =     -43.92788742 Ry
     Harris-Foulkes estimate   =     -43.94759385 Ry
     estimated scf accuracy    <       0.07680638 Ry

     iteration #  5     ecut=    60.00 Ry     beta= 0.70
     Davidson diagonalization with overlap
     ethr =  6.79E-04,  avg # of iterations =  1.0

     negative rho (up, down):  5.001E-03 0.000E+00

     total cpu time spent up to now is        2.0 secs

     total energy              =     -43.92431300 Ry
     Harris-Foulkes estimate   =     -43.93075424 Ry
     estimated scf accuracy    <       0.02575330 Ry

     iteration #  6     ecut=    60.00 Ry     beta= 0.70
     Davidson diagonalization with overlap
     ethr =  3.22E-04,  avg # of iterations =  3.0

     negative rho (up, down):  5.330E-03 0.000E+00

     total cpu time spent up to now is        2.2 secs

     total energy              =     -43.92931802 Ry
     Harris-Foulkes estimate   =     -43.92951785 Ry
     estimated scf accuracy    <       0.00095552 Ry

     iteration #  7     ecut=    60.00 Ry     beta= 0.70
     Davidson diagonalization with overlap
     ethr =  1.19E-05,  avg # of iterations = 10.0

     negative rho (up, down):  5.836E-03 0.000E+00

     total cpu time spent up to now is        2.3 secs

     total energy              =     -43.92938230 Ry
     Harris-Foulkes estimate   =     -43.92947322 Ry
     estimated scf accuracy    <       0.00018088 Ry

     iteration #  8     ecut=    60.00 Ry     beta= 0.70
     Davidson diagonalization with overlap
     ethr =  2.26E-06,  avg # of iterations =  8.0

     negative rho (up, down):  5.568E-03 0.000E+00

     total cpu time spent up to now is        2.5 secs

     total energy              =     -43.92939752 Ry
     Harris-Foulkes estimate   =     -43.92949272 Ry
     estimated scf accuracy    <       0.00019692 Ry

     iteration #  9     ecut=    60.00 Ry     beta= 0.70
     Davidson diagonalization with overlap
     ethr =  2.26E-06,  avg # of iterations =  3.0

     negative rho (up, down):  5.616E-03 0.000E+00

     total cpu time spent up to now is        2.7 secs

     total energy              =     -43.92943806 Ry
     Harris-Foulkes estimate   =     -43.92944103 Ry
     estimated scf accuracy    <       0.00000921 Ry

     iteration # 10     ecut=    60.00 Ry     beta= 0.70
     Davidson diagonalization with overlap
     ethr =  1.15E-07,  avg # of iterations =  3.0

     negative rho (up, down):  5.648E-03 0.000E+00

     total cpu time spent up to now is        2.8 secs

     total energy              =     -43.92944143 Ry
     Harris-Foulkes estimate   =     -43.92944348 Ry
     estimated scf accuracy    <       0.00000533 Ry

     iteration # 11     ecut=    60.00 Ry     beta= 0.70
     Davidson diagonalization with overlap
     ethr =  6.66E-08,  avg # of iterations =  2.0

     negative rho (up, down):  5.652E-03 0.000E+00

     total cpu time spent up to now is        3.0 secs

     total energy              =     -43.92944227 Ry
     Harris-Foulkes estimate   =     -43.92944231 Ry
     estimated scf accuracy    <       0.00000027 Ry

     iteration # 12     ecut=    60.00 Ry     beta= 0.70
     Davidson diagonalization with overlap
     ethr =  3.38E-09,  avg # of iterations =  3.0

     negative rho (up, down):  5.648E-03 0.000E+00

     total cpu time spent up to now is        3.2 secs

     total energy              =     -43.92944244 Ry
     Harris-Foulkes estimate   =     -43.92944247 Ry
     estimated scf accuracy    <       0.00000009 Ry

     iteration # 13     ecut=    60.00 Ry     beta= 0.70
     Davidson diagonalization with overlap
     ethr =  1.16E-09,  avg # of iterations =  1.0

     negative rho (up, down):  5.650E-03 0.000E+00

     total cpu time spent up to now is        3.3 secs

     total energy              =     -43.92944245 Ry
     Harris-Foulkes estimate   =     -43.92944245 Ry
     estimated scf accuracy    <       0.00000002 Ry

     iteration # 14     ecut=    60.00 Ry     beta= 0.70
     Davidson diagonalization with overlap
     ethr =  2.94E-10,  avg # of iterations =  3.0

     negative rho (up, down):  5.649E-03 0.000E+00

     total cpu time spent up to now is        3.5 secs

     total energy              =     -43.92944245 Ry
     Harris-Foulkes estimate   =     -43.92944247 Ry
     estimated scf accuracy    <       0.00000009 Ry

     iteration # 15     ecut=    60.00 Ry     beta= 0.70
     Davidson diagonalization with overlap
     ethr =  2.94E-10,  avg # of iterations =  1.0

     negative rho (up, down):  5.649E-03 0.000E+00

     total cpu time spent up to now is        3.6 secs

     total energy              =     -43.92944244 Ry
     Harris-Foulkes estimate   =     -43.92944245 Ry
     estimated scf accuracy    <       0.00000003 Ry

     iteration # 16     ecut=    60.00 Ry     beta= 0.70
     Davidson diagonalization with overlap
     ethr =  2.94E-10,  avg # of iterations =  2.0

     negative rho (up, down):  5.649E-03 0.000E+00

     total cpu time spent up to now is        3.7 secs

     End of self-consistent calculation

          k = 0.0000 0.0000 0.0000 ( 62669 PWs)   bands (ev):

   -23.2769 -11.5071  -8.6241  -6.7167  -1.9130  -0.1963   0.0454   0.9212

     the Fermi energy is    -4.7882 ev

!    total energy              =     -43.92944245 Ry
     Harris-Foulkes estimate   =     -43.92944245 Ry
     estimated scf accuracy    <          3.3E-10 Ry

     total all-electron energy =      -152.776324 Ry

     The total energy is the sum of the following terms:

     one-electron contribution =     -59.62769805 Ry
     hartree contribution      =      31.60072543 Ry
     xc contribution           =      -8.52225356 Ry
     ewald contribution        =       2.21047010 Ry
     one-center paw contrib.   =      -9.59068636 Ry
     smearing contrib. (-TS)   =       0.00000000 Ry

     convergence has been achieved in  16 iterations

     Writing output data file pwscf.save
 
     init_run     :      0.37s CPU      0.42s WALL (       1 calls)
     electrons    :      2.23s CPU      2.63s WALL (       1 calls)

     Called by init_run:
     wfcinit      :      0.07s CPU      0.11s WALL (       1 calls)
     potinit      :      0.07s CPU      0.07s WALL (       1 calls)

     Called by electrons:
     c_bands      :      0.66s CPU      0.68s WALL (      16 calls)
     sum_band     :      0.45s CPU      0.46s WALL (      16 calls)
     v_of_rho     :      0.40s CPU      0.42s WALL (      17 calls)
     newd         :      0.24s CPU      0.25s WALL (      17 calls)
     PAW_pot      :      0.14s CPU      0.15s WALL (      17 calls)
     mix_rho      :      0.32s CPU      0.52s WALL (      16 calls)

     Called by c_bands:
     init_us_2    :      0.02s CPU      0.03s WALL (      33 calls)
     cegterg      :      0.63s CPU      0.65s WALL (      16 calls)

     Called by sum_band:
     sum_band:bec :      0.00s CPU      0.00s WALL (      16 calls)
     addusdens    :      0.29s CPU      0.30s WALL (      16 calls)

     Called by *egterg:
     h_psi        :      0.60s CPU      0.61s WALL (      70 calls)
     s_psi        :      0.01s CPU      0.01s WALL (      70 calls)
     g_psi        :      0.00s CPU      0.00s WALL (      53 calls)
     cdiaghg      :      0.02s CPU      0.02s WALL (      69 calls)

     Called by h_psi:
     h_psi:pot    :      0.59s CPU      0.61s WALL (      70 calls)
     h_psi:calbec :      0.02s CPU      0.02s WALL (      70 calls)
     vloc_psi     :      0.57s CPU      0.58s WALL (      70 calls)
     add_vuspsi   :      0.01s CPU      0.01s WALL (      70 calls)

     General routines
     calbec       :      0.02s CPU      0.02s WALL (      86 calls)
     fft          :      0.29s CPU      0.30s WALL (     220 calls)
     fftw         :      0.59s CPU      0.61s WALL (     834 calls)
     davcio       :      0.03s CPU      0.19s WALL (     227 calls)
 
     Parallel routines
     fft_scatt_xy :      0.07s CPU      0.07s WALL (    1054 calls)
     fft_scatt_yz :      0.31s CPU      0.33s WALL (    1054 calls)
 
     PWSCF        :     3.33s CPU         4.22s WALL

 
   This run was terminated on:  14:15:40  18May2018            

=------------------------------------------------------------------------------=
   JOB DONE.
=------------------------------------------------------------------------------=
