
     Program PWSCF v.6.0 (svn rev. 13079) starts on 27Apr2018 at 18:24:11 

     This program is part of the open-source Quantum ESPRESSO suite
     for quantum simulation of materials; please cite
         "P. Giannozzi et al., J. Phys.:Condens. Matter 21 395502 (2009);
          URL http://www.quantum-espresso.org", 
     in publications or presentations arising from this work. More details at
     http://www.quantum-espresso.org/quote

     Parallel version (MPI), running on    28 processors
     R & G space division:  proc/nbgrp/npool/nimage =      28
     Reading input from ../Echeck-in/0.in
Warning: card &IONS ignored
Warning: card     POT_EXTRAPOLATION='SECOND-ORDER' ignored
Warning: card     WFC_EXTRAPOLATION='SECOND-ORDER' ignored
Warning: card     ION_TEMPERATURE = 'ANDERSEN' ignored
Warning: card     TEMPW = 1000 ignored
Warning: card / ignored

     Current dimensions of program PWSCF are:
     Max number of different atomic species (ntypx) = 10
     Max number of k-points (npk) =  40000
     Max angular momentum in pseudopotentials (lmaxx) =  3

     Subspace diagonalization in iterative solution of the eigenvalue problem:
     a serial algorithm will be used

 
     Parallelization info
     --------------------
     sticks:   dense  smooth     PW     G-vecs:    dense   smooth      PW
     Min          38      38      9                  934      934     117
     Max          39      39     11                  937      937     120
     Sum        1085    1085    277                26193    26193    3287
 


     bravais-lattice index     =            1
     lattice parameter (alat)  =      10.5835  a.u.
     unit-cell volume          =    1185.4776 (a.u.)^3
     number of atoms/cell      =            3
     number of atomic types    =            1
     number of electrons       =        33.00
     number of Kohn-Sham states=           21
     kinetic-energy cutoff     =      30.0000  Ry
     charge density cutoff     =     120.0000  Ry
     convergence threshold     =      1.0E-08
     mixing beta               =       0.7000
     number of iterations used =            8  plain     mixing
     Exchange-correlation      = BLYP ( 1  3  1  3 0 0)

     celldm(1)=  10.583544  celldm(2)=   0.000000  celldm(3)=   0.000000
     celldm(4)=   0.000000  celldm(5)=   0.000000  celldm(6)=   0.000000

     crystal axes: (cart. coord. in units of alat)
               a(1) = (   1.000000   0.000000   0.000000 )  
               a(2) = (   0.000000   1.000000   0.000000 )  
               a(3) = (   0.000000   0.000000   1.000000 )  

     reciprocal axes: (cart. coord. in units 2 pi/alat)
               b(1) = (  1.000000  0.000000  0.000000 )  
               b(2) = (  0.000000  1.000000  0.000000 )  
               b(3) = (  0.000000  0.000000  1.000000 )  


     PseudoPot. # 1 for Au read from file:
     ./Au.blyp-d-hgh.UPF
     MD5 check sum: c10d8bae01f806c36a1643a1c69a8479
     Pseudo is Norm-conserving, Zval = 11.0
     Generated in analytical, separable form
     Using radial grid of 1279 points,  6 beta functions with: 
                l(1) =   0
                l(2) =   0
                l(3) =   1
                l(4) =   1
                l(5) =   2
                l(6) =   2

     atomic species   valence    mass     pseudopotential
        Au            11.00    28.08600     Au( 1.00)

     No symmetry found



   Cartesian axes

     site n.     atom                  positions (alat units)
         1           Au  tau(   1) = (   0.0000000   0.0000000   0.0000000  )
         2           Au  tau(   2) = (   0.0000000   0.2000000   0.2000000  )
         3           Au  tau(   3) = (   0.2000000   0.2000000   0.0000000  )

     number of k points=     1  Marzari-Vanderbilt smearing, width (Ry)=  0.0250
                       cart. coord. in units 2pi/alat
        k(    1) = (   0.0000000   0.0000000   0.0000000), wk =   2.0000000

     Dense  grid:    26193 G-vectors     FFT dimensions: (  40,  40,  40)

     Estimated max dynamical RAM per process >       0.90Mb

     Estimated total allocated dynamical RAM >      25.18Mb

     Initial potential from superposition of free atoms

     starting charge   32.99964, renormalised to   33.00000

     negative rho (up, down):  3.648E-06 0.000E+00
     Starting wfc are   27 randomized atomic wfcs

     total cpu time spent up to now is        4.3 secs

     per-process dynamical memory:    16.2 Mb

     Self-consistent Calculation

     iteration #  1     ecut=    30.00 Ry     beta=0.70
     Davidson diagonalization with overlap
     ethr =  1.00E-02,  avg # of iterations =  5.0

     total cpu time spent up to now is        5.3 secs

     total energy              =    -189.87068875 Ry
     Harris-Foulkes estimate   =    -190.55630740 Ry
     estimated scf accuracy    <       0.93923556 Ry

     iteration #  2     ecut=    30.00 Ry     beta=0.70
     Davidson diagonalization with overlap
     ethr =  2.85E-03,  avg # of iterations =  3.0

     total cpu time spent up to now is        6.2 secs

     total energy              =    -190.18474271 Ry
     Harris-Foulkes estimate   =    -190.62349332 Ry
     estimated scf accuracy    <       0.86707611 Ry

     iteration #  3     ecut=    30.00 Ry     beta=0.70
     Davidson diagonalization with overlap
     ethr =  2.63E-03,  avg # of iterations =  2.0

     total cpu time spent up to now is        6.9 secs

     total energy              =    -190.32872451 Ry
     Harris-Foulkes estimate   =    -190.34607400 Ry
     estimated scf accuracy    <       0.04462195 Ry

     iteration #  4     ecut=    30.00 Ry     beta=0.70
     Davidson diagonalization with overlap
     ethr =  1.35E-04,  avg # of iterations =  2.0

     total cpu time spent up to now is        7.6 secs

     total energy              =    -190.33244750 Ry
     Harris-Foulkes estimate   =    -190.33557625 Ry
     estimated scf accuracy    <       0.00846378 Ry

     iteration #  5     ecut=    30.00 Ry     beta=0.70
     Davidson diagonalization with overlap
     ethr =  2.56E-05,  avg # of iterations =  3.0

     total cpu time spent up to now is        8.4 secs

     total energy              =    -190.33257556 Ry
     Harris-Foulkes estimate   =    -190.33641596 Ry
     estimated scf accuracy    <       0.01734598 Ry

     iteration #  6     ecut=    30.00 Ry     beta=0.70
     Davidson diagonalization with overlap
     ethr =  2.56E-05,  avg # of iterations =  2.0

     total cpu time spent up to now is        9.0 secs

     total energy              =    -190.33420062 Ry
     Harris-Foulkes estimate   =    -190.33481056 Ry
     estimated scf accuracy    <       0.00187308 Ry

     iteration #  7     ecut=    30.00 Ry     beta=0.70
     Davidson diagonalization with overlap
     ethr =  5.68E-06,  avg # of iterations =  2.0

     total cpu time spent up to now is        9.6 secs

     total energy              =    -190.33441158 Ry
     Harris-Foulkes estimate   =    -190.33443036 Ry
     estimated scf accuracy    <       0.00004008 Ry

     iteration #  8     ecut=    30.00 Ry     beta=0.70
     Davidson diagonalization with overlap
     ethr =  1.21E-07,  avg # of iterations =  3.0

     total cpu time spent up to now is       10.4 secs

     total energy              =    -190.33443393 Ry
     Harris-Foulkes estimate   =    -190.33444296 Ry
     estimated scf accuracy    <       0.00003956 Ry

     iteration #  9     ecut=    30.00 Ry     beta=0.70
     Davidson diagonalization with overlap
     ethr =  1.20E-07,  avg # of iterations =  2.0

     total cpu time spent up to now is       11.0 secs

     total energy              =    -190.33443607 Ry
     Harris-Foulkes estimate   =    -190.33444035 Ry
     estimated scf accuracy    <       0.00001648 Ry

     iteration # 10     ecut=    30.00 Ry     beta=0.70
     Davidson diagonalization with overlap
     ethr =  4.99E-08,  avg # of iterations =  2.0

     total cpu time spent up to now is       11.7 secs

     total energy              =    -190.33443697 Ry
     Harris-Foulkes estimate   =    -190.33443784 Ry
     estimated scf accuracy    <       0.00000165 Ry

     iteration # 11     ecut=    30.00 Ry     beta=0.70
     Davidson diagonalization with overlap
     ethr =  5.00E-09,  avg # of iterations =  3.0

     total cpu time spent up to now is       12.5 secs

     total energy              =    -190.33443750 Ry
     Harris-Foulkes estimate   =    -190.33443759 Ry
     estimated scf accuracy    <       0.00000019 Ry

     iteration # 12     ecut=    30.00 Ry     beta=0.70
     Davidson diagonalization with overlap
     ethr =  5.89E-10,  avg # of iterations =  2.0

     total cpu time spent up to now is       13.2 secs

     total energy              =    -190.33443753 Ry
     Harris-Foulkes estimate   =    -190.33443754 Ry
     estimated scf accuracy    <       0.00000003 Ry

     iteration # 13     ecut=    30.00 Ry     beta=0.70
     Davidson diagonalization with overlap
     ethr =  8.30E-11,  avg # of iterations =  2.0

     total cpu time spent up to now is       13.9 secs

     End of self-consistent calculation

          k = 0.0000 0.0000 0.0000 (  3287 PWs)   bands (ev):

   -19.7646 -17.0661 -13.9924 -13.9924 -10.8565 -10.5265 -10.5264  -5.2199
    -2.8860  -2.8859  -1.3775  -1.3775  -0.4838  -0.4837  -0.2620   3.2177
     3.2177   3.7577   4.9558   5.1274   6.7169

     the Fermi energy is     3.3751 ev

!    total energy              =    -190.33443753 Ry
     Harris-Foulkes estimate   =    -190.33443754 Ry
     estimated scf accuracy    <          1.8E-09 Ry

     The total energy is the sum of the following terms:

     one-electron contribution =    -265.46206042 Ry
     hartree contribution      =     146.09657602 Ry
     xc contribution           =     -32.66512373 Ry
     ewald contribution        =     -38.29337117 Ry
     smearing contrib. (-TS)   =      -0.01045824 Ry

     convergence has been achieved in  13 iterations

     Writing output data file pwscf.save
 
     init_run     :      0.03s CPU      0.92s WALL (       1 calls)
     electrons    :      0.31s CPU      9.93s WALL (       1 calls)

     Called by init_run:
     wfcinit      :      0.01s CPU      0.26s WALL (       1 calls)
     potinit      :      0.00s CPU      0.15s WALL (       1 calls)

     Called by electrons:
     c_bands      :      0.21s CPU      6.46s WALL (      13 calls)
     sum_band     :      0.03s CPU      1.00s WALL (      13 calls)
     v_of_rho     :      0.03s CPU      0.94s WALL (      14 calls)
     mix_rho      :      0.03s CPU      0.93s WALL (      13 calls)

     Called by c_bands:
     init_us_2    :      0.00s CPU      0.00s WALL (      27 calls)
     cegterg      :      0.20s CPU      6.13s WALL (      13 calls)

     Called by sum_band:

     Called by *egterg:
     h_psi        :      0.14s CPU      4.35s WALL (      47 calls)
     g_psi        :      0.00s CPU      0.00s WALL (      33 calls)
     cdiaghg      :      0.04s CPU      1.21s WALL (      46 calls)

     Called by h_psi:
     h_psi:pot    :      0.14s CPU      4.35s WALL (      47 calls)
     h_psi:calbec :      0.01s CPU      0.28s WALL (      47 calls)
     vloc_psi     :      0.13s CPU      4.06s WALL (      47 calls)
     add_vuspsi   :      0.00s CPU      0.00s WALL (      47 calls)

     General routines
     calbec       :      0.01s CPU      0.28s WALL (      47 calls)
     fft          :      0.02s CPU      0.79s WALL (     153 calls)
     fftw         :      0.16s CPU      4.98s WALL (    1741 calls)
     davcio       :      0.00s CPU      0.03s WALL (     168 calls)
 
     Parallel routines
     fft_scatter  :      0.13s CPU      5.68s WALL (    1894 calls)
 
     PWSCF        :     0.47s CPU        15.22s WALL

 
   This run was terminated on:  18:24:26  27Apr2018            

=------------------------------------------------------------------------------=
   JOB DONE.
=------------------------------------------------------------------------------=
