
     Program PWSCF v.6.0 (svn rev. 13079) starts on 27Apr2018 at 18:24:52 

     This program is part of the open-source Quantum ESPRESSO suite
     for quantum simulation of materials; please cite
         "P. Giannozzi et al., J. Phys.:Condens. Matter 21 395502 (2009);
          URL http://www.quantum-espresso.org", 
     in publications or presentations arising from this work. More details at
     http://www.quantum-espresso.org/quote

     Parallel version (MPI), running on    28 processors
     R & G space division:  proc/nbgrp/npool/nimage =      28
     Reading input from ../Echeck-in/500.in
Warning: card &IONS ignored
Warning: card     POT_EXTRAPOLATION='SECOND-ORDER' ignored
Warning: card     WFC_EXTRAPOLATION='SECOND-ORDER' ignored
Warning: card     ION_TEMPERATURE = 'ANDERSEN' ignored
Warning: card     TEMPW = 1000 ignored
Warning: card / ignored

     Current dimensions of program PWSCF are:
     Max number of different atomic species (ntypx) = 10
     Max number of k-points (npk) =  40000
     Max angular momentum in pseudopotentials (lmaxx) =  3

     Subspace diagonalization in iterative solution of the eigenvalue problem:
     a serial algorithm will be used

 
     Parallelization info
     --------------------
     sticks:   dense  smooth     PW     G-vecs:    dense   smooth      PW
     Min          38      38      9                  934      934     117
     Max          39      39     11                  937      937     120
     Sum        1085    1085    277                26193    26193    3287
 


     bravais-lattice index     =            1
     lattice parameter (alat)  =      10.5835  a.u.
     unit-cell volume          =    1185.4776 (a.u.)^3
     number of atoms/cell      =            3
     number of atomic types    =            1
     number of electrons       =        33.00
     number of Kohn-Sham states=           21
     kinetic-energy cutoff     =      30.0000  Ry
     charge density cutoff     =     120.0000  Ry
     convergence threshold     =      1.0E-08
     mixing beta               =       0.7000
     number of iterations used =            8  plain     mixing
     Exchange-correlation      = BLYP ( 1  3  1  3 0 0)

     celldm(1)=  10.583544  celldm(2)=   0.000000  celldm(3)=   0.000000
     celldm(4)=   0.000000  celldm(5)=   0.000000  celldm(6)=   0.000000

     crystal axes: (cart. coord. in units of alat)
               a(1) = (   1.000000   0.000000   0.000000 )  
               a(2) = (   0.000000   1.000000   0.000000 )  
               a(3) = (   0.000000   0.000000   1.000000 )  

     reciprocal axes: (cart. coord. in units 2 pi/alat)
               b(1) = (  1.000000  0.000000  0.000000 )  
               b(2) = (  0.000000  1.000000  0.000000 )  
               b(3) = (  0.000000  0.000000  1.000000 )  


     PseudoPot. # 1 for Au read from file:
     ./Au.blyp-d-hgh.UPF
     MD5 check sum: c10d8bae01f806c36a1643a1c69a8479
     Pseudo is Norm-conserving, Zval = 11.0
     Generated in analytical, separable form
     Using radial grid of 1279 points,  6 beta functions with: 
                l(1) =   0
                l(2) =   0
                l(3) =   1
                l(4) =   1
                l(5) =   2
                l(6) =   2

     atomic species   valence    mass     pseudopotential
        Au            11.00    28.08600     Au( 1.00)

     No symmetry found



   Cartesian axes

     site n.     atom                  positions (alat units)
         1           Au  tau(   1) = (   0.1566206  -0.0200113   0.0228279  )
         2           Au  tau(   2) = (  -0.0139398   0.3192222   0.3721049  )
         3           Au  tau(   3) = (   0.2352645   0.4566795  -0.0169876  )

     number of k points=     1  Marzari-Vanderbilt smearing, width (Ry)=  0.0250
                       cart. coord. in units 2pi/alat
        k(    1) = (   0.0000000   0.0000000   0.0000000), wk =   2.0000000

     Dense  grid:    26193 G-vectors     FFT dimensions: (  40,  40,  40)

     Estimated max dynamical RAM per process >       0.90Mb

     Estimated total allocated dynamical RAM >      25.18Mb

     Initial potential from superposition of free atoms

     starting charge   32.99964, renormalised to   33.00000
     Starting wfc are   27 randomized atomic wfcs

     total cpu time spent up to now is        4.0 secs

     per-process dynamical memory:    16.2 Mb

     Self-consistent Calculation

     iteration #  1     ecut=    30.00 Ry     beta=0.70
     Davidson diagonalization with overlap
     ethr =  1.00E-02,  avg # of iterations =  3.0

     Threshold (ethr) on eigenvalues was too large:
     Diagonalizing with lowered threshold

     Davidson diagonalization with overlap
     ethr =  4.90E-04,  avg # of iterations =  2.0

     total cpu time spent up to now is        5.3 secs

     total energy              =    -197.61692817 Ry
     Harris-Foulkes estimate   =    -197.72944814 Ry
     estimated scf accuracy    <       0.17801886 Ry

     iteration #  2     ecut=    30.00 Ry     beta=0.70
     Davidson diagonalization with overlap
     ethr =  5.39E-04,  avg # of iterations =  4.0

     total cpu time spent up to now is        6.3 secs

     total energy              =    -197.65559295 Ry
     Harris-Foulkes estimate   =    -197.72867731 Ry
     estimated scf accuracy    <       0.14028319 Ry

     iteration #  3     ecut=    30.00 Ry     beta=0.70
     Davidson diagonalization with overlap
     ethr =  4.25E-04,  avg # of iterations =  2.0

     total cpu time spent up to now is        6.9 secs

     total energy              =    -197.68458158 Ry
     Harris-Foulkes estimate   =    -197.69073124 Ry
     estimated scf accuracy    <       0.01306295 Ry

     iteration #  4     ecut=    30.00 Ry     beta=0.70
     Davidson diagonalization with overlap
     ethr =  3.96E-05,  avg # of iterations =  2.0

     total cpu time spent up to now is        7.5 secs

     total energy              =    -197.68797431 Ry
     Harris-Foulkes estimate   =    -197.68817602 Ry
     estimated scf accuracy    <       0.00095703 Ry

     iteration #  5     ecut=    30.00 Ry     beta=0.70
     Davidson diagonalization with overlap
     ethr =  2.90E-06,  avg # of iterations =  4.0

     total cpu time spent up to now is        8.3 secs

     total energy              =    -197.68815200 Ry
     Harris-Foulkes estimate   =    -197.68820236 Ry
     estimated scf accuracy    <       0.00011082 Ry

     iteration #  6     ecut=    30.00 Ry     beta=0.70
     Davidson diagonalization with overlap
     ethr =  3.36E-07,  avg # of iterations =  2.0

     total cpu time spent up to now is        9.0 secs

     total energy              =    -197.68817923 Ry
     Harris-Foulkes estimate   =    -197.68818055 Ry
     estimated scf accuracy    <       0.00000677 Ry

     iteration #  7     ecut=    30.00 Ry     beta=0.70
     Davidson diagonalization with overlap
     ethr =  2.05E-08,  avg # of iterations =  2.0

     total cpu time spent up to now is        9.7 secs

     total energy              =    -197.68818040 Ry
     Harris-Foulkes estimate   =    -197.68818109 Ry
     estimated scf accuracy    <       0.00000143 Ry

     iteration #  8     ecut=    30.00 Ry     beta=0.70
     Davidson diagonalization with overlap
     ethr =  4.33E-09,  avg # of iterations =  2.0

     total cpu time spent up to now is       10.5 secs

     total energy              =    -197.68818074 Ry
     Harris-Foulkes estimate   =    -197.68818082 Ry
     estimated scf accuracy    <       0.00000017 Ry

     iteration #  9     ecut=    30.00 Ry     beta=0.70
     Davidson diagonalization with overlap
     ethr =  5.27E-10,  avg # of iterations =  2.0

     total cpu time spent up to now is       11.5 secs

     total energy              =    -197.68818079 Ry
     Harris-Foulkes estimate   =    -197.68818080 Ry
     estimated scf accuracy    <       0.00000003 Ry

     iteration # 10     ecut=    30.00 Ry     beta=0.70
     Davidson diagonalization with overlap
     ethr =  8.22E-11,  avg # of iterations =  2.0

     total cpu time spent up to now is       12.1 secs

     End of self-consistent calculation

          k = 0.0000 0.0000 0.0000 (  3287 PWs)   bands (ev):

    -4.4876  -3.1300  -2.6671  -2.5139  -1.9754  -1.8893  -1.5759  -1.3888
    -1.2343  -1.0384  -0.9454  -0.7581  -0.7045  -0.6340  -0.5478  -0.2305
     1.9316   3.3197   4.0369   4.5113   5.5704

     the Fermi energy is     1.9790 ev

!    total energy              =    -197.68818079 Ry
     Harris-Foulkes estimate   =    -197.68818079 Ry
     estimated scf accuracy    <          1.4E-09 Ry

     The total energy is the sum of the following terms:

     one-electron contribution =    -134.91818504 Ry
     hartree contribution      =      85.58557068 Ry
     xc contribution           =     -30.79394798 Ry
     ewald contribution        =    -117.55341388 Ry
     smearing contrib. (-TS)   =      -0.00820457 Ry

     convergence has been achieved in  10 iterations

     Writing output data file pwscf.save
 
     init_run     :      0.03s CPU      0.88s WALL (       1 calls)
     electrons    :      0.26s CPU      8.39s WALL (       1 calls)

     Called by init_run:
     wfcinit      :      0.01s CPU      0.35s WALL (       1 calls)
     potinit      :      0.00s CPU      0.15s WALL (       1 calls)

     Called by electrons:
     c_bands      :      0.18s CPU      5.75s WALL (      11 calls)
     sum_band     :      0.03s CPU      0.83s WALL (      11 calls)
     v_of_rho     :      0.02s CPU      0.75s WALL (      11 calls)
     mix_rho      :      0.02s CPU      0.56s WALL (      11 calls)

     Called by c_bands:
     init_us_2    :      0.00s CPU      0.00s WALL (      23 calls)
     cegterg      :      0.17s CPU      5.49s WALL (      11 calls)

     Called by sum_band:

     Called by *egterg:
     h_psi        :      0.13s CPU      4.07s WALL (      39 calls)
     g_psi        :      0.00s CPU      0.00s WALL (      27 calls)
     cdiaghg      :      0.03s CPU      0.99s WALL (      37 calls)

     Called by h_psi:
     h_psi:pot    :      0.13s CPU      4.07s WALL (      39 calls)
     h_psi:calbec :      0.01s CPU      0.23s WALL (      39 calls)
     vloc_psi     :      0.12s CPU      3.83s WALL (      39 calls)
     add_vuspsi   :      0.00s CPU      0.00s WALL (      39 calls)

     General routines
     calbec       :      0.01s CPU      0.23s WALL (      39 calls)
     fft          :      0.01s CPU      0.64s WALL (     122 calls)
     fftw         :      0.14s CPU      4.59s WALL (    1501 calls)
     davcio       :      0.00s CPU      0.01s WALL (     108 calls)
 
     Parallel routines
     fft_scatter  :      0.12s CPU      5.20s WALL (    1623 calls)
 
     PWSCF        :     0.41s CPU        13.41s WALL

 
   This run was terminated on:  18:25: 5  27Apr2018            

=------------------------------------------------------------------------------=
   JOB DONE.
=------------------------------------------------------------------------------=
