
     Program PWSCF v.6.0 (svn rev. 13079) starts on 26Jun2017 at 20: 4:53 

     This program is part of the open-source Quantum ESPRESSO suite
     for quantum simulation of materials; please cite
         "P. Giannozzi et al., J. Phys.:Condens. Matter 21 395502 (2009);
          URL http://www.quantum-espresso.org", 
     in publications or presentations arising from this work. More details at
     http://www.quantum-espresso.org/quote

     Parallel version (MPI), running on    28 processors
     R & G space division:  proc/nbgrp/npool/nimage =      28
     Waiting for input...
     Reading input from standard input

     Current dimensions of program PWSCF are:
     Max number of different atomic species (ntypx) = 10
     Max number of k-points (npk) =  40000
     Max angular momentum in pseudopotentials (lmaxx) =  3

     Subspace diagonalization in iterative solution of the eigenvalue problem:
     a serial algorithm will be used

 
     Parallelization info
     --------------------
     sticks:   dense  smooth     PW     G-vecs:    dense   smooth      PW
     Min         136     136     33                 6338     6338     787
     Max         137     137     34                 6341     6341     792
     Sum        3809    3809    949               177509   177509   22119
 


     bravais-lattice index     =            1
     lattice parameter (alat)  =      20.0000  a.u.
     unit-cell volume          =    8000.0000 (a.u.)^3
     number of atoms/cell      =            5
     number of atomic types    =            1
     number of electrons       =        55.00
     number of Kohn-Sham states=           34
     kinetic-energy cutoff     =      30.0000  Ry
     charge density cutoff     =     120.0000  Ry
     convergence threshold     =      1.0E-08
     mixing beta               =       0.7000
     number of iterations used =            8  plain     mixing
     Exchange-correlation      = BLYP ( 1  3  1  3 0 0)
     nstep                     =         1000


     celldm(1)=  20.000000  celldm(2)=   0.000000  celldm(3)=   0.000000
     celldm(4)=   0.000000  celldm(5)=   0.000000  celldm(6)=   0.000000

     crystal axes: (cart. coord. in units of alat)
               a(1) = (   1.000000   0.000000   0.000000 )  
               a(2) = (   0.000000   1.000000   0.000000 )  
               a(3) = (   0.000000   0.000000   1.000000 )  

     reciprocal axes: (cart. coord. in units 2 pi/alat)
               b(1) = (  1.000000  0.000000  0.000000 )  
               b(2) = (  0.000000  1.000000  0.000000 )  
               b(3) = (  0.000000  0.000000  1.000000 )  


     PseudoPot. # 1 for Au read from file:
     ./Au.blyp-d-hgh.UPF
     MD5 check sum: c10d8bae01f806c36a1643a1c69a8479
     Pseudo is Norm-conserving, Zval = 11.0
     Generated in analytical, separable form
     Using radial grid of 1279 points,  6 beta functions with: 
                l(1) =   0
                l(2) =   0
                l(3) =   1
                l(4) =   1
                l(5) =   2
                l(6) =   2

     atomic species   valence    mass     pseudopotential
        Au            11.00    28.08600     Au( 1.00)

     No symmetry found



   Cartesian axes

     site n.     atom                  positions (alat units)
         1           Au  tau(   1) = (  -0.1261797   0.0433149   0.0226675  )
         2           Au  tau(   2) = (  -0.0344380   0.1945472   0.2028673  )
         3           Au  tau(   3) = (   0.2125917   0.1618393   0.0048890  )
         4           Au  tau(   4) = (   0.2391740   0.2155638   0.2486432  )
         5           Au  tau(   5) = (   0.2153556  -0.0181823   0.1736968  )

     number of k points=     1  Marzari-Vanderbilt smearing, width (Ry)=  0.0250
                       cart. coord. in units 2pi/alat
        k(    1) = (   0.0000000   0.0000000   0.0000000), wk =   2.0000000

     Dense  grid:   177509 G-vectors     FFT dimensions: (  72,  72,  72)

     Estimated max dynamical RAM per process >       6.09Mb

     Estimated total allocated dynamical RAM >     170.64Mb

     Initial potential from superposition of free atoms
     Check: negative starting charge=   -0.005806

     starting charge   54.99940, renormalised to   55.00000

     negative rho (up, down):  5.806E-03 0.000E+00
     Starting wfc are   45 randomized atomic wfcs

     total cpu time spent up to now is        0.9 secs

     per-process dynamical memory:    21.4 Mb

     Self-consistent Calculation

     iteration #  1     ecut=    30.00 Ry     beta=0.70
     Davidson diagonalization with overlap
     ethr =  1.00E-02,  avg # of iterations =  3.0

     Threshold (ethr) on eigenvalues was too large:
     Diagonalizing with lowered threshold

     Davidson diagonalization with overlap
     ethr =  5.26E-04,  avg # of iterations =  3.0

     negative rho (up, down):  6.843E-04 0.000E+00

     total cpu time spent up to now is        1.2 secs

     total energy              =    -329.23289773 Ry
     Harris-Foulkes estimate   =    -329.45090655 Ry
     estimated scf accuracy    <       0.33713273 Ry

     iteration #  2     ecut=    30.00 Ry     beta=0.70
     Davidson diagonalization with overlap
     ethr =  6.13E-04,  avg # of iterations =  5.0

     negative rho (up, down):  4.567E-04 0.000E+00

     total cpu time spent up to now is        1.4 secs

     total energy              =    -328.92412587 Ry
     Harris-Foulkes estimate   =    -329.50494107 Ry
     estimated scf accuracy    <       1.90878221 Ry

     iteration #  3     ecut=    30.00 Ry     beta=0.70
     Davidson diagonalization with overlap
     ethr =  6.13E-04,  avg # of iterations =  6.0

     negative rho (up, down):  1.375E-01 0.000E+00

     total cpu time spent up to now is        1.6 secs

     total energy              =    -329.31772454 Ry
     Harris-Foulkes estimate   =    -329.46078574 Ry
     estimated scf accuracy    <       0.34640874 Ry

     iteration #  4     ecut=    30.00 Ry     beta=0.70
     Davidson diagonalization with overlap
     ethr =  6.13E-04,  avg # of iterations =  2.0

     negative rho (up, down):  1.225E-01 0.000E+00

     total cpu time spent up to now is        1.8 secs

     total energy              =    -329.31011082 Ry
     Harris-Foulkes estimate   =    -329.37872752 Ry
     estimated scf accuracy    <       0.14316960 Ry

     iteration #  5     ecut=    30.00 Ry     beta=0.70
     Davidson diagonalization with overlap
     ethr =  2.60E-04,  avg # of iterations =  6.0

     negative rho (up, down):  3.083E-02 0.000E+00

     total cpu time spent up to now is        2.0 secs

     total energy              =    -329.34376843 Ry
     Harris-Foulkes estimate   =    -329.37045343 Ry
     estimated scf accuracy    <       0.12319652 Ry

     iteration #  6     ecut=    30.00 Ry     beta=0.70
     Davidson diagonalization with overlap
     ethr =  2.24E-04,  avg # of iterations =  2.0

     negative rho (up, down):  5.366E-02 0.000E+00

     total cpu time spent up to now is        2.2 secs

     total energy              =    -329.34878373 Ry
     Harris-Foulkes estimate   =    -329.37294485 Ry
     estimated scf accuracy    <       0.04512126 Ry

     iteration #  7     ecut=    30.00 Ry     beta=0.70
     Davidson diagonalization with overlap
     ethr =  8.20E-05,  avg # of iterations =  5.0

     negative rho (up, down):  2.321E-01 0.000E+00

     total cpu time spent up to now is        2.4 secs

     total energy              =    -329.29901284 Ry
     Harris-Foulkes estimate   =    -329.37289561 Ry
     estimated scf accuracy    <       0.16061905 Ry

     iteration #  8     ecut=    30.00 Ry     beta=0.70
     Davidson diagonalization with overlap
     ethr =  8.20E-05,  avg # of iterations =  8.0

     negative rho (up, down):  2.785E-02 0.000E+00

     total cpu time spent up to now is        2.7 secs

     total energy              =    -329.36202898 Ry
     Harris-Foulkes estimate   =    -329.34627434 Ry
     estimated scf accuracy    <       0.06807704 Ry

     iteration #  9     ecut=    30.00 Ry     beta=0.70
     Davidson diagonalization with overlap
     ethr =  8.20E-05,  avg # of iterations =  7.0

     negative rho (up, down):  4.144E-02 0.000E+00

     total cpu time spent up to now is        2.9 secs

     total energy              =    -329.36139720 Ry
     Harris-Foulkes estimate   =    -329.37097480 Ry
     estimated scf accuracy    <       0.03437537 Ry

     iteration # 10     ecut=    30.00 Ry     beta=0.70
     Davidson diagonalization with overlap
     ethr =  6.25E-05,  avg # of iterations =  2.0

     negative rho (up, down):  2.283E-02 0.000E+00

     total cpu time spent up to now is        3.1 secs

     total energy              =    -329.36392676 Ry
     Harris-Foulkes estimate   =    -329.36653138 Ry
     estimated scf accuracy    <       0.03314614 Ry

     iteration # 11     ecut=    30.00 Ry     beta=0.70
     Davidson diagonalization with overlap
     ethr =  6.03E-05,  avg # of iterations =  2.0

     negative rho (up, down):  5.158E-03 0.000E+00

     total cpu time spent up to now is        3.3 secs

     total energy              =    -329.36910484 Ry
     Harris-Foulkes estimate   =    -329.36753824 Ry
     estimated scf accuracy    <       0.02612579 Ry

     iteration # 12     ecut=    30.00 Ry     beta=0.70
     Davidson diagonalization with overlap
     ethr =  4.75E-05,  avg # of iterations =  3.0

     negative rho (up, down):  2.674E-03 0.000E+00

     total cpu time spent up to now is        3.4 secs

     total energy              =    -329.36993963 Ry
     Harris-Foulkes estimate   =    -329.37056891 Ry
     estimated scf accuracy    <       0.00828023 Ry

     iteration # 13     ecut=    30.00 Ry     beta=0.70
     Davidson diagonalization with overlap
     ethr =  1.51E-05,  avg # of iterations =  7.0

     negative rho (up, down):  1.409E-03 0.000E+00

     total cpu time spent up to now is        3.6 secs

     total energy              =    -329.37042872 Ry
     Harris-Foulkes estimate   =    -329.37108249 Ry
     estimated scf accuracy    <       0.00517134 Ry

     iteration # 14     ecut=    30.00 Ry     beta=0.70
     Davidson diagonalization with overlap
     ethr =  9.40E-06,  avg # of iterations =  1.0

     negative rho (up, down):  8.819E-04 0.000E+00

     total cpu time spent up to now is        3.8 secs

     total energy              =    -329.37101493 Ry
     Harris-Foulkes estimate   =    -329.37102706 Ry
     estimated scf accuracy    <       0.00107259 Ry

     iteration # 15     ecut=    30.00 Ry     beta=0.70
     Davidson diagonalization with overlap
     ethr =  1.95E-06,  avg # of iterations =  4.0

     negative rho (up, down):  8.140E-03 0.000E+00

     total cpu time spent up to now is        4.0 secs

     total energy              =    -329.36907535 Ry
     Harris-Foulkes estimate   =    -329.37118116 Ry
     estimated scf accuracy    <       0.00055309 Ry

     iteration # 16     ecut=    30.00 Ry     beta=0.70
     Davidson diagonalization with overlap
     ethr =  1.01E-06,  avg # of iterations =  4.0

     negative rho (up, down):  4.275E-03 0.000E+00

     total cpu time spent up to now is        4.2 secs

     total energy              =    -329.36989943 Ry
     Harris-Foulkes estimate   =    -329.36931969 Ry
     estimated scf accuracy    <       0.00080660 Ry

     iteration # 17     ecut=    30.00 Ry     beta=0.70
     Davidson diagonalization with overlap
     ethr =  1.01E-06,  avg # of iterations =  3.0

     negative rho (up, down):  3.350E-03 0.000E+00

     total cpu time spent up to now is        4.4 secs

     total energy              =    -329.37037025 Ry
     Harris-Foulkes estimate   =    -329.37006109 Ry
     estimated scf accuracy    <       0.00018240 Ry

     iteration # 18     ecut=    30.00 Ry     beta=0.70
     Davidson diagonalization with overlap
     ethr =  3.32E-07,  avg # of iterations =  2.0

     negative rho (up, down):  2.458E-03 0.000E+00

     total cpu time spent up to now is        4.6 secs

     total energy              =    -329.37056579 Ry
     Harris-Foulkes estimate   =    -329.37041880 Ry
     estimated scf accuracy    <       0.00012502 Ry

     iteration # 19     ecut=    30.00 Ry     beta=0.70
     Davidson diagonalization with overlap
     ethr =  2.27E-07,  avg # of iterations =  3.0

     negative rho (up, down):  9.667E-03 0.000E+00

     total cpu time spent up to now is        4.8 secs

     total energy              =    -329.36858873 Ry
     Harris-Foulkes estimate   =    -329.37065930 Ry
     estimated scf accuracy    <       0.00041390 Ry

     iteration # 20     ecut=    30.00 Ry     beta=0.70
     Davidson diagonalization with overlap
     ethr =  2.27E-07,  avg # of iterations =  4.0

     negative rho (up, down):  8.612E-03 0.000E+00

     total cpu time spent up to now is        5.1 secs

     total energy              =    -329.36888703 Ry
     Harris-Foulkes estimate   =    -329.36878480 Ry
     estimated scf accuracy    <       0.00113729 Ry

     iteration # 21     ecut=    30.00 Ry     beta=0.70
     Davidson diagonalization with overlap
     ethr =  2.27E-07,  avg # of iterations =  3.0

     negative rho (up, down):  5.589E-03 0.000E+00

     total cpu time spent up to now is        5.3 secs

     total energy              =    -329.36994002 Ry
     Harris-Foulkes estimate   =    -329.36897980 Ry
     estimated scf accuracy    <       0.00022646 Ry

     iteration # 22     ecut=    30.00 Ry     beta=0.70
     Davidson diagonalization with overlap
     ethr =  2.27E-07,  avg # of iterations =  3.0

     negative rho (up, down):  4.184E-03 0.000E+00

     total cpu time spent up to now is        5.5 secs

     total energy              =    -329.37014312 Ry
     Harris-Foulkes estimate   =    -329.36999936 Ry
     estimated scf accuracy    <       0.00020426 Ry

     iteration # 23     ecut=    30.00 Ry     beta=0.70
     Davidson diagonalization with overlap
     ethr =  2.27E-07,  avg # of iterations =  2.0

     negative rho (up, down):  4.171E-03 0.000E+00

     total cpu time spent up to now is        5.7 secs

     total energy              =    -329.37025684 Ry
     Harris-Foulkes estimate   =    -329.37021855 Ry
     estimated scf accuracy    <       0.00053229 Ry

     iteration # 24     ecut=    30.00 Ry     beta=0.70
     Davidson diagonalization with overlap
     ethr =  2.27E-07,  avg # of iterations =  2.0

     negative rho (up, down):  2.264E-03 0.000E+00

     total cpu time spent up to now is        5.8 secs

     total energy              =    -329.37078467 Ry
     Harris-Foulkes estimate   =    -329.37030291 Ry
     estimated scf accuracy    <       0.00005376 Ry

     iteration # 25     ecut=    30.00 Ry     beta=0.70
     Davidson diagonalization with overlap
     ethr =  9.77E-08,  avg # of iterations =  3.0

     negative rho (up, down):  2.311E-03 0.000E+00

     total cpu time spent up to now is        6.1 secs

     total energy              =    -329.37077800 Ry
     Harris-Foulkes estimate   =    -329.37081392 Ry
     estimated scf accuracy    <       0.00007510 Ry

     iteration # 26     ecut=    30.00 Ry     beta=0.70
     Davidson diagonalization with overlap
     ethr =  9.77E-08,  avg # of iterations =  2.0

     negative rho (up, down):  5.659E-04 0.000E+00

     total cpu time spent up to now is        6.3 secs

     total energy              =    -329.37119263 Ry
     Harris-Foulkes estimate   =    -329.37078905 Ry
     estimated scf accuracy    <       0.00002234 Ry

     iteration # 27     ecut=    30.00 Ry     beta=0.70
     Davidson diagonalization with overlap
     ethr =  4.06E-08,  avg # of iterations =  3.0

     negative rho (up, down):  4.475E-04 0.000E+00

     total cpu time spent up to now is        6.5 secs

     total energy              =    -329.37125551 Ry
     Harris-Foulkes estimate   =    -329.37120745 Ry
     estimated scf accuracy    <       0.00008597 Ry

     iteration # 28     ecut=    30.00 Ry     beta=0.70
     Davidson diagonalization with overlap
     ethr =  4.06E-08,  avg # of iterations =  2.0

     negative rho (up, down):  7.711E-05 0.000E+00

     total cpu time spent up to now is        6.7 secs

     total energy              =    -329.37132382 Ry
     Harris-Foulkes estimate   =    -329.37126513 Ry
     estimated scf accuracy    <       0.00000906 Ry

     iteration # 29     ecut=    30.00 Ry     beta=0.70
     Davidson diagonalization with overlap
     ethr =  1.65E-08,  avg # of iterations =  3.0

     negative rho (up, down):  5.010E-05 0.000E+00

     total cpu time spent up to now is        6.9 secs

     total energy              =    -329.37132445 Ry
     Harris-Foulkes estimate   =    -329.37132827 Ry
     estimated scf accuracy    <       0.00001735 Ry

     iteration # 30     ecut=    30.00 Ry     beta=0.70
     Davidson diagonalization with overlap
     ethr =  1.65E-08,  avg # of iterations =  2.0

     negative rho (up, down):  1.121E-05 0.000E+00

     total cpu time spent up to now is        7.1 secs

     total energy              =    -329.37132774 Ry
     Harris-Foulkes estimate   =    -329.37132622 Ry
     estimated scf accuracy    <       0.00000121 Ry

     iteration # 31     ecut=    30.00 Ry     beta=0.70
     Davidson diagonalization with overlap
     ethr =  2.20E-09,  avg # of iterations =  3.0

     negative rho (up, down):  2.647E-05 0.000E+00

     total cpu time spent up to now is        7.3 secs

     total energy              =    -329.37132754 Ry
     Harris-Foulkes estimate   =    -329.37132832 Ry
     estimated scf accuracy    <       0.00000139 Ry

     iteration # 32     ecut=    30.00 Ry     beta=0.70
     Davidson diagonalization with overlap
     ethr =  2.20E-09,  avg # of iterations =  2.0

     negative rho (up, down):  9.937E-06 0.000E+00

     total cpu time spent up to now is        7.5 secs

     total energy              =    -329.37132642 Ry
     Harris-Foulkes estimate   =    -329.37132817 Ry
     estimated scf accuracy    <       0.00000349 Ry

     iteration # 33     ecut=    30.00 Ry     beta=0.70
     Davidson diagonalization with overlap
     ethr =  2.20E-09,  avg # of iterations =  3.0

     negative rho (up, down):  2.897E-05 0.000E+00

     total cpu time spent up to now is        7.7 secs

     total energy              =    -329.37132547 Ry
     Harris-Foulkes estimate   =    -329.37132732 Ry
     estimated scf accuracy    <       0.00000251 Ry

     iteration # 34     ecut=    30.00 Ry     beta=0.70
     Davidson diagonalization with overlap
     ethr =  2.20E-09,  avg # of iterations =  2.0

     negative rho (up, down):  1.467E-05 0.000E+00

     total cpu time spent up to now is        7.9 secs

     total energy              =    -329.37132665 Ry
     Harris-Foulkes estimate   =    -329.37132624 Ry
     estimated scf accuracy    <       0.00000299 Ry

     iteration # 35     ecut=    30.00 Ry     beta=0.70
     Davidson diagonalization with overlap
     ethr =  2.20E-09,  avg # of iterations =  3.0

     negative rho (up, down):  8.989E-06 0.000E+00

     total cpu time spent up to now is        8.1 secs

     total energy              =    -329.37132707 Ry
     Harris-Foulkes estimate   =    -329.37132738 Ry
     estimated scf accuracy    <       0.00000185 Ry

     iteration # 36     ecut=    30.00 Ry     beta=0.70
     Davidson diagonalization with overlap
     ethr =  2.20E-09,  avg # of iterations =  2.0

     negative rho (up, down):  8.673E-06 0.000E+00

     total cpu time spent up to now is        8.3 secs

     total energy              =    -329.37132724 Ry
     Harris-Foulkes estimate   =    -329.37132729 Ry
     estimated scf accuracy    <       0.00000024 Ry

     iteration # 37     ecut=    30.00 Ry     beta=0.70
     Davidson diagonalization with overlap
     ethr =  4.28E-10,  avg # of iterations =  2.0

     negative rho (up, down):  2.490E-06 0.000E+00

     total cpu time spent up to now is        8.5 secs

     total energy              =    -329.37132790 Ry
     Harris-Foulkes estimate   =    -329.37132733 Ry
     estimated scf accuracy    <       0.00000025 Ry

     iteration # 38     ecut=    30.00 Ry     beta=0.70
     Davidson diagonalization with overlap
     ethr =  4.28E-10,  avg # of iterations =  2.0

     negative rho (up, down):  8.540E-07 0.000E+00

     total cpu time spent up to now is        8.7 secs

     total energy              =    -329.37132822 Ry
     Harris-Foulkes estimate   =    -329.37132796 Ry
     estimated scf accuracy    <       0.00000005 Ry

     iteration # 39     ecut=    30.00 Ry     beta=0.70
     Davidson diagonalization with overlap
     ethr =  8.32E-11,  avg # of iterations =  3.0

     negative rho (up, down):  1.182E-08 0.000E+00

     total cpu time spent up to now is        8.9 secs

     total energy              =    -329.37132885 Ry
     Harris-Foulkes estimate   =    -329.37132824 Ry
     estimated scf accuracy    <       0.00000004 Ry

     iteration # 40     ecut=    30.00 Ry     beta=0.70
     Davidson diagonalization with overlap
     ethr =  7.69E-11,  avg # of iterations =  3.0

     negative rho (up, down):  1.330E-08 0.000E+00

     total cpu time spent up to now is        9.1 secs

     total energy              =    -329.37132931 Ry
     Harris-Foulkes estimate   =    -329.37132889 Ry
     estimated scf accuracy    <       0.00000010 Ry

     iteration # 41     ecut=    30.00 Ry     beta=0.70
     Davidson diagonalization with overlap
     ethr =  7.69E-11,  avg # of iterations =  3.0

     total cpu time spent up to now is        9.3 secs

     total energy              =    -329.37132926 Ry
     Harris-Foulkes estimate   =    -329.37132933 Ry
     estimated scf accuracy    <       0.00000006 Ry

     iteration # 42     ecut=    30.00 Ry     beta=0.70
     Davidson diagonalization with overlap
     ethr =  7.69E-11,  avg # of iterations =  2.0

     total cpu time spent up to now is        9.5 secs

     total energy              =    -329.37132919 Ry
     Harris-Foulkes estimate   =    -329.37132927 Ry
     estimated scf accuracy    <       0.00000002 Ry

     iteration # 43     ecut=    30.00 Ry     beta=0.70
     Davidson diagonalization with overlap
     ethr =  3.08E-11,  avg # of iterations =  2.0

     total cpu time spent up to now is        9.7 secs

     total energy              =    -329.37132931 Ry
     Harris-Foulkes estimate   =    -329.37132920 Ry
     estimated scf accuracy    <       0.00000003 Ry

     iteration # 44     ecut=    30.00 Ry     beta=0.70
     Davidson diagonalization with overlap
     ethr =  3.08E-11,  avg # of iterations =  2.0

     total cpu time spent up to now is        9.8 secs

     End of self-consistent calculation

          k = 0.0000 0.0000 0.0000 ( 22119 PWs)   bands (ev):

    -8.8832  -7.5932  -7.5029  -7.4331  -6.8651  -6.7608  -6.5365  -6.5165
    -6.1545  -6.0270  -5.7340  -5.6867  -5.6457  -5.5440  -5.5030  -5.4262
    -5.3196  -5.1249  -4.8848  -4.7920  -4.7721  -4.1812  -4.0857  -4.0342
    -3.9953  -3.9880  -3.8098  -3.4859  -3.3074  -2.1493  -0.3059  -0.1154
     0.2980   0.5525

     the Fermi energy is    -3.5894 ev

!    total energy              =    -329.37132926 Ry
     Harris-Foulkes estimate   =    -329.37132931 Ry
     estimated scf accuracy    <          6.2E-09 Ry

     convergence has been achieved in  44 iterations

     Forces acting on atoms (Ry/au):

     atom    1 type  1   force =     0.01959065    0.01380726    0.01286316
     atom    2 type  1   force =     0.00510455   -0.01037049   -0.01369079
     atom    3 type  1   force =    -0.01782612    0.00782830   -0.03724159
     atom    4 type  1   force =    -0.00482987    0.03572398    0.03451856
     atom    5 type  1   force =    -0.00203921   -0.04698905    0.00355066

     Total force =     0.086849     Total SCF correction =     0.000233

     Molecular Dynamics Calculation

     Starting temperature  =   750.00 K

     temperature is controlled by Andersen thermostat
     Collision frequency = 1.0000/timestep
     mass Au               =    28.09
     Time step             =   100.00 a.u.,  4.8378 femto-seconds

     Entering Dynamics:    iteration =     1
                           time      =   0.0048 pico-seconds


     Andersen thermostat:    5 collisions

ATOMIC_POSITIONS (bohr)
Au      -2.483682545   0.790289831   0.438279536
Au      -0.645042915   3.920296193   4.082352534
Au       4.175934578   3.227732732   0.114673309
Au       4.783273300   4.315023668   5.000956196
Au       4.299588582  -0.311684425   3.419014424


     kinetic energy (Ekin) =     0.03157658 Ry
     temperature           =   830.92359653 K 
     Ekin + Etot (const)   =  -329.33975269 Ry

     Linear momentum :    0.0000000000    0.0000000000   -0.0000000000

     Writing output data file pwscf.save
     Check: negative starting charge=   -0.005806
     NEW-OLD atomic charge density approx. for the potential
     Check: negative starting charge=   -0.005906

     negative rho (up, down):  1.614E-03 0.000E+00

     total cpu time spent up to now is       10.5 secs

     per-process dynamical memory:    25.0 Mb

     Self-consistent Calculation

     iteration #  1     ecut=    30.00 Ry     beta=0.70
     Davidson diagonalization with overlap
     ethr =  1.00E-06,  avg # of iterations =  8.0

     negative rho (up, down):  1.385E-04 0.000E+00

     total cpu time spent up to now is       10.8 secs

     total energy              =    -329.36711491 Ry
     Harris-Foulkes estimate   =    -329.36677245 Ry
     estimated scf accuracy    <       0.00284108 Ry

     iteration #  2     ecut=    30.00 Ry     beta=0.70
     Davidson diagonalization with overlap
     ethr =  5.17E-06,  avg # of iterations =  4.0

     negative rho (up, down):  1.242E-04 0.000E+00

     total cpu time spent up to now is       11.0 secs

     total energy              =    -329.35749307 Ry
     Harris-Foulkes estimate   =    -329.37510368 Ry
     estimated scf accuracy    <       0.22970179 Ry

     iteration #  3     ecut=    30.00 Ry     beta=0.70
     Davidson diagonalization with overlap
     ethr =  5.17E-06,  avg # of iterations =  3.0

     negative rho (up, down):  5.598E-05 0.000E+00

     total cpu time spent up to now is       11.1 secs

     total energy              =    -329.36716492 Ry
     Harris-Foulkes estimate   =    -329.36982389 Ry
     estimated scf accuracy    <       0.01760403 Ry

     iteration #  4     ecut=    30.00 Ry     beta=0.70
     Davidson diagonalization with overlap
     ethr =  5.17E-06,  avg # of iterations =  2.0

     negative rho (up, down):  5.626E-06 0.000E+00

     total cpu time spent up to now is       11.2 secs

     total energy              =    -329.36835659 Ry
     Harris-Foulkes estimate   =    -329.36856232 Ry
     estimated scf accuracy    <       0.00083650 Ry

     iteration #  5     ecut=    30.00 Ry     beta=0.70
     Davidson diagonalization with overlap
     ethr =  1.52E-06,  avg # of iterations =  2.0

     negative rho (up, down):  1.661E-08 0.000E+00

     total cpu time spent up to now is       11.2 secs

     total energy              =    -329.36845625 Ry
     Harris-Foulkes estimate   =    -329.36851452 Ry
     estimated scf accuracy    <       0.00036875 Ry

     iteration #  6     ecut=    30.00 Ry     beta=0.70
     Davidson diagonalization with overlap
     ethr =  6.70E-07,  avg # of iterations =  1.0

     total cpu time spent up to now is       11.3 secs

     total energy              =    -329.36848368 Ry
     Harris-Foulkes estimate   =    -329.36849520 Ry
     estimated scf accuracy    <       0.00004390 Ry

     iteration #  7     ecut=    30.00 Ry     beta=0.70
     Davidson diagonalization with overlap
     ethr =  7.98E-08,  avg # of iterations =  2.0

     total cpu time spent up to now is       11.4 secs

     total energy              =    -329.36848946 Ry
     Harris-Foulkes estimate   =    -329.36849158 Ry
     estimated scf accuracy    <       0.00000530 Ry

     iteration #  8     ecut=    30.00 Ry     beta=0.70
     Davidson diagonalization with overlap
     ethr =  9.63E-09,  avg # of iterations =  2.0

     total cpu time spent up to now is       11.5 secs

     total energy              =    -329.36849024 Ry
     Harris-Foulkes estimate   =    -329.36849125 Ry
     estimated scf accuracy    <       0.00000346 Ry

     iteration #  9     ecut=    30.00 Ry     beta=0.70
     Davidson diagonalization with overlap
     ethr =  6.28E-09,  avg # of iterations =  2.0

     total cpu time spent up to now is       11.6 secs

     total energy              =    -329.36849037 Ry
     Harris-Foulkes estimate   =    -329.36849060 Ry
     estimated scf accuracy    <       0.00000196 Ry

     iteration # 10     ecut=    30.00 Ry     beta=0.70
     Davidson diagonalization with overlap
     ethr =  3.56E-09,  avg # of iterations =  1.0

     total cpu time spent up to now is       11.7 secs

     total energy              =    -329.36849041 Ry
     Harris-Foulkes estimate   =    -329.36849050 Ry
     estimated scf accuracy    <       0.00000065 Ry

     iteration # 11     ecut=    30.00 Ry     beta=0.70
     Davidson diagonalization with overlap
     ethr =  1.18E-09,  avg # of iterations =  1.0

     total cpu time spent up to now is       11.8 secs

     total energy              =    -329.36849043 Ry
     Harris-Foulkes estimate   =    -329.36849044 Ry
     estimated scf accuracy    <       0.00000012 Ry

     iteration # 12     ecut=    30.00 Ry     beta=0.70
     Davidson diagonalization with overlap
     ethr =  2.27E-10,  avg # of iterations =  1.0

     total cpu time spent up to now is       11.9 secs

     total energy              =    -329.36849046 Ry
     Harris-Foulkes estimate   =    -329.36849044 Ry
     estimated scf accuracy    <       0.00000003 Ry

     iteration # 13     ecut=    30.00 Ry     beta=0.70
     Davidson diagonalization with overlap
     ethr =  6.30E-11,  avg # of iterations =  2.0

     total cpu time spent up to now is       11.9 secs

     End of self-consistent calculation

          k = 0.0000 0.0000 0.0000 ( 22119 PWs)   bands (ev):

    -8.9685  -7.7149  -7.5295  -7.4734  -6.8945  -6.7616  -6.5987  -6.5197
    -6.1387  -6.0386  -5.7567  -5.6917  -5.6304  -5.5606  -5.5019  -5.4140
    -5.2814  -5.0896  -4.8681  -4.8084  -4.7969  -4.1957  -4.1057  -4.0583
    -3.9954  -3.9890  -3.8030  -3.4998  -3.2680  -2.1718  -0.3048  -0.1084
     0.3182   0.5447

     the Fermi energy is    -3.5868 ev

!    total energy              =    -329.36849046 Ry
     Harris-Foulkes estimate   =    -329.36849046 Ry
     estimated scf accuracy    <          4.8E-09 Ry

     convergence has been achieved in  13 iterations

     Forces acting on atoms (Ry/au):

     atom    1 type  1   force =     0.02322566    0.02060455    0.01914385
     atom    2 type  1   force =     0.00236463   -0.01672388   -0.01997021
     atom    3 type  1   force =    -0.02047488    0.01975021   -0.04719109
     atom    4 type  1   force =    -0.00263565    0.04005611    0.03617142
     atom    5 type  1   force =    -0.00247977   -0.06368698    0.01184602

     Total force =     0.110332     Total SCF correction =     0.000166

     Entering Dynamics:    iteration =     2
                           time      =   0.0097 pico-seconds


     Andersen thermostat:    5 collisions

ATOMIC_POSITIONS (bohr)
Au      -2.512913786   0.726110891   0.451074858
Au      -0.611065361   3.921472203   4.078656266
Au       4.168998662   3.232674625   0.123012518
Au       4.721136450   4.412770686   4.945981575
Au       4.363915036  -0.351370405   3.456550783


     kinetic energy (Ekin) =     0.03915223 Ry
     temperature           =  1030.27349460 K 
     Ekin + Etot (const)   =  -329.32933823 Ry
     Message from routine dynamics:
     Total linear momentum <> 0

     Linear momentum :   -0.2214882710   -0.8691706772    0.5400078162

     Writing output data file pwscf.save

     first order wave-functions extrapolation
     Check: negative starting charge=   -0.005906
     first order charge density extrapolation
     Check: negative starting charge=   -0.005880

     negative rho (up, down):  3.113E-03 0.000E+00

     total cpu time spent up to now is       12.4 secs

     per-process dynamical memory:    25.1 Mb

     Self-consistent Calculation

     iteration #  1     ecut=    30.00 Ry     beta=0.70
     Davidson diagonalization with overlap
     ethr =  1.00E-06,  avg # of iterations =  8.0

     negative rho (up, down):  3.436E-04 0.000E+00

     total cpu time spent up to now is       12.6 secs

     total energy              =    -329.36747553 Ry
     Harris-Foulkes estimate   =    -329.36795828 Ry
     estimated scf accuracy    <       0.00613234 Ry

     iteration #  2     ecut=    30.00 Ry     beta=0.70
     Davidson diagonalization with overlap
     ethr =  1.11E-05,  avg # of iterations =  7.0

     negative rho (up, down):  2.239E-04 0.000E+00

     total cpu time spent up to now is       12.8 secs

     total energy              =    -329.36787998 Ry
     Harris-Foulkes estimate   =    -329.37791118 Ry
     estimated scf accuracy    <       0.03527915 Ry

     iteration #  3     ecut=    30.00 Ry     beta=0.70
     Davidson diagonalization with overlap
     ethr =  1.11E-05,  avg # of iterations =  5.0

     negative rho (up, down):  1.031E-04 0.000E+00

     total cpu time spent up to now is       12.9 secs

     total energy              =    -329.36926460 Ry
     Harris-Foulkes estimate   =    -329.37089251 Ry
     estimated scf accuracy    <       0.00598300 Ry

     iteration #  4     ecut=    30.00 Ry     beta=0.70
     Davidson diagonalization with overlap
     ethr =  1.09E-05,  avg # of iterations =  1.0

     negative rho (up, down):  3.223E-05 0.000E+00

     total cpu time spent up to now is       13.0 secs

     total energy              =    -329.37002142 Ry
     Harris-Foulkes estimate   =    -329.37236947 Ry
     estimated scf accuracy    <       0.02370114 Ry

     iteration #  5     ecut=    30.00 Ry     beta=0.70
     Davidson diagonalization with overlap
     ethr =  1.09E-05,  avg # of iterations =  1.0

     negative rho (up, down):  2.930E-06 0.000E+00

     total cpu time spent up to now is       13.1 secs

     total energy              =    -329.37051997 Ry
     Harris-Foulkes estimate   =    -329.37072314 Ry
     estimated scf accuracy    <       0.00179640 Ry

     iteration #  6     ecut=    30.00 Ry     beta=0.70
     Davidson diagonalization with overlap
     ethr =  3.27E-06,  avg # of iterations =  1.0

     negative rho (up, down):  1.261E-08 0.000E+00

     total cpu time spent up to now is       13.2 secs

     total energy              =    -329.37064567 Ry
     Harris-Foulkes estimate   =    -329.37068233 Ry
     estimated scf accuracy    <       0.00022852 Ry

     iteration #  7     ecut=    30.00 Ry     beta=0.70
     Davidson diagonalization with overlap
     ethr =  4.15E-07,  avg # of iterations =  2.0

     total cpu time spent up to now is       13.3 secs

     total energy              =    -329.37066799 Ry
     Harris-Foulkes estimate   =    -329.37067522 Ry
     estimated scf accuracy    <       0.00004444 Ry

     iteration #  8     ecut=    30.00 Ry     beta=0.70
     Davidson diagonalization with overlap
     ethr =  8.08E-08,  avg # of iterations =  2.0

     total cpu time spent up to now is       13.4 secs

     total energy              =    -329.37067404 Ry
     Harris-Foulkes estimate   =    -329.37067893 Ry
     estimated scf accuracy    <       0.00004382 Ry

     iteration #  9     ecut=    30.00 Ry     beta=0.70
     Davidson diagonalization with overlap
     ethr =  7.97E-08,  avg # of iterations =  1.0

     total cpu time spent up to now is       13.4 secs

     total energy              =    -329.37067626 Ry
     Harris-Foulkes estimate   =    -329.37067648 Ry
     estimated scf accuracy    <       0.00000367 Ry

     iteration # 10     ecut=    30.00 Ry     beta=0.70
     Davidson diagonalization with overlap
     ethr =  6.68E-09,  avg # of iterations =  2.0

     total cpu time spent up to now is       13.5 secs

     total energy              =    -329.37067641 Ry
     Harris-Foulkes estimate   =    -329.37067664 Ry
     estimated scf accuracy    <       0.00000301 Ry

     iteration # 11     ecut=    30.00 Ry     beta=0.70
     Davidson diagonalization with overlap
     ethr =  5.47E-09,  avg # of iterations =  1.0

     total cpu time spent up to now is       13.6 secs

     total energy              =    -329.37067666 Ry
     Harris-Foulkes estimate   =    -329.37067665 Ry
     estimated scf accuracy    <       0.00000016 Ry

     iteration # 12     ecut=    30.00 Ry     beta=0.70
     Davidson diagonalization with overlap
     ethr =  2.93E-10,  avg # of iterations =  3.0

     total cpu time spent up to now is       13.7 secs

     total energy              =    -329.37067677 Ry
     Harris-Foulkes estimate   =    -329.37067671 Ry
     estimated scf accuracy    <       0.00000009 Ry

     iteration # 13     ecut=    30.00 Ry     beta=0.70
     Davidson diagonalization with overlap
     ethr =  1.70E-10,  avg # of iterations =  2.0

     total cpu time spent up to now is       13.8 secs

     End of self-consistent calculation

          k = 0.0000 0.0000 0.0000 ( 22119 PWs)   bands (ev):

    -8.8961  -7.6177  -7.5072  -7.4687  -6.8783  -6.7974  -6.5775  -6.5286
    -6.1517  -6.0127  -5.7459  -5.6847  -5.6426  -5.5717  -5.5265  -5.4271
    -5.2725  -5.0794  -4.8887  -4.8400  -4.8191  -4.2106  -4.1245  -4.0729
    -4.0026  -3.9977  -3.8021  -3.5265  -3.2916  -2.1772  -0.3057  -0.1090
     0.2872   0.5420

     the Fermi energy is    -3.5986 ev

!    total energy              =    -329.37067685 Ry
     Harris-Foulkes estimate   =    -329.37067678 Ry
     estimated scf accuracy    <          4.2E-09 Ry

     convergence has been achieved in  13 iterations

     Forces acting on atoms (Ry/au):

     atom    1 type  1   force =     0.02305463    0.02308556    0.02129886
     atom    2 type  1   force =    -0.00175902   -0.01889012   -0.02355217
     atom    3 type  1   force =    -0.02104743    0.00987926   -0.04288924
     atom    4 type  1   force =    -0.00197803    0.02987634    0.03562864
     atom    5 type  1   force =     0.00172984   -0.04395104    0.00951391

     Total force =     0.094889     Total SCF correction =     0.000095

     Entering Dynamics:    iteration =     3
                           time      =   0.0145 pico-seconds


     Andersen thermostat:    5 collisions

ATOMIC_POSITIONS (bohr)
Au      -2.503722134   0.721361876   0.435196775
Au      -0.648086494   3.975883510   4.071106776
Au       4.148844059   3.232660158   0.110148167
Au       4.769651726   4.417107357   4.958645341
Au       4.363383843  -0.405354902   3.480178941


     kinetic energy (Ekin) =     0.01492111 Ry
     temperature           =   392.64238058 K 
     Ekin + Etot (const)   =  -329.35575574 Ry
     Message from routine dynamics:
     Total linear momentum <> 0

     Linear momentum :    0.4127403262    0.4149016587    0.7876234368

     Writing output data file pwscf.save

     second order wave-functions extrapolation
     Check: negative starting charge=   -0.005880
     second order charge density extrapolation
     Check: negative starting charge=   -0.005828

     negative rho (up, down):  8.418E-04 0.000E+00

     total cpu time spent up to now is       14.1 secs

     per-process dynamical memory:    25.1 Mb

     Self-consistent Calculation

     iteration #  1     ecut=    30.00 Ry     beta=0.70
     Davidson diagonalization with overlap
     ethr =  1.00E-06,  avg # of iterations =  6.0

     negative rho (up, down):  5.300E-05 0.000E+00

     total cpu time spent up to now is       14.3 secs

     total energy              =    -329.37151726 Ry
     Harris-Foulkes estimate   =    -329.37214623 Ry
     estimated scf accuracy    <       0.00204844 Ry

     iteration #  2     ecut=    30.00 Ry     beta=0.70
     Davidson diagonalization with overlap
     ethr =  3.72E-06,  avg # of iterations =  6.0

     negative rho (up, down):  2.771E-05 0.000E+00

     total cpu time spent up to now is       14.5 secs

     total energy              =    -329.37529433 Ry
     Harris-Foulkes estimate   =    -329.37792718 Ry
     estimated scf accuracy    <       0.01124205 Ry

     iteration #  3     ecut=    30.00 Ry     beta=0.70
     Davidson diagonalization with overlap
     ethr =  3.72E-06,  avg # of iterations =  5.0

     negative rho (up, down):  2.655E-05 0.000E+00

     total cpu time spent up to now is       14.6 secs

     total energy              =    -329.37278078 Ry
     Harris-Foulkes estimate   =    -329.37489289 Ry
     estimated scf accuracy    <       0.01915514 Ry

     iteration #  4     ecut=    30.00 Ry     beta=0.70
     Davidson diagonalization with overlap
     ethr =  3.72E-06,  avg # of iterations =  2.0

     negative rho (up, down):  1.178E-05 0.000E+00

     total cpu time spent up to now is       14.7 secs

     total energy              =    -329.37270619 Ry
     Harris-Foulkes estimate   =    -329.37309035 Ry
     estimated scf accuracy    <       0.00391038 Ry

     iteration #  5     ecut=    30.00 Ry     beta=0.70
     Davidson diagonalization with overlap
     ethr =  3.72E-06,  avg # of iterations =  1.0

     negative rho (up, down):  5.693E-07 0.000E+00

     total cpu time spent up to now is       14.8 secs

     total energy              =    -329.37280717 Ry
     Harris-Foulkes estimate   =    -329.37288512 Ry
     estimated scf accuracy    <       0.00073675 Ry

     iteration #  6     ecut=    30.00 Ry     beta=0.70
     Davidson diagonalization with overlap
     ethr =  1.34E-06,  avg # of iterations =  1.0

     total cpu time spent up to now is       14.8 secs

     total energy              =    -329.37284225 Ry
     Harris-Foulkes estimate   =    -329.37285795 Ry
     estimated scf accuracy    <       0.00007925 Ry

     iteration #  7     ecut=    30.00 Ry     beta=0.70
     Davidson diagonalization with overlap
     ethr =  1.44E-07,  avg # of iterations =  3.0

     total cpu time spent up to now is       14.9 secs

     total energy              =    -329.37285498 Ry
     Harris-Foulkes estimate   =    -329.37285824 Ry
     estimated scf accuracy    <       0.00001255 Ry

     iteration #  8     ecut=    30.00 Ry     beta=0.70
     Davidson diagonalization with overlap
     ethr =  2.28E-08,  avg # of iterations =  2.0

     total cpu time spent up to now is       15.0 secs

     total energy              =    -329.37285594 Ry
     Harris-Foulkes estimate   =    -329.37285750 Ry
     estimated scf accuracy    <       0.00002203 Ry

     iteration #  9     ecut=    30.00 Ry     beta=0.70
     Davidson diagonalization with overlap
     ethr =  2.28E-08,  avg # of iterations =  1.0

     total cpu time spent up to now is       15.1 secs

     total energy              =    -329.37285670 Ry
     Harris-Foulkes estimate   =    -329.37285680 Ry
     estimated scf accuracy    <       0.00000154 Ry

     iteration # 10     ecut=    30.00 Ry     beta=0.70
     Davidson diagonalization with overlap
     ethr =  2.79E-09,  avg # of iterations =  1.0

     total cpu time spent up to now is       15.2 secs

     total energy              =    -329.37285684 Ry
     Harris-Foulkes estimate   =    -329.37285682 Ry
     estimated scf accuracy    <       0.00000067 Ry

     iteration # 11     ecut=    30.00 Ry     beta=0.70
     Davidson diagonalization with overlap
     ethr =  1.21E-09,  avg # of iterations =  2.0

     total cpu time spent up to now is       15.3 secs

     total energy              =    -329.37285681 Ry
     Harris-Foulkes estimate   =    -329.37285689 Ry
     estimated scf accuracy    <       0.00000004 Ry

     iteration # 12     ecut=    30.00 Ry     beta=0.70
     Davidson diagonalization with overlap
     ethr =  7.25E-11,  avg # of iterations =  3.0

     total cpu time spent up to now is       15.4 secs

     total energy              =    -329.37285681 Ry
     Harris-Foulkes estimate   =    -329.37285682 Ry
     estimated scf accuracy    <       0.00000003 Ry

     iteration # 13     ecut=    30.00 Ry     beta=0.70
     Davidson diagonalization with overlap
     ethr =  5.09E-11,  avg # of iterations =  2.0

     total cpu time spent up to now is       15.5 secs

     End of self-consistent calculation

          k = 0.0000 0.0000 0.0000 ( 22119 PWs)   bands (ev):

    -8.7543  -7.5171  -7.4038  -7.3679  -6.7983  -6.7106  -6.5227  -6.4505
    -6.1124  -5.9819  -5.7263  -5.6656  -5.6286  -5.5607  -5.5109  -5.4308
    -5.2672  -5.0826  -4.9067  -4.8392  -4.8179  -4.2204  -4.1401  -4.0931
    -4.0151  -4.0101  -3.8159  -3.5311  -3.3079  -2.2153  -0.3081  -0.1139
     0.2802   0.5324

     the Fermi energy is    -3.6091 ev

!    total energy              =    -329.37285680 Ry
     Harris-Foulkes estimate   =    -329.37285681 Ry
     estimated scf accuracy    <          8.0E-09 Ry

     convergence has been achieved in  13 iterations

     Forces acting on atoms (Ry/au):

     atom    1 type  1   force =     0.02426382    0.02503122    0.02216840
     atom    2 type  1   force =     0.00114585   -0.02036333   -0.02501729
     atom    3 type  1   force =    -0.02149423    0.00311708   -0.02879071
     atom    4 type  1   force =    -0.00566643    0.02032546    0.02660330
     atom    5 type  1   force =     0.00175100   -0.02811043    0.00503630

     Total force =     0.077594     Total SCF correction =     0.000119

     Entering Dynamics:    iteration =     4
                           time      =   0.0194 pico-seconds


     Andersen thermostat:    5 collisions

ATOMIC_POSITIONS (bohr)
Au      -2.496391126   0.753002376   0.553746342
Au      -0.663211352   4.005602295   4.052524916
Au       4.203568174   3.252923294   0.077422952
Au       4.773086403   4.361348190   4.899657405
Au       4.313018901  -0.431218156   3.471924385


     kinetic energy (Ekin) =     0.04065465 Ry
     temperature           =  1069.80900893 K 
     Ekin + Etot (const)   =  -329.33220215 Ry
     Message from routine dynamics:
     Total linear momentum <> 0

     Linear momentum :    0.8670906015    0.2887211996    0.1902561912

     Writing output data file pwscf.save

     second order wave-functions extrapolation
     Check: negative starting charge=   -0.005828
     second order charge density extrapolation
     Check: negative starting charge=   -0.005816

     negative rho (up, down):  1.917E-03 0.000E+00

     total cpu time spent up to now is       15.8 secs

     per-process dynamical memory:    25.1 Mb

     Self-consistent Calculation

     iteration #  1     ecut=    30.00 Ry     beta=0.70
     Davidson diagonalization with overlap
     ethr =  1.00E-06,  avg # of iterations =  9.0

     negative rho (up, down):  1.776E-04 0.000E+00

     total cpu time spent up to now is       16.0 secs

     total energy              =    -329.37176137 Ry
     Harris-Foulkes estimate   =    -329.37180402 Ry
     estimated scf accuracy    <       0.00343674 Ry

     iteration #  2     ecut=    30.00 Ry     beta=0.70
     Davidson diagonalization with overlap
     ethr =  6.25E-06,  avg # of iterations =  4.0

     negative rho (up, down):  1.206E-04 0.000E+00

     total cpu time spent up to now is       16.2 secs

     total energy              =    -329.37062060 Ry
     Harris-Foulkes estimate   =    -329.37767831 Ry
     estimated scf accuracy    <       0.02931569 Ry

     iteration #  3     ecut=    30.00 Ry     beta=0.70
     Davidson diagonalization with overlap
     ethr =  6.25E-06,  avg # of iterations =  3.0

     negative rho (up, down):  6.720E-05 0.000E+00

     total cpu time spent up to now is       16.3 secs

     total energy              =    -329.37008557 Ry
     Harris-Foulkes estimate   =    -329.37476947 Ry
     estimated scf accuracy    <       0.04338071 Ry

     iteration #  4     ecut=    30.00 Ry     beta=0.70
     Davidson diagonalization with overlap
     ethr =  6.25E-06,  avg # of iterations =  2.0

     negative rho (up, down):  1.167E-05 0.000E+00

     total cpu time spent up to now is       16.4 secs

     total energy              =    -329.37316125 Ry
     Harris-Foulkes estimate   =    -329.37391289 Ry
     estimated scf accuracy    <       0.00987976 Ry

     iteration #  5     ecut=    30.00 Ry     beta=0.70
     Davidson diagonalization with overlap
     ethr =  6.25E-06,  avg # of iterations =  1.0

     negative rho (up, down):  2.040E-07 0.000E+00

     total cpu time spent up to now is       16.4 secs

     total energy              =    -329.37328272 Ry
     Harris-Foulkes estimate   =    -329.37344415 Ry
     estimated scf accuracy    <       0.00183169 Ry

     iteration #  6     ecut=    30.00 Ry     beta=0.70
     Davidson diagonalization with overlap
     ethr =  3.33E-06,  avg # of iterations =  1.0

     total cpu time spent up to now is       16.5 secs

     total energy              =    -329.37335832 Ry
     Harris-Foulkes estimate   =    -329.37338704 Ry
     estimated scf accuracy    <       0.00009737 Ry

     iteration #  7     ecut=    30.00 Ry     beta=0.70
     Davidson diagonalization with overlap
     ethr =  1.77E-07,  avg # of iterations =  2.0

     total cpu time spent up to now is       16.7 secs

     total energy              =    -329.37337413 Ry
     Harris-Foulkes estimate   =    -329.37338170 Ry
     estimated scf accuracy    <       0.00003194 Ry

     iteration #  8     ecut=    30.00 Ry     beta=0.70
     Davidson diagonalization with overlap
     ethr =  5.81E-08,  avg # of iterations =  2.0

     total cpu time spent up to now is       16.8 secs

     total energy              =    -329.37337832 Ry
     Harris-Foulkes estimate   =    -329.37337968 Ry
     estimated scf accuracy    <       0.00000509 Ry

     iteration #  9     ecut=    30.00 Ry     beta=0.70
     Davidson diagonalization with overlap
     ethr =  9.25E-09,  avg # of iterations =  2.0

     total cpu time spent up to now is       16.9 secs

     total energy              =    -329.37337906 Ry
     Harris-Foulkes estimate   =    -329.37337950 Ry
     estimated scf accuracy    <       0.00000344 Ry

     iteration # 10     ecut=    30.00 Ry     beta=0.70
     Davidson diagonalization with overlap
     ethr =  6.26E-09,  avg # of iterations =  2.0

     total cpu time spent up to now is       17.0 secs

     total energy              =    -329.37337900 Ry
     Harris-Foulkes estimate   =    -329.37337940 Ry
     estimated scf accuracy    <       0.00000204 Ry

     iteration # 11     ecut=    30.00 Ry     beta=0.70
     Davidson diagonalization with overlap
     ethr =  3.72E-09,  avg # of iterations =  1.0

     total cpu time spent up to now is       17.0 secs

     total energy              =    -329.37337909 Ry
     Harris-Foulkes estimate   =    -329.37337914 Ry
     estimated scf accuracy    <       0.00000008 Ry

     iteration # 12     ecut=    30.00 Ry     beta=0.70
     Davidson diagonalization with overlap
     ethr =  1.38E-10,  avg # of iterations =  3.0

     total cpu time spent up to now is       17.1 secs

     total energy              =    -329.37337911 Ry
     Harris-Foulkes estimate   =    -329.37337912 Ry
     estimated scf accuracy    <       0.00000007 Ry

     iteration # 13     ecut=    30.00 Ry     beta=0.70
     Davidson diagonalization with overlap
     ethr =  1.27E-10,  avg # of iterations =  1.0

     total cpu time spent up to now is       17.2 secs

     total energy              =    -329.37337910 Ry
     Harris-Foulkes estimate   =    -329.37337912 Ry
     estimated scf accuracy    <       0.00000001 Ry

     iteration # 14     ecut=    30.00 Ry     beta=0.70
     Davidson diagonalization with overlap
     ethr =  1.93E-11,  avg # of iterations =  1.0

     total cpu time spent up to now is       17.3 secs

     End of self-consistent calculation

          k = 0.0000 0.0000 0.0000 ( 22119 PWs)   bands (ev):

    -8.7780  -7.5246  -7.4210  -7.3868  -6.8234  -6.7379  -6.5446  -6.4525
    -6.1411  -6.0058  -5.7060  -5.6791  -5.6386  -5.5429  -5.5038  -5.4326
    -5.2999  -5.1131  -4.8995  -4.8180  -4.7953  -4.2047  -4.1148  -4.0650
    -4.0067  -4.0042  -3.8133  -3.5030  -3.3281  -2.1681  -0.3121  -0.1155
     0.2741   0.5491

     the Fermi energy is    -3.6005 ev

!    total energy              =    -329.37337909 Ry
     Harris-Foulkes estimate   =    -329.37337911 Ry
     estimated scf accuracy    <          7.6E-10 Ry

     convergence has been achieved in  14 iterations

     Forces acting on atoms (Ry/au):

     atom    1 type  1   force =     0.02192063    0.01863306    0.01662465
     atom    2 type  1   force =     0.00216230   -0.01531586   -0.01854741
     atom    3 type  1   force =    -0.01871054   -0.00100060   -0.03136566
     atom    4 type  1   force =    -0.00443013    0.02664011    0.03380891
     atom    5 type  1   force =    -0.00094227   -0.02895671   -0.00052049

     Total force =     0.075725     Total SCF correction =     0.000067

     Entering Dynamics:    iteration =     5
                           time      =   0.0242 pico-seconds


     Andersen thermostat:    5 collisions

ATOMIC_POSITIONS (bohr)
Au      -2.454258718   0.810441482   0.543342466
Au      -0.657242868   4.006657782   4.098312458
Au       4.225265946   3.232199888   0.078745257
Au       4.726893304   4.365642621   4.878231982
Au       4.289413336  -0.473283773   3.456643837


     kinetic energy (Ekin) =     0.01863955 Ry
     temperature           =   490.49152428 K 
     Ekin + Etot (const)   =  -329.35473954 Ry
     Message from routine dynamics:
     Total linear momentum <> 0

     Linear momentum :   -0.8840987141   -0.4762488897   -0.4654002122

     Writing output data file pwscf.save

     second order wave-functions extrapolation
     Check: negative starting charge=   -0.005816
     second order charge density extrapolation
     Check: negative starting charge=   -0.005825

     negative rho (up, down):  9.548E-04 0.000E+00

     total cpu time spent up to now is       17.6 secs

     per-process dynamical memory:    25.1 Mb

     Self-consistent Calculation

     iteration #  1     ecut=    30.00 Ry     beta=0.70
     Davidson diagonalization with overlap
     ethr =  1.00E-06,  avg # of iterations =  6.0

     negative rho (up, down):  6.389E-05 0.000E+00

     total cpu time spent up to now is       17.9 secs

     total energy              =    -329.37280806 Ry
     Harris-Foulkes estimate   =    -329.37375151 Ry
     estimated scf accuracy    <       0.00283639 Ry

     iteration #  2     ecut=    30.00 Ry     beta=0.70
     Davidson diagonalization with overlap
     ethr =  5.16E-06,  avg # of iterations =  5.0

     negative rho (up, down):  2.918E-05 0.000E+00

     total cpu time spent up to now is       18.1 secs

     total energy              =    -329.37786550 Ry
     Harris-Foulkes estimate   =    -329.37990544 Ry
     estimated scf accuracy    <       0.00848865 Ry

     iteration #  3     ecut=    30.00 Ry     beta=0.70
     Davidson diagonalization with overlap
     ethr =  5.16E-06,  avg # of iterations =  3.0

     negative rho (up, down):  1.900E-05 0.000E+00

     total cpu time spent up to now is       18.2 secs

     total energy              =    -329.37737613 Ry
     Harris-Foulkes estimate   =    -329.37840070 Ry
     estimated scf accuracy    <       0.00475857 Ry

     iteration #  4     ecut=    30.00 Ry     beta=0.70
     Davidson diagonalization with overlap
     ethr =  5.16E-06,  avg # of iterations =  2.0

     negative rho (up, down):  2.610E-05 0.000E+00

     total cpu time spent up to now is       18.3 secs

     total energy              =    -329.37458477 Ry
     Harris-Foulkes estimate   =    -329.37659202 Ry
     estimated scf accuracy    <       0.01829729 Ry

     iteration #  5     ecut=    30.00 Ry     beta=0.70
     Davidson diagonalization with overlap
     ethr =  5.16E-06,  avg # of iterations =  2.0

     negative rho (up, down):  5.049E-06 0.000E+00

     total cpu time spent up to now is       18.3 secs

     total energy              =    -329.37457735 Ry
     Harris-Foulkes estimate   =    -329.37489811 Ry
     estimated scf accuracy    <       0.00427339 Ry

     iteration #  6     ecut=    30.00 Ry     beta=0.70
     Davidson diagonalization with overlap
     ethr =  5.16E-06,  avg # of iterations =  1.0

     negative rho (up, down):  1.151E-08 0.000E+00

     total cpu time spent up to now is       18.4 secs

     total energy              =    -329.37458944 Ry
     Harris-Foulkes estimate   =    -329.37470133 Ry
     estimated scf accuracy    <       0.00084415 Ry

     iteration #  7     ecut=    30.00 Ry     beta=0.70
     Davidson diagonalization with overlap
     ethr =  1.53E-06,  avg # of iterations =  6.0

     total cpu time spent up to now is       18.5 secs

     total energy              =    -329.37466704 Ry
     Harris-Foulkes estimate   =    -329.37467769 Ry
     estimated scf accuracy    <       0.00012184 Ry

     iteration #  8     ecut=    30.00 Ry     beta=0.70
     Davidson diagonalization with overlap
     ethr =  2.22E-07,  avg # of iterations =  3.0

     total cpu time spent up to now is       18.6 secs

     total energy              =    -329.37467605 Ry
     Harris-Foulkes estimate   =    -329.37468382 Ry
     estimated scf accuracy    <       0.00028380 Ry

     iteration #  9     ecut=    30.00 Ry     beta=0.70
     Davidson diagonalization with overlap
     ethr =  2.22E-07,  avg # of iterations =  1.0

     total cpu time spent up to now is       18.7 secs

     total energy              =    -329.37466847 Ry
     Harris-Foulkes estimate   =    -329.37467858 Ry
     estimated scf accuracy    <       0.00018675 Ry

     iteration # 10     ecut=    30.00 Ry     beta=0.70
     Davidson diagonalization with overlap
     ethr =  2.22E-07,  avg # of iterations =  1.0

     total cpu time spent up to now is       18.8 secs

     total energy              =    -329.37466811 Ry
     Harris-Foulkes estimate   =    -329.37467188 Ry
     estimated scf accuracy    <       0.00003313 Ry

     iteration # 11     ecut=    30.00 Ry     beta=0.70
     Davidson diagonalization with overlap
     ethr =  6.02E-08,  avg # of iterations =  1.0

     total cpu time spent up to now is       18.9 secs

     total energy              =    -329.37467079 Ry
     Harris-Foulkes estimate   =    -329.37467087 Ry
     estimated scf accuracy    <       0.00000306 Ry

     iteration # 12     ecut=    30.00 Ry     beta=0.70
     Davidson diagonalization with overlap
     ethr =  5.56E-09,  avg # of iterations =  3.0

     total cpu time spent up to now is       19.0 secs

     total energy              =    -329.37467049 Ry
     Harris-Foulkes estimate   =    -329.37467099 Ry
     estimated scf accuracy    <       0.00000326 Ry

     iteration # 13     ecut=    30.00 Ry     beta=0.70
     Davidson diagonalization with overlap
     ethr =  5.56E-09,  avg # of iterations =  1.0

     total cpu time spent up to now is       19.1 secs

     total energy              =    -329.37467055 Ry
     Harris-Foulkes estimate   =    -329.37467060 Ry
     estimated scf accuracy    <       0.00000014 Ry

     iteration # 14     ecut=    30.00 Ry     beta=0.70
     Davidson diagonalization with overlap
     ethr =  2.47E-10,  avg # of iterations =  3.0

     total cpu time spent up to now is       19.2 secs

     total energy              =    -329.37467055 Ry
     Harris-Foulkes estimate   =    -329.37467057 Ry
     estimated scf accuracy    <       0.00000001 Ry

     iteration # 15     ecut=    30.00 Ry     beta=0.70
     Davidson diagonalization with overlap
     ethr =  2.30E-11,  avg # of iterations =  2.0

     total cpu time spent up to now is       19.3 secs

     End of self-consistent calculation

          k = 0.0000 0.0000 0.0000 ( 22119 PWs)   bands (ev):

    -8.7583  -7.5440  -7.3943  -7.3682  -6.8407  -6.7496  -6.5631  -6.4526
    -6.1706  -6.0040  -5.7003  -5.6719  -5.6337  -5.5397  -5.5116  -5.4245
    -5.3007  -5.1234  -4.8967  -4.8330  -4.7967  -4.2167  -4.1229  -4.0739
    -4.0180  -4.0138  -3.8144  -3.5138  -3.3249  -2.1461  -0.3173  -0.1179
     0.2645   0.5499

     the Fermi energy is    -3.6054 ev

!    total energy              =    -329.37467051 Ry
     Harris-Foulkes estimate   =    -329.37467055 Ry
     estimated scf accuracy    <          2.1E-09 Ry

     convergence has been achieved in  15 iterations

     Forces acting on atoms (Ry/au):

     atom    1 type  1   force =     0.02262207    0.01760972    0.01624066
     atom    2 type  1   force =     0.00005332   -0.01399860   -0.01652525
     atom    3 type  1   force =    -0.01806515   -0.00301051   -0.03429162
     atom    4 type  1   force =    -0.00289832    0.02447879    0.03545656
     atom    5 type  1   force =    -0.00171193   -0.02507939   -0.00088035

     Total force =     0.074589     Total SCF correction =     0.000152

     Entering Dynamics:    iteration =     6
                           time      =   0.0290 pico-seconds


     Andersen thermostat:    5 collisions

ATOMIC_POSITIONS (bohr)
Au      -2.427522187   0.792455114   0.535028076
Au      -0.603842467   4.009703053   4.113901845
Au       4.167266216   3.261192851   0.073512744
Au       4.744362522   4.407045048   4.960419914
Au       4.249806916  -0.528738065   3.372413420


     kinetic energy (Ekin) =     0.03493253 Ry
     temperature           =   919.23402199 K 
     Ekin + Etot (const)   =  -329.33973798 Ry
     Message from routine dynamics:
     Total linear momentum <> 0

     Linear momentum :    0.3400408271    0.5946666470   -0.2087801554

     Writing output data file pwscf.save

     second order wave-functions extrapolation
     Check: negative starting charge=   -0.005825
     second order charge density extrapolation
     Check: negative starting charge=   -0.005808

     negative rho (up, down):  1.673E-03 0.000E+00

     total cpu time spent up to now is       19.6 secs

     per-process dynamical memory:    25.1 Mb

     Self-consistent Calculation

     iteration #  1     ecut=    30.00 Ry     beta=0.70
     Davidson diagonalization with overlap
     ethr =  1.00E-06,  avg # of iterations =  8.0

     negative rho (up, down):  1.432E-04 0.000E+00

     total cpu time spent up to now is       19.8 secs

     total energy              =    -329.37341410 Ry
     Harris-Foulkes estimate   =    -329.37836757 Ry
     estimated scf accuracy    <       0.00868267 Ry

     iteration #  2     ecut=    30.00 Ry     beta=0.70
     Davidson diagonalization with overlap
     ethr =  1.58E-05,  avg # of iterations =  6.0

     negative rho (up, down):  6.730E-05 0.000E+00

     total cpu time spent up to now is       20.0 secs

     total energy              =    -329.37946902 Ry
     Harris-Foulkes estimate   =    -329.38797200 Ry
     estimated scf accuracy    <       0.02415464 Ry

     iteration #  3     ecut=    30.00 Ry     beta=0.70
     Davidson diagonalization with overlap
     ethr =  1.58E-05,  avg # of iterations =  5.0

     negative rho (up, down):  3.416E-05 0.000E+00

     total cpu time spent up to now is       20.2 secs

     total energy              =    -329.38244524 Ry
     Harris-Foulkes estimate   =    -329.38322882 Ry
     estimated scf accuracy    <       0.00392567 Ry

     iteration #  4     ecut=    30.00 Ry     beta=0.70
     Davidson diagonalization with overlap
     ethr =  7.14E-06,  avg # of iterations =  1.0

     negative rho (up, down):  7.455E-06 0.000E+00

     total cpu time spent up to now is       20.3 secs

     total energy              =    -329.38257680 Ry
     Harris-Foulkes estimate   =    -329.38279294 Ry
     estimated scf accuracy    <       0.00176720 Ry

     iteration #  5     ecut=    30.00 Ry     beta=0.70
     Davidson diagonalization with overlap
     ethr =  3.21E-06,  avg # of iterations =  2.0

     negative rho (up, down):  4.216E-06 0.000E+00

     total cpu time spent up to now is       20.4 secs

     total energy              =    -329.38199209 Ry
     Harris-Foulkes estimate   =    -329.38262796 Ry
     estimated scf accuracy    <       0.00221865 Ry

     iteration #  6     ecut=    30.00 Ry     beta=0.70
     Davidson diagonalization with overlap
     ethr =  3.21E-06,  avg # of iterations =  2.0

     negative rho (up, down):  4.170E-06 0.000E+00

     total cpu time spent up to now is       20.4 secs

     total energy              =    -329.38141082 Ry
     Harris-Foulkes estimate   =    -329.38140535 Ry
     estimated scf accuracy    <       0.01090736 Ry

     iteration #  7     ecut=    30.00 Ry     beta=0.70
     Davidson diagonalization with overlap
     ethr =  3.21E-06,  avg # of iterations =  1.0

     negative rho (up, down):  4.250E-06 0.000E+00

     total cpu time spent up to now is       20.5 secs

     total energy              =    -329.38139250 Ry
     Harris-Foulkes estimate   =    -329.38141335 Ry
     estimated scf accuracy    <       0.01086872 Ry

     iteration #  8     ecut=    30.00 Ry     beta=0.70
     Davidson diagonalization with overlap
     ethr =  3.21E-06,  avg # of iterations =  1.0

     negative rho (up, down):  4.011E-06 0.000E+00

     total cpu time spent up to now is       20.6 secs

     total energy              =    -329.38149187 Ry
     Harris-Foulkes estimate   =    -329.38139355 Ry
     estimated scf accuracy    <       0.01093285 Ry

     iteration #  9     ecut=    30.00 Ry     beta=0.70
     Davidson diagonalization with overlap
     ethr =  3.21E-06,  avg # of iterations =  1.0

     negative rho (up, down):  7.365E-07 0.000E+00

     total cpu time spent up to now is       20.7 secs

     total energy              =    -329.38242284 Ry
     Harris-Foulkes estimate   =    -329.38149609 Ry
     estimated scf accuracy    <       0.01055731 Ry

     iteration # 10     ecut=    30.00 Ry     beta=0.70
     Davidson diagonalization with overlap
     ethr =  3.21E-06,  avg # of iterations =  2.0

     negative rho (up, down):  1.448E-06 0.000E+00

     total cpu time spent up to now is       20.8 secs

     total energy              =    -329.38443920 Ry
     Harris-Foulkes estimate   =    -329.38243993 Ry
     estimated scf accuracy    <       0.00639346 Ry

     iteration # 11     ecut=    30.00 Ry     beta=0.70
     Davidson diagonalization with overlap
     ethr =  3.21E-06,  avg # of iterations =  2.0

     negative rho (up, down):  8.759E-07 0.000E+00

     total cpu time spent up to now is       20.9 secs

     total energy              =    -329.38375738 Ry
     Harris-Foulkes estimate   =    -329.38404884 Ry
     estimated scf accuracy    <       0.00470797 Ry

     iteration # 12     ecut=    30.00 Ry     beta=0.70
     Davidson diagonalization with overlap
     ethr =  3.21E-06,  avg # of iterations =  1.0

     negative rho (up, down):  3.567E-07 0.000E+00

     total cpu time spent up to now is       21.0 secs

     total energy              =    -329.38353966 Ry
     Harris-Foulkes estimate   =    -329.38378413 Ry
     estimated scf accuracy    <       0.00335917 Ry

     iteration # 13     ecut=    30.00 Ry     beta=0.70
     Davidson diagonalization with overlap
     ethr =  3.21E-06,  avg # of iterations =  1.0

     negative rho (up, down):  7.117E-08 0.000E+00

     total cpu time spent up to now is       21.1 secs

     total energy              =    -329.38351432 Ry
     Harris-Foulkes estimate   =    -329.38356103 Ry
     estimated scf accuracy    <       0.00235358 Ry

     iteration # 14     ecut=    30.00 Ry     beta=0.70
     Davidson diagonalization with overlap
     ethr =  3.21E-06,  avg # of iterations =  1.0

     total cpu time spent up to now is       21.2 secs

     total energy              =    -329.38340912 Ry
     Harris-Foulkes estimate   =    -329.38352905 Ry
     estimated scf accuracy    <       0.00196260 Ry

     iteration # 15     ecut=    30.00 Ry     beta=0.70
     Davidson diagonalization with overlap
     ethr =  3.21E-06,  avg # of iterations =  2.0

     total cpu time spent up to now is       21.2 secs

     total energy              =    -329.38360045 Ry
     Harris-Foulkes estimate   =    -329.38350068 Ry
     estimated scf accuracy    <       0.00161178 Ry

     iteration # 16     ecut=    30.00 Ry     beta=0.70
     Davidson diagonalization with overlap
     ethr =  2.93E-06,  avg # of iterations =  2.0

     total cpu time spent up to now is       21.3 secs

     total energy              =    -329.38487901 Ry
     Harris-Foulkes estimate   =    -329.38372225 Ry
     estimated scf accuracy    <       0.00219787 Ry

     iteration # 17     ecut=    30.00 Ry     beta=0.70
     Davidson diagonalization with overlap
     ethr =  2.93E-06,  avg # of iterations =  2.0

     total cpu time spent up to now is       21.4 secs

     total energy              =    -329.38648899 Ry
     Harris-Foulkes estimate   =    -329.38521178 Ry
     estimated scf accuracy    <       0.00800423 Ry

     iteration # 18     ecut=    30.00 Ry     beta=0.70
     Davidson diagonalization with overlap
     ethr =  2.93E-06,  avg # of iterations =  4.0

     total cpu time spent up to now is       21.5 secs

     total energy              =    -329.38277304 Ry
     Harris-Foulkes estimate   =    -329.38662042 Ry
     estimated scf accuracy    <       0.01351231 Ry

     iteration # 19     ecut=    30.00 Ry     beta=0.70
     Davidson diagonalization with overlap
     ethr =  2.93E-06,  avg # of iterations =  3.0

     total cpu time spent up to now is       21.6 secs

     total energy              =    -329.38258656 Ry
     Harris-Foulkes estimate   =    -329.38366685 Ry
     estimated scf accuracy    <       0.00211133 Ry

     iteration # 20     ecut=    30.00 Ry     beta=0.70
     Davidson diagonalization with overlap
     ethr =  2.93E-06,  avg # of iterations =  4.0

     total cpu time spent up to now is       21.8 secs

     total energy              =    -329.38282708 Ry
     Harris-Foulkes estimate   =    -329.38288928 Ry
     estimated scf accuracy    <       0.00042580 Ry

     iteration # 21     ecut=    30.00 Ry     beta=0.70
     Davidson diagonalization with overlap
     ethr =  7.74E-07,  avg # of iterations =  1.0

     total cpu time spent up to now is       21.8 secs

     total energy              =    -329.38272214 Ry
     Harris-Foulkes estimate   =    -329.38282467 Ry
     estimated scf accuracy    <       0.00054523 Ry

     iteration # 22     ecut=    30.00 Ry     beta=0.70
     Davidson diagonalization with overlap
     ethr =  7.74E-07,  avg # of iterations =  2.0

     total cpu time spent up to now is       21.9 secs

     total energy              =    -329.38233113 Ry
     Harris-Foulkes estimate   =    -329.38270022 Ry
     estimated scf accuracy    <       0.00104786 Ry

     iteration # 23     ecut=    30.00 Ry     beta=0.70
     Davidson diagonalization with overlap
     ethr =  7.74E-07,  avg # of iterations =  3.0

     total cpu time spent up to now is       22.0 secs

     total energy              =    -329.38052982 Ry
     Harris-Foulkes estimate   =    -329.38198596 Ry
     estimated scf accuracy    <       0.00667367 Ry

     iteration # 24     ecut=    30.00 Ry     beta=0.70
     Davidson diagonalization with overlap
     ethr =  7.74E-07,  avg # of iterations =  4.0

     total cpu time spent up to now is       22.1 secs

     total energy              =    -329.38116052 Ry
     Harris-Foulkes estimate   =    -329.38014709 Ry
     estimated scf accuracy    <       0.00654039 Ry

     iteration # 25     ecut=    30.00 Ry     beta=0.70
     Davidson diagonalization with overlap
     ethr =  7.74E-07,  avg # of iterations =  3.0

     total cpu time spent up to now is       22.2 secs

     total energy              =    -329.37965122 Ry
     Harris-Foulkes estimate   =    -329.38147752 Ry
     estimated scf accuracy    <       0.01030173 Ry

     iteration # 26     ecut=    30.00 Ry     beta=0.70
     Davidson diagonalization with overlap
     ethr =  7.74E-07,  avg # of iterations =  3.0

     total cpu time spent up to now is       22.3 secs

     total energy              =    -329.38065189 Ry
     Harris-Foulkes estimate   =    -329.37985340 Ry
     estimated scf accuracy    <       0.00316312 Ry

     iteration # 27     ecut=    30.00 Ry     beta=0.70
     Davidson diagonalization with overlap
     ethr =  7.74E-07,  avg # of iterations =  3.0

     total cpu time spent up to now is       22.5 secs

     total energy              =    -329.38343855 Ry
     Harris-Foulkes estimate   =    -329.38201158 Ry
     estimated scf accuracy    <       0.00649543 Ry

     iteration # 28     ecut=    30.00 Ry     beta=0.70
     Davidson diagonalization with overlap
     ethr =  7.74E-07,  avg # of iterations =  3.0

     total cpu time spent up to now is       22.6 secs

     total energy              =    -329.38277225 Ry
     Harris-Foulkes estimate   =    -329.38280929 Ry
     estimated scf accuracy    <       0.00056319 Ry

     iteration # 29     ecut=    30.00 Ry     beta=0.70
     Davidson diagonalization with overlap
     ethr =  7.74E-07,  avg # of iterations =  1.0

     total cpu time spent up to now is       22.6 secs

     total energy              =    -329.38279485 Ry
     Harris-Foulkes estimate   =    -329.38277037 Ry
     estimated scf accuracy    <       0.00072317 Ry

     iteration # 30     ecut=    30.00 Ry     beta=0.70
     Davidson diagonalization with overlap
     ethr =  7.74E-07,  avg # of iterations =  1.0

     total cpu time spent up to now is       22.7 secs

     total energy              =    -329.38280753 Ry
     Harris-Foulkes estimate   =    -329.38279393 Ry
     estimated scf accuracy    <       0.00061683 Ry

     iteration # 31     ecut=    30.00 Ry     beta=0.70
     Davidson diagonalization with overlap
     ethr =  7.74E-07,  avg # of iterations =  1.0

     total cpu time spent up to now is       22.8 secs

     total energy              =    -329.38284011 Ry
     Harris-Foulkes estimate   =    -329.38280733 Ry
     estimated scf accuracy    <       0.00057118 Ry

     iteration # 32     ecut=    30.00 Ry     beta=0.70
     Davidson diagonalization with overlap
     ethr =  7.74E-07,  avg # of iterations =  1.0

     total cpu time spent up to now is       22.9 secs

     total energy              =    -329.38284042 Ry
     Harris-Foulkes estimate   =    -329.38283847 Ry
     estimated scf accuracy    <       0.00048447 Ry

     iteration # 33     ecut=    30.00 Ry     beta=0.70
     Davidson diagonalization with overlap
     ethr =  7.74E-07,  avg # of iterations =  1.0

     total cpu time spent up to now is       23.0 secs

     total energy              =    -329.38284592 Ry
     Harris-Foulkes estimate   =    -329.38284065 Ry
     estimated scf accuracy    <       0.00047568 Ry

     iteration # 34     ecut=    30.00 Ry     beta=0.70
     Davidson diagonalization with overlap
     ethr =  7.74E-07,  avg # of iterations =  1.0

     total cpu time spent up to now is       23.1 secs

     total energy              =    -329.38287274 Ry
     Harris-Foulkes estimate   =    -329.38284595 Ry
     estimated scf accuracy    <       0.00046543 Ry

     iteration # 35     ecut=    30.00 Ry     beta=0.70
     Davidson diagonalization with overlap
     ethr =  7.74E-07,  avg # of iterations =  1.0

     total cpu time spent up to now is       23.2 secs

     total energy              =    -329.38297097 Ry
     Harris-Foulkes estimate   =    -329.38287181 Ry
     estimated scf accuracy    <       0.00041189 Ry

     iteration # 36     ecut=    30.00 Ry     beta=0.70
     Davidson diagonalization with overlap
     ethr =  7.49E-07,  avg # of iterations =  2.0

     total cpu time spent up to now is       23.3 secs

     total energy              =    -329.38314239 Ry
     Harris-Foulkes estimate   =    -329.38296755 Ry
     estimated scf accuracy    <       0.00032657 Ry

     iteration # 37     ecut=    30.00 Ry     beta=0.70
     Davidson diagonalization with overlap
     ethr =  5.94E-07,  avg # of iterations =  3.0

     total cpu time spent up to now is       23.4 secs

     total energy              =    -329.38334507 Ry
     Harris-Foulkes estimate   =    -329.38313788 Ry
     estimated scf accuracy    <       0.00048941 Ry

     iteration # 38     ecut=    30.00 Ry     beta=0.70
     Davidson diagonalization with overlap
     ethr =  5.94E-07,  avg # of iterations =  2.0

     total cpu time spent up to now is       23.5 secs

     total energy              =    -329.38334461 Ry
     Harris-Foulkes estimate   =    -329.38336976 Ry
     estimated scf accuracy    <       0.00104827 Ry

     iteration # 39     ecut=    30.00 Ry     beta=0.70
     Davidson diagonalization with overlap
     ethr =  5.94E-07,  avg # of iterations =  1.0

     total cpu time spent up to now is       23.6 secs

     total energy              =    -329.38348000 Ry
     Harris-Foulkes estimate   =    -329.38334792 Ry
     estimated scf accuracy    <       0.00100553 Ry

     iteration # 40     ecut=    30.00 Ry     beta=0.70
     Davidson diagonalization with overlap
     ethr =  5.94E-07,  avg # of iterations =  1.0

     total cpu time spent up to now is       23.7 secs

     total energy              =    -329.38259432 Ry
     Harris-Foulkes estimate   =    -329.38348814 Ry
     estimated scf accuracy    <       0.00139562 Ry

     iteration # 41     ecut=    30.00 Ry     beta=0.70
     Davidson diagonalization with overlap
     ethr =  5.94E-07,  avg # of iterations =  4.0

     total cpu time spent up to now is       23.8 secs

     total energy              =    -329.38204708 Ry
     Harris-Foulkes estimate   =    -329.38270901 Ry
     estimated scf accuracy    <       0.00098281 Ry

     iteration # 42     ecut=    30.00 Ry     beta=0.70
     Davidson diagonalization with overlap
     ethr =  5.94E-07,  avg # of iterations =  4.0

     total cpu time spent up to now is       23.9 secs

     total energy              =    -329.38333849 Ry
     Harris-Foulkes estimate   =    -329.38034374 Ry
     estimated scf accuracy    <       0.00920944 Ry

     iteration # 43     ecut=    30.00 Ry     beta=0.70
     Davidson diagonalization with overlap
     ethr =  5.94E-07,  avg # of iterations =  4.0

     total cpu time spent up to now is       24.0 secs

     total energy              =    -329.38211091 Ry
     Harris-Foulkes estimate   =    -329.38271841 Ry
     estimated scf accuracy    <       0.00095797 Ry

     iteration # 44     ecut=    30.00 Ry     beta=0.70
     Davidson diagonalization with overlap
     ethr =  5.94E-07,  avg # of iterations =  4.0

     total cpu time spent up to now is       24.1 secs

     total energy              =    -329.38095088 Ry
     Harris-Foulkes estimate   =    -329.38061983 Ry
     estimated scf accuracy    <       0.01071350 Ry

     iteration # 45     ecut=    30.00 Ry     beta=0.70
     Davidson diagonalization with overlap
     ethr =  5.94E-07,  avg # of iterations =  1.0

     total cpu time spent up to now is       24.2 secs

     total energy              =    -329.38333913 Ry
     Harris-Foulkes estimate   =    -329.38096233 Ry
     estimated scf accuracy    <       0.01156278 Ry

     iteration # 46     ecut=    30.00 Ry     beta=0.70
     Davidson diagonalization with overlap
     ethr =  5.94E-07,  avg # of iterations =  3.0

     total cpu time spent up to now is       24.3 secs

     total energy              =    -329.38344709 Ry
     Harris-Foulkes estimate   =    -329.38262529 Ry
     estimated scf accuracy    <       0.00150293 Ry

     iteration # 47     ecut=    30.00 Ry     beta=0.70
     Davidson diagonalization with overlap
     ethr =  5.94E-07,  avg # of iterations =  3.0

[...]
     estimated scf accuracy    <       0.00196070 Ry

     iteration #274     ecut=    30.00 Ry     beta=0.70
     Davidson diagonalization with overlap
     ethr =  5.11E-07,  avg # of iterations =  2.0

     total cpu time spent up to now is       46.4 secs

     total energy              =    -329.38280668 Ry
     Harris-Foulkes estimate   =    -329.38333192 Ry
     estimated scf accuracy    <       0.00098645 Ry

     iteration #275     ecut=    30.00 Ry     beta=0.70
     Davidson diagonalization with overlap
     ethr =  5.11E-07,  avg # of iterations =  3.0

     total cpu time spent up to now is       46.6 secs

     total energy              =    -329.38284038 Ry
     Harris-Foulkes estimate   =    -329.38287887 Ry
     estimated scf accuracy    <       0.00038853 Ry

     iteration #276     ecut=    30.00 Ry     beta=0.70
     Davidson diagonalization with overlap
     ethr =  5.11E-07,  avg # of iterations =  1.0

     total cpu time spent up to now is       46.7 secs

     total energy              =    -329.38271682 Ry
     Harris-Foulkes estimate   =    -329.38283808 Ry
     estimated scf accuracy    <       0.00049457 Ry

     iteration #277     ecut=    30.00 Ry     beta=0.70
     Davidson diagonalization with overlap
     ethr =  5.11E-07,  avg # of iterations =  2.0

     total cpu time spent up to now is       46.8 secs

     total energy              =    -329.38232019 Ry
     Harris-Foulkes estimate   =    -329.38267652 Ry
     estimated scf accuracy    <       0.00114956 Ry

     iteration #278     ecut=    30.00 Ry     beta=0.70
     Davidson diagonalization with overlap
     ethr =  5.11E-07,  avg # of iterations =  4.0

     total cpu time spent up to now is       46.9 secs

     total energy              =    -329.38095637 Ry
     Harris-Foulkes estimate   =    -329.38203075 Ry
     estimated scf accuracy    <       0.00629429 Ry

     iteration #279     ecut=    30.00 Ry     beta=0.70
     Davidson diagonalization with overlap
     ethr =  5.11E-07,  avg # of iterations =  3.0

     total cpu time spent up to now is       47.0 secs

     total energy              =    -329.38173842 Ry
     Harris-Foulkes estimate   =    -329.38061835 Ry
     estimated scf accuracy    <       0.01081000 Ry

     iteration #280     ecut=    30.00 Ry     beta=0.70
     Davidson diagonalization with overlap
     ethr =  5.11E-07,  avg # of iterations =  3.0

     total cpu time spent up to now is       47.1 secs

     total energy              =    -329.38341472 Ry
     Harris-Foulkes estimate   =    -329.38173865 Ry
     estimated scf accuracy    <       0.00864028 Ry

     iteration #281     ecut=    30.00 Ry     beta=0.70
     Davidson diagonalization with overlap
     ethr =  5.11E-07,  avg # of iterations =  3.0

     total cpu time spent up to now is       47.2 secs

     total energy              =    -329.38274745 Ry
     Harris-Foulkes estimate   =    -329.38273772 Ry
     estimated scf accuracy    <       0.00083143 Ry

     iteration #282     ecut=    30.00 Ry     beta=0.70
     Davidson diagonalization with overlap
     ethr =  5.11E-07,  avg # of iterations =  1.0

     total cpu time spent up to now is       47.3 secs

     total energy              =    -329.38307706 Ry
     Harris-Foulkes estimate   =    -329.38274803 Ry
     estimated scf accuracy    <       0.00078425 Ry

     iteration #283     ecut=    30.00 Ry     beta=0.70
     Davidson diagonalization with overlap
     ethr =  5.11E-07,  avg # of iterations =  3.0

     total cpu time spent up to now is       47.4 secs

     total energy              =    -329.38297955 Ry
     Harris-Foulkes estimate   =    -329.38296748 Ry
     estimated scf accuracy    <       0.00029429 Ry

     iteration #284     ecut=    30.00 Ry     beta=0.70
     Davidson diagonalization with overlap
     ethr =  5.11E-07,  avg # of iterations =  1.0

     total cpu time spent up to now is       47.5 secs

     total energy              =    -329.38300913 Ry
     Harris-Foulkes estimate   =    -329.38297967 Ry
     estimated scf accuracy    <       0.00028721 Ry

     iteration #285     ecut=    30.00 Ry     beta=0.70
     Davidson diagonalization with overlap
     ethr =  5.11E-07,  avg # of iterations =  1.0

     total cpu time spent up to now is       47.6 secs

     total energy              =    -329.38304245 Ry
     Harris-Foulkes estimate   =    -329.38300868 Ry
     estimated scf accuracy    <       0.00029375 Ry

     iteration #286     ecut=    30.00 Ry     beta=0.70
     Davidson diagonalization with overlap
     ethr =  5.11E-07,  avg # of iterations =  1.0

     total cpu time spent up to now is       47.7 secs

     total energy              =    -329.38306900 Ry
     Harris-Foulkes estimate   =    -329.38304221 Ry
     estimated scf accuracy    <       0.00031365 Ry

     iteration #287     ecut=    30.00 Ry     beta=0.70
     Davidson diagonalization with overlap
     ethr =  5.11E-07,  avg # of iterations =  1.0

     total cpu time spent up to now is       47.8 secs

     total energy              =    -329.38335647 Ry
     Harris-Foulkes estimate   =    -329.38306956 Ry
     estimated scf accuracy    <       0.00034368 Ry

     iteration #288     ecut=    30.00 Ry     beta=0.70
     Davidson diagonalization with overlap
     ethr =  5.11E-07,  avg # of iterations =  3.0

     total cpu time spent up to now is       47.9 secs

     total energy              =    -329.38287196 Ry
     Harris-Foulkes estimate   =    -329.38339440 Ry
     estimated scf accuracy    <       0.00114704 Ry

     iteration #289     ecut=    30.00 Ry     beta=0.70
     Davidson diagonalization with overlap
     ethr =  5.11E-07,  avg # of iterations =  3.0

     total cpu time spent up to now is       48.0 secs

     total energy              =    -329.38299831 Ry
     Harris-Foulkes estimate   =    -329.38296445 Ry
     estimated scf accuracy    <       0.00029802 Ry

     iteration #290     ecut=    30.00 Ry     beta=0.70
     Davidson diagonalization with overlap
     ethr =  5.11E-07,  avg # of iterations =  1.0

     total cpu time spent up to now is       48.0 secs

     total energy              =    -329.38302874 Ry
     Harris-Foulkes estimate   =    -329.38299774 Ry
     estimated scf accuracy    <       0.00029112 Ry

     iteration #291     ecut=    30.00 Ry     beta=0.70
     Davidson diagonalization with overlap
     ethr =  5.11E-07,  avg # of iterations =  1.0

     total cpu time spent up to now is       48.1 secs

     total energy              =    -329.38283582 Ry
     Harris-Foulkes estimate   =    -329.38302853 Ry
     estimated scf accuracy    <       0.00030588 Ry

     iteration #292     ecut=    30.00 Ry     beta=0.70
     Davidson diagonalization with overlap
     ethr =  5.11E-07,  avg # of iterations =  3.0

     total cpu time spent up to now is       48.2 secs

     total energy              =    -329.38249982 Ry
     Harris-Foulkes estimate   =    -329.38271542 Ry
     estimated scf accuracy    <       0.00093795 Ry

     iteration #293     ecut=    30.00 Ry     beta=0.70
     Davidson diagonalization with overlap
     ethr =  5.11E-07,  avg # of iterations =  2.0

     total cpu time spent up to now is       48.3 secs

     total energy              =    -329.38322035 Ry
     Harris-Foulkes estimate   =    -329.38239483 Ry
     estimated scf accuracy    <       0.00312859 Ry

     iteration #294     ecut=    30.00 Ry     beta=0.70
     Davidson diagonalization with overlap
     ethr =  5.11E-07,  avg # of iterations =  3.0

     total cpu time spent up to now is       48.4 secs

     total energy              =    -329.38287636 Ry
     Harris-Foulkes estimate   =    -329.38286665 Ry
     estimated scf accuracy    <       0.00040385 Ry

     iteration #295     ecut=    30.00 Ry     beta=0.70
     Davidson diagonalization with overlap
     ethr =  5.11E-07,  avg # of iterations =  1.0

     total cpu time spent up to now is       48.5 secs

     total energy              =    -329.38289978 Ry
     Harris-Foulkes estimate   =    -329.38287659 Ry
     estimated scf accuracy    <       0.00038199 Ry

     iteration #296     ecut=    30.00 Ry     beta=0.70
     Davidson diagonalization with overlap
     ethr =  5.11E-07,  avg # of iterations =  1.0

     total cpu time spent up to now is       48.6 secs

     total energy              =    -329.38297246 Ry
     Harris-Foulkes estimate   =    -329.38289900 Ry
     estimated scf accuracy    <       0.00034673 Ry

     iteration #297     ecut=    30.00 Ry     beta=0.70
     Davidson diagonalization with overlap
     ethr =  5.11E-07,  avg # of iterations =  1.0

     total cpu time spent up to now is       48.7 secs

     total energy              =    -329.38303938 Ry
     Harris-Foulkes estimate   =    -329.38296462 Ry
     estimated scf accuracy    <       0.00028837 Ry

     iteration #298     ecut=    30.00 Ry     beta=0.70
     Davidson diagonalization with overlap
     ethr =  5.11E-07,  avg # of iterations =  2.0

     total cpu time spent up to now is       48.8 secs

     total energy              =    -329.38311183 Ry
     Harris-Foulkes estimate   =    -329.38303634 Ry
     estimated scf accuracy    <       0.00032095 Ry

     iteration #299     ecut=    30.00 Ry     beta=0.70
     Davidson diagonalization with overlap
     ethr =  5.11E-07,  avg # of iterations =  1.0

     total cpu time spent up to now is       48.9 secs

     total energy              =    -329.38313736 Ry
     Harris-Foulkes estimate   =    -329.38311196 Ry
     estimated scf accuracy    <       0.00041546 Ry

     iteration #300     ecut=    30.00 Ry     beta=0.70
     Davidson diagonalization with overlap
     ethr =  5.11E-07,  avg # of iterations =  1.0

     total cpu time spent up to now is       49.0 secs

     total energy              =    -329.38317716 Ry
     Harris-Foulkes estimate   =    -329.38313861 Ry
     estimated scf accuracy    <       0.00046228 Ry

     iteration #301     ecut=    30.00 Ry     beta=0.70
     Davidson diagonalization with overlap
     ethr =  5.11E-07,  avg # of iterations =  1.0

     total cpu time spent up to now is       49.1 secs

     total energy              =    -329.38288756 Ry
     Harris-Foulkes estimate   =    -329.38317875 Ry
     estimated scf accuracy    <       0.00054877 Ry

     iteration #302     ecut=    30.00 Ry     beta=0.70
     Davidson diagonalization with overlap
     ethr =  5.11E-07,  avg # of iterations =  3.0

     total cpu time spent up to now is       49.2 secs

     total energy              =    -329.38256705 Ry
     Harris-Foulkes estimate   =    -329.38287617 Ry
     estimated scf accuracy    <       0.00039446 Ry

     iteration #303     ecut=    30.00 Ry     beta=0.70
     Davidson diagonalization with overlap
     ethr =  5.11E-07,  avg # of iterations =  4.0

     total cpu time spent up to now is       49.3 secs

     total energy              =    -329.38161796 Ry
     Harris-Foulkes estimate   =    -329.38082626 Ry
     estimated scf accuracy    <       0.01161396 Ry

     iteration #304     ecut=    30.00 Ry     beta=0.70
     Davidson diagonalization with overlap
     ethr =  5.11E-07,  avg # of iterations =  2.0

     total cpu time spent up to now is       49.4 secs

     total energy              =    -329.38781311 Ry
     Harris-Foulkes estimate   =    -329.38159627 Ry
     estimated scf accuracy    <       0.00966345 Ry

     iteration #305     ecut=    30.00 Ry     beta=0.70
     Davidson diagonalization with overlap
     ethr =  5.11E-07,  avg # of iterations =  5.0

     total cpu time spent up to now is       49.5 secs

     total energy              =    -329.38373896 Ry
     Harris-Foulkes estimate   =    -329.38365056 Ry
     estimated scf accuracy    <       0.00202906 Ry

     iteration #306     ecut=    30.00 Ry     beta=0.70
     Davidson diagonalization with overlap
     ethr =  5.11E-07,  avg # of iterations =  1.0

     total cpu time spent up to now is       49.6 secs

     total energy              =    -329.38373249 Ry
     Harris-Foulkes estimate   =    -329.38374118 Ry
     estimated scf accuracy    <       0.00233268 Ry

     iteration #307     ecut=    30.00 Ry     beta=0.70
     Davidson diagonalization with overlap
     ethr =  5.11E-07,  avg # of iterations =  1.0

     total cpu time spent up to now is       49.7 secs

     total energy              =    -329.38396678 Ry
     Harris-Foulkes estimate   =    -329.38373264 Ry
     estimated scf accuracy    <       0.00231250 Ry

     iteration #308     ecut=    30.00 Ry     beta=0.70
     Davidson diagonalization with overlap
     ethr =  5.11E-07,  avg # of iterations =  2.0

     total cpu time spent up to now is       49.8 secs

     total energy              =    -329.38372456 Ry
     Harris-Foulkes estimate   =    -329.38398036 Ry
     estimated scf accuracy    <       0.00322114 Ry

     iteration #309     ecut=    30.00 Ry     beta=0.70
     Davidson diagonalization with overlap
     ethr =  5.11E-07,  avg # of iterations =  2.0

     total cpu time spent up to now is       49.9 secs

     total energy              =    -329.38394014 Ry
     Harris-Foulkes estimate   =    -329.38373685 Ry
     estimated scf accuracy    <       0.00237619 Ry

     iteration #310     ecut=    30.00 Ry     beta=0.70
     Davidson diagonalization with overlap
     ethr =  5.11E-07,  avg # of iterations =  1.0

     total cpu time spent up to now is       50.0 secs

     total energy              =    -329.38265582 Ry
     Harris-Foulkes estimate   =    -329.38394868 Ry
     estimated scf accuracy    <       0.00308413 Ry

     iteration #311     ecut=    30.00 Ry     beta=0.70
     Davidson diagonalization with overlap
     ethr =  5.11E-07,  avg # of iterations =  3.0

     total cpu time spent up to now is       50.2 secs

     total energy              =    -329.38341141 Ry
     Harris-Foulkes estimate   =    -329.38302088 Ry
     estimated scf accuracy    <       0.00031641 Ry

     iteration #312     ecut=    30.00 Ry     beta=0.70
     Davidson diagonalization with overlap
     ethr =  5.11E-07,  avg # of iterations =  3.0

     total cpu time spent up to now is       50.3 secs

     total energy              =    -329.38304516 Ry
     Harris-Foulkes estimate   =    -329.38344968 Ry
     estimated scf accuracy    <       0.00133150 Ry

     iteration #313     ecut=    30.00 Ry     beta=0.70
     Davidson diagonalization with overlap
     ethr =  5.11E-07,  avg # of iterations =  3.0

     total cpu time spent up to now is       50.4 secs

     total energy              =    -329.38284081 Ry
     Harris-Foulkes estimate   =    -329.38310514 Ry
     estimated scf accuracy    <       0.00042591 Ry

     iteration #314     ecut=    30.00 Ry     beta=0.70
     Davidson diagonalization with overlap
     ethr =  5.11E-07,  avg # of iterations =  3.0

     total cpu time spent up to now is       50.5 secs

     total energy              =    -329.38242730 Ry
     Harris-Foulkes estimate   =    -329.38275979 Ry
     estimated scf accuracy    <       0.00075049 Ry

     iteration #315     ecut=    30.00 Ry     beta=0.70
     Davidson diagonalization with overlap
     ethr =  5.11E-07,  avg # of iterations =  3.0

     total cpu time spent up to now is       50.6 secs

     total energy              =    -329.38391792 Ry
     Harris-Foulkes estimate   =    -329.38202662 Ry
     estimated scf accuracy    <       0.00631933 Ry

     iteration #316     ecut=    30.00 Ry     beta=0.70
     Davidson diagonalization with overlap
     ethr =  5.11E-07,  avg # of iterations =  3.0

     total cpu time spent up to now is       50.7 secs

     total energy              =    -329.38297166 Ry
     Harris-Foulkes estimate   =    -329.38291899 Ry
     estimated scf accuracy    <       0.00032268 Ry

     iteration #317     ecut=    30.00 Ry     beta=0.70
     Davidson diagonalization with overlap
     ethr =  5.11E-07,  avg # of iterations =  1.0

     total cpu time spent up to now is       50.8 secs

     total energy              =    -329.38296644 Ry
     Harris-Foulkes estimate   =    -329.38296804 Ry
     estimated scf accuracy    <       0.00028568 Ry

     iteration #318     ecut=    30.00 Ry     beta=0.70
     Davidson diagonalization with overlap
     ethr =  5.11E-07,  avg # of iterations =  1.0

     total cpu time spent up to now is       50.9 secs

     total energy              =    -329.38304488 Ry
     Harris-Foulkes estimate   =    -329.38296686 Ry
     estimated scf accuracy    <       0.00029120 Ry

     iteration #319     ecut=    30.00 Ry     beta=0.70
     Davidson diagonalization with overlap
     ethr =  5.11E-07,  avg # of iterations =  2.0

     total cpu time spent up to now is       51.0 secs

     total energy              =    -329.38313861 Ry
     Harris-Foulkes estimate   =    -329.38304088 Ry
     estimated scf accuracy    <       0.00032261 Ry

     iteration #320     ecut=    30.00 Ry     beta=0.70
     Davidson diagonalization with overlap
     ethr =  5.11E-07,  avg # of iterations =  2.0

     total cpu time spent up to now is       51.1 secs

     total energy              =    -329.38317009 Ry
     Harris-Foulkes estimate   =    -329.38314137 Ry
     estimated scf accuracy    <       0.00048630 Ry

     iteration #321     ecut=    30.00 Ry     beta=0.70
     Davidson diagonalization with overlap
     ethr =  5.11E-07,  avg # of iterations =  1.0

     total cpu time spent up to now is       51.1 secs

     total energy              =    -329.38322962 Ry
     Harris-Foulkes estimate   =    -329.38317064 Ry
     estimated scf accuracy    <       0.00054287 Ry

     iteration #322     ecut=    30.00 Ry     beta=0.70
     Davidson diagonalization with overlap
     ethr =  5.11E-07,  avg # of iterations =  1.0

     total cpu time spent up to now is       51.2 secs

     total energy              =    -329.38319960 Ry
     Harris-Foulkes estimate   =    -329.38323151 Ry
     estimated scf accuracy    <       0.00068404 Ry

     iteration #323     ecut=    30.00 Ry     beta=0.70
     Davidson diagonalization with overlap
     ethr =  5.11E-07,  avg # of iterations =  1.0

     total cpu time spent up to now is       51.3 secs

     total energy              =    -329.38318904 Ry
     Harris-Foulkes estimate   =    -329.38320006 Ry
     estimated scf accuracy    <       0.00062617 Ry

     iteration #324     ecut=    30.00 Ry     beta=0.70
     Davidson diagonalization with overlap
     ethr =  5.11E-07,  avg # of iterations =  1.0

     total cpu time spent up to now is       51.4 secs

     total energy              =    -329.38275203 Ry
     Harris-Foulkes estimate   =    -329.38318921 Ry
     estimated scf accuracy    <       0.00059820 Ry

     iteration #325     ecut=    30.00 Ry     beta=0.70
     Davidson diagonalization with overlap
     ethr =  5.11E-07,  avg # of iterations =  4.0

     total cpu time spent up to now is       51.5 secs

     total energy              =    -329.38224192 Ry
     Harris-Foulkes estimate   =    -329.38249835 Ry
     estimated scf accuracy    <       0.00231260 Ry

     iteration #326     ecut=    30.00 Ry     beta=0.70
     Davidson diagonalization with overlap
     ethr =  5.11E-07,  avg # of iterations =  2.0

     total cpu time spent up to now is       51.6 secs

     total energy              =    -329.38453498 Ry
     Harris-Foulkes estimate   =    -329.38217010 Ry
     estimated scf accuracy    <       0.00509902 Ry

     iteration #327     ecut=    30.00 Ry     beta=0.70
     Davidson diagonalization with overlap
     ethr =  5.11E-07,  avg # of iterations =  4.0

     total cpu time spent up to now is       51.7 secs

     total energy              =    -329.38363451 Ry
     Harris-Foulkes estimate   =    -329.38308787 Ry
     estimated scf accuracy    <       0.00039600 Ry

     iteration #328     ecut=    30.00 Ry     beta=0.70
     Davidson diagonalization with overlap
