
     Program PWSCF v.6.0 (svn rev. 13079) starts on 19Apr2018 at 20:37:19 

     This program is part of the open-source Quantum ESPRESSO suite
     for quantum simulation of materials; please cite
         "P. Giannozzi et al., J. Phys.:Condens. Matter 21 395502 (2009);
          URL http://www.quantum-espresso.org", 
     in publications or presentations arising from this work. More details at
     http://www.quantum-espresso.org/quote

     Parallel version (MPI), running on    28 processors
     R & G space division:  proc/nbgrp/npool/nimage =      28
     Reading input from ../H2O-4000.in

     Current dimensions of program PWSCF are:
     Max number of different atomic species (ntypx) = 10
     Max number of k-points (npk) =  40000
     Max angular momentum in pseudopotentials (lmaxx) =  3

     Subspace diagonalization in iterative solution of the eigenvalue problem:
     a serial algorithm will be used

 
     Parallelization info
     --------------------
     sticks:   dense  smooth     PW     G-vecs:    dense   smooth      PW
     Min         273     273     67                17945    17945    2235
     Max         274     274     68                17950    17950    2240
     Sum        7645    7645   1901               502479   502479   62669
 


     bravais-lattice index     =            1
     lattice parameter (alat)  =      20.0000  a.u.
     unit-cell volume          =    8000.0000 (a.u.)^3
     number of atoms/cell      =            3
     number of atomic types    =            2
     number of electrons       =         8.00
     number of Kohn-Sham states=            8
     kinetic-energy cutoff     =      60.0000  Ry
     charge density cutoff     =     240.0000  Ry
     convergence threshold     =      1.0E-08
     mixing beta               =       0.7000
     number of iterations used =            8  plain     mixing
     Exchange-correlation      = BLYP ( 1  3  1  3 0 0)
     nstep                     =         1000


     celldm(1)=  20.000000  celldm(2)=   0.000000  celldm(3)=   0.000000
     celldm(4)=   0.000000  celldm(5)=   0.000000  celldm(6)=   0.000000

     crystal axes: (cart. coord. in units of alat)
               a(1) = (   1.000000   0.000000   0.000000 )  
               a(2) = (   0.000000   1.000000   0.000000 )  
               a(3) = (   0.000000   0.000000   1.000000 )  

     reciprocal axes: (cart. coord. in units 2 pi/alat)
               b(1) = (  1.000000  0.000000  0.000000 )  
               b(2) = (  0.000000  1.000000  0.000000 )  
               b(3) = (  0.000000  0.000000  1.000000 )  


     PseudoPot. # 1 for  H read from file:
     ./H.blyp-hgh.UPF
     MD5 check sum: c576e69559cde411e611be972c763230
     Pseudo is Norm-conserving, Zval =  1.0
     Generated in analytical, separable form
     Using radial grid of  929 points,  0 beta functions with: 

     PseudoPot. # 2 for  O read from file:
     ./O.blyp-hgh.UPF
     MD5 check sum: d0b7156309aa9befef28faac7bc56342
     Pseudo is Norm-conserving, Zval =  6.0
     Generated in analytical, separable form
     Using radial grid of 1095 points,  1 beta functions with: 
                l(1) =   0

     atomic species   valence    mass     pseudopotential
        H              1.00     1.01000      H( 1.00)
        O              6.00    16.00000      O( 1.00)

     No symmetry found



   Cartesian axes

     site n.     atom                  positions (alat units)
         1           O   tau(   1) = (   0.0000000   0.0000000   0.0112686  )
         2           H   tau(   2) = (   0.0000000   0.0721156  -0.0450744  )
         3           H   tau(   3) = (   0.0000000  -0.0721156  -0.0450744  )

     number of k points=     1  Marzari-Vanderbilt smearing, width (Ry)=  0.0250
                       cart. coord. in units 2pi/alat
        k(    1) = (   0.0000000   0.0000000   0.0000000), wk =   2.0000000

     Dense  grid:   502479 G-vectors     FFT dimensions: ( 100, 100, 100)

     Estimated max dynamical RAM per process >      17.25Mb

     Estimated total allocated dynamical RAM >     483.03Mb

     Initial potential from superposition of free atoms
     Check: negative starting charge=   -0.071145

     starting charge    7.99998, renormalised to    8.00000

     negative rho (up, down):  7.115E-02 0.000E+00
     Starting wfc are    6 randomized atomic wfcs +    2 random wfc

     total cpu time spent up to now is        0.4 secs

     per-process dynamical memory:    30.5 Mb

     Self-consistent Calculation

     iteration #  1     ecut=    60.00 Ry     beta=0.70
     Davidson diagonalization with overlap
     ethr =  1.00E-02,  avg # of iterations =  8.0

     negative rho (up, down):  2.059E-02 0.000E+00

     total cpu time spent up to now is        0.6 secs

     total energy              =     -33.66095752 Ry
     Harris-Foulkes estimate   =     -33.73037087 Ry
     estimated scf accuracy    <       0.20731731 Ry

     iteration #  2     ecut=    60.00 Ry     beta=0.70
     Davidson diagonalization with overlap
     ethr =  2.59E-03,  avg # of iterations =  2.0

     negative rho (up, down):  1.160E-02 0.000E+00

     total cpu time spent up to now is        0.7 secs

     total energy              =     -33.69154141 Ry
     Harris-Foulkes estimate   =     -33.75067961 Ry
     estimated scf accuracy    <       0.13672646 Ry

     iteration #  3     ecut=    60.00 Ry     beta=0.70
     Davidson diagonalization with overlap
     ethr =  1.71E-03,  avg # of iterations =  2.0

     negative rho (up, down):  2.425E-04 0.000E+00

     total cpu time spent up to now is        0.7 secs

     total energy              =     -33.73645651 Ry
     Harris-Foulkes estimate   =     -33.72668477 Ry
     estimated scf accuracy    <       0.00681938 Ry

     iteration #  4     ecut=    60.00 Ry     beta=0.70
     Davidson diagonalization with overlap
     ethr =  8.52E-05,  avg # of iterations =  8.0

     negative rho (up, down):  2.472E-04 0.000E+00

     total cpu time spent up to now is        0.9 secs

     total energy              =     -33.73796938 Ry
     Harris-Foulkes estimate   =     -33.73799256 Ry
     estimated scf accuracy    <       0.00005665 Ry

     iteration #  5     ecut=    60.00 Ry     beta=0.70
     Davidson diagonalization with overlap
     ethr =  7.08E-07,  avg # of iterations = 12.0

     negative rho (up, down):  1.549E-05 0.000E+00

     total cpu time spent up to now is        1.0 secs

     total energy              =     -33.73797920 Ry
     Harris-Foulkes estimate   =     -33.73798342 Ry
     estimated scf accuracy    <       0.00000504 Ry

     iteration #  6     ecut=    60.00 Ry     beta=0.70
     Davidson diagonalization with overlap
     ethr =  6.29E-08,  avg # of iterations = 10.0

     total cpu time spent up to now is        1.1 secs

     total energy              =     -33.74205619 Ry
     Harris-Foulkes estimate   =     -33.74205731 Ry
     estimated scf accuracy    <       0.00000017 Ry

     iteration #  7     ecut=    60.00 Ry     beta=0.70
     Davidson diagonalization with overlap
     ethr =  2.09E-09,  avg # of iterations =  2.0

     total cpu time spent up to now is        1.1 secs

     End of self-consistent calculation

          k = 0.0000 0.0000 0.0000 ( 62669 PWs)   bands (ev):

   -25.4812 -12.9157  -9.2080  -7.0609  -0.9110   0.4220   0.7968   1.1102

     the Fermi energy is    -5.1975 ev

!    total energy              =     -33.74205615 Ry
     Harris-Foulkes estimate   =     -33.74205623 Ry
     estimated scf accuracy    <          9.0E-09 Ry

     convergence has been achieved in   7 iterations

     Forces acting on atoms (Ry/au):

     atom    1 type  2   force =     0.00000338    0.00000165    0.05215122
     atom    2 type  1   force =    -0.00000165    0.02843773   -0.02607547
     atom    3 type  1   force =    -0.00000173   -0.02843938   -0.02607575

     Total force =     0.075479     Total SCF correction =     0.000161

     Molecular Dynamics Calculation

     Starting temperature  =  4000.00 K

     temperature is controlled by Andersen thermostat
     Collision frequency = 1.0000/timestep
     mass H                =     1.01
     mass O                =    16.00
     Time step             =    10.00 a.u.,  0.4838 femto-seconds

     Entering Dynamics:    iteration =     1
                           time      =   0.0005 pico-seconds


     Andersen thermostat:    3 collisions

ATOMIC_POSITIONS (angstrom)
O        0.000839305  -0.001237812   0.123644308
H       -0.041569497   0.718594130  -0.488880104
H        0.028273574  -0.698985229  -0.534636591


     kinetic energy (Ekin) =     0.20560562 Ry
     temperature           = 10820.84045843 K 
     Ekin + Etot (const)   =   -33.53645052 Ry

     Linear momentum :    0.0000000000   -0.0000000000    0.0000000000

     Writing output data file pwscf.save
     Check: negative starting charge=   -0.071145
     NEW-OLD atomic charge density approx. for the potential
     Check: negative starting charge=   -0.071284

     negative rho (up, down):  6.340E-03 0.000E+00

     total cpu time spent up to now is        1.6 secs

     per-process dynamical memory:    32.7 Mb

     Self-consistent Calculation

     iteration #  1     ecut=    60.00 Ry     beta=0.70
     Davidson diagonalization with overlap
     c_bands:  1 eigenvalues not converged
     ethr =  1.00E-06,  avg # of iterations = 20.0

     negative rho (up, down):  1.509E-03 0.000E+00

     total cpu time spent up to now is        1.9 secs

     total energy              =     -33.73119198 Ry
     Harris-Foulkes estimate   =     -33.72599157 Ry
     estimated scf accuracy    <       0.00132651 Ry

     iteration #  2     ecut=    60.00 Ry     beta=0.70
     Davidson diagonalization with overlap
     ethr =  1.66E-05,  avg # of iterations = 14.0

     negative rho (up, down):  5.710E-04 0.000E+00

     total cpu time spent up to now is        2.0 secs

     total energy              =     -33.73153418 Ry
     Harris-Foulkes estimate   =     -33.73146773 Ry
     estimated scf accuracy    <       0.00031366 Ry

     iteration #  3     ecut=    60.00 Ry     beta=0.70
     Davidson diagonalization with overlap
     ethr =  3.92E-06,  avg # of iterations = 10.0

     negative rho (up, down):  3.599E-05 0.000E+00

     total cpu time spent up to now is        2.1 secs

     total energy              =     -33.73161708 Ry
     Harris-Foulkes estimate   =     -33.73165309 Ry
     estimated scf accuracy    <       0.00010038 Ry

     iteration #  4     ecut=    60.00 Ry     beta=0.70
     Davidson diagonalization with overlap
     c_bands:  1 eigenvalues not converged
     ethr =  1.25E-06,  avg # of iterations = 20.0

     total cpu time spent up to now is        2.2 secs

     total energy              =     -33.73163872 Ry
     Harris-Foulkes estimate   =     -33.73163712 Ry
     estimated scf accuracy    <       0.00000097 Ry

     iteration #  5     ecut=    60.00 Ry     beta=0.70
     Davidson diagonalization with overlap
     c_bands:  1 eigenvalues not converged
     ethr =  1.21E-08,  avg # of iterations = 20.0

     total cpu time spent up to now is        2.4 secs

     total energy              =     -33.73163911 Ry
     Harris-Foulkes estimate   =     -33.73163902 Ry
     estimated scf accuracy    <       0.00000002 Ry

     iteration #  6     ecut=    60.00 Ry     beta=0.70
     Davidson diagonalization with overlap
     ethr =  2.37E-10,  avg # of iterations = 12.0

     total cpu time spent up to now is        2.5 secs

     End of self-consistent calculation

          k = 0.0000 0.0000 0.0000 ( 62669 PWs)   bands (ev):

   -25.8070 -12.6590  -9.6255  -7.1252  -0.8931   0.4234   0.8447   1.1080

     the Fermi energy is    -6.8119 ev

!    total energy              =     -33.73163906 Ry
     Harris-Foulkes estimate   =     -33.73163911 Ry
     estimated scf accuracy    <          1.0E-09 Ry

     convergence has been achieved in   6 iterations

     Forces acting on atoms (Ry/au):

     atom    1 type  2   force =     0.00204107   -0.02302963    0.06553464
     atom    2 type  1   force =    -0.00484280    0.08647630   -0.04011925
     atom    3 type  1   force =     0.00280173   -0.06344666   -0.02541539

     Total force =     0.136454     Total SCF correction =     0.000031

     Entering Dynamics:    iteration =     2
                           time      =   0.0010 pico-seconds


     Andersen thermostat:    3 collisions

ATOMIC_POSITIONS (angstrom)
O        0.001377937  -0.003642982   0.121325507
H       -0.030368093   0.742973388  -0.491688442
H        0.008539396  -0.685262777  -0.495094771


     kinetic energy (Ekin) =     0.05768930 Ry
     temperature           =  3036.13658900 K 
     Ekin + Etot (const)   =   -33.67394975 Ry
     Message from routine dynamics:
     Total linear momentum <> 0

     Linear momentum :   -0.3494233441    0.6917299470    0.1207827675

     Writing output data file pwscf.save

     first order wave-functions extrapolation
     Check: negative starting charge=   -0.071284
     first order charge density extrapolation
     Check: negative starting charge=   -0.071259

     negative rho (up, down):  9.022E-03 0.000E+00

     total cpu time spent up to now is        3.0 secs

     per-process dynamical memory:    32.7 Mb

     Self-consistent Calculation

     iteration #  1     ecut=    60.00 Ry     beta=0.70
     Davidson diagonalization with overlap
     c_bands:  1 eigenvalues not converged
     ethr =  1.00E-06,  avg # of iterations = 20.0

     negative rho (up, down):  2.250E-03 0.000E+00

     total cpu time spent up to now is        3.3 secs

     total energy              =     -33.72656345 Ry
     Harris-Foulkes estimate   =     -33.71811662 Ry
     estimated scf accuracy    <       0.00221510 Ry

     iteration #  2     ecut=    60.00 Ry     beta=0.70
     Davidson diagonalization with overlap
     ethr =  2.77E-05,  avg # of iterations =  9.0

     negative rho (up, down):  2.319E-04 0.000E+00

     total cpu time spent up to now is        3.4 secs

     total energy              =     -33.72763392 Ry
     Harris-Foulkes estimate   =     -33.72672931 Ry
     estimated scf accuracy    <       0.00016522 Ry

     iteration #  3     ecut=    60.00 Ry     beta=0.70
     Davidson diagonalization with overlap
     ethr =  2.07E-06,  avg # of iterations = 15.0

     negative rho (up, down):  2.208E-05 0.000E+00

     total cpu time spent up to now is        3.5 secs

     total energy              =     -33.72764701 Ry
     Harris-Foulkes estimate   =     -33.72765891 Ry
     estimated scf accuracy    <       0.00001533 Ry

     iteration #  4     ecut=    60.00 Ry     beta=0.70
     Davidson diagonalization with overlap
     ethr =  1.92E-07,  avg # of iterations =  2.0

     negative rho (up, down):  8.201E-08 0.000E+00

     total cpu time spent up to now is        3.6 secs

     total energy              =     -33.72764950 Ry
     Harris-Foulkes estimate   =     -33.72765294 Ry
     estimated scf accuracy    <       0.00000471 Ry

     iteration #  5     ecut=    60.00 Ry     beta=0.70
     Davidson diagonalization with overlap
     ethr =  5.88E-08,  avg # of iterations =  2.0

     total cpu time spent up to now is        3.7 secs

     total energy              =     -33.72765031 Ry
     Harris-Foulkes estimate   =     -33.72765060 Ry
     estimated scf accuracy    <       0.00000008 Ry

     iteration #  6     ecut=    60.00 Ry     beta=0.70
     Davidson diagonalization with overlap
     ethr =  9.82E-10,  avg # of iterations =  2.0

     total cpu time spent up to now is        3.7 secs

     End of self-consistent calculation

          k = 0.0000 0.0000 0.0000 ( 62669 PWs)   bands (ev):

   -25.8950 -12.8701  -9.5295  -7.1356  -0.8664   0.4325   0.8549   1.1385

     the Fermi energy is    -6.8223 ev

!    total energy              =     -33.72765032 Ry
     Harris-Foulkes estimate   =     -33.72765034 Ry
     estimated scf accuracy    <          1.5E-09 Ry

     convergence has been achieved in   6 iterations

     Forces acting on atoms (Ry/au):

     atom    1 type  2   force =     0.00020587    0.07960586    0.10560350
     atom    2 type  1   force =    -0.00184389    0.04890108   -0.01569799
     atom    3 type  1   force =     0.00163802   -0.12850694   -0.08990551

     Total force =     0.211495     Total SCF correction =     0.000143

     Entering Dynamics:    iteration =     3
                           time      =   0.0015 pico-seconds


     Andersen thermostat:    3 collisions

ATOMIC_POSITIONS (angstrom)
O        0.000448342  -0.006594409   0.120921656
H       -0.029289085   0.784243200  -0.472386606
H        0.022186634  -0.679777318  -0.507998970


     kinetic energy (Ekin) =     0.04785098 Ry
     temperature           =  2518.35451106 K 
     Ekin + Etot (const)   =   -33.67979934 Ry
     Message from routine dynamics:
     Total linear momentum <> 0

     Linear momentum :    0.1511347169    0.5748310756    0.4057723310

     Writing output data file pwscf.save

     second order wave-functions extrapolation
     Check: negative starting charge=   -0.071259
     second order charge density extrapolation
     Check: negative starting charge=   -0.071229

     negative rho (up, down):  3.015E-03 0.000E+00

     total cpu time spent up to now is        4.4 secs

     per-process dynamical memory:    32.7 Mb

     Self-consistent Calculation

     iteration #  1     ecut=    60.00 Ry     beta=0.70
     Davidson diagonalization with overlap
     c_bands:  1 eigenvalues not converged
     ethr =  1.00E-06,  avg # of iterations = 20.0

     negative rho (up, down):  7.426E-04 0.000E+00

     total cpu time spent up to now is        4.7 secs

     total energy              =     -33.73009134 Ry
     Harris-Foulkes estimate   =     -33.72873504 Ry
     estimated scf accuracy    <       0.00060402 Ry

     iteration #  2     ecut=    60.00 Ry     beta=0.70
     Davidson diagonalization with overlap
     ethr =  7.55E-06,  avg # of iterations = 18.0

     negative rho (up, down):  3.959E-04 0.000E+00

     total cpu time spent up to now is        4.8 secs

     total energy              =     -33.73019459 Ry
     Harris-Foulkes estimate   =     -33.73037682 Ry
     estimated scf accuracy    <       0.00037064 Ry

     iteration #  3     ecut=    60.00 Ry     beta=0.70
     Davidson diagonalization with overlap
     ethr =  4.63E-06,  avg # of iterations =  2.0

     negative rho (up, down):  1.516E-05 0.000E+00

     total cpu time spent up to now is        4.9 secs

     total energy              =     -33.73028042 Ry
     Harris-Foulkes estimate   =     -33.73028841 Ry
     estimated scf accuracy    <       0.00001632 Ry

     iteration #  4     ecut=    60.00 Ry     beta=0.70
     Davidson diagonalization with overlap
     ethr =  2.04E-07,  avg # of iterations =  4.0

     negative rho (up, down):  2.440E-08 0.000E+00

     total cpu time spent up to now is        5.0 secs

     total energy              =     -33.73028341 Ry
     Harris-Foulkes estimate   =     -33.73028366 Ry
     estimated scf accuracy    <       0.00000019 Ry

     iteration #  5     ecut=    60.00 Ry     beta=0.70
     Davidson diagonalization with overlap
     ethr =  2.36E-09,  avg # of iterations =  2.0

     total cpu time spent up to now is        5.0 secs

     End of self-consistent calculation

          k = 0.0000 0.0000 0.0000 ( 62669 PWs)   bands (ev):

   -25.7271 -12.8404  -9.4269  -7.1047  -0.8968   0.4206   0.8309   1.1085

     the Fermi energy is    -6.7914 ev

!    total energy              =     -33.73028334 Ry
     Harris-Foulkes estimate   =     -33.73028345 Ry
     estimated scf accuracy    <          7.4E-09 Ry

     convergence has been achieved in   5 iterations

     Forces acting on atoms (Ry/au):

     atom    1 type  2   force =    -0.00315233    0.10340695    0.08668594
     atom    2 type  1   force =    -0.00053102    0.01234579    0.00505109
     atom    3 type  1   force =     0.00368335   -0.11575274   -0.09173703

     Total force =     0.200558     Total SCF correction =     0.000552

     Entering Dynamics:    iteration =     4
                           time      =   0.0019 pico-seconds


     Andersen thermostat:    3 collisions

ATOMIC_POSITIONS (angstrom)
O       -0.003943050  -0.006442101   0.124016331
H        0.004667341   0.804374041  -0.485503958
H        0.057796816  -0.702320949  -0.543906180


     kinetic energy (Ekin) =     0.09406350 Ry
     temperature           =  4950.47797472 K 
     Ekin + Etot (const)   =   -33.63621984 Ry
     Message from routine dynamics:
     Total linear momentum <> 0

     Linear momentum :    0.7099943760   -0.6840675216    0.3735142139

     Writing output data file pwscf.save

     second order wave-functions extrapolation
     Check: negative starting charge=   -0.071229
     second order charge density extrapolation
     Check: negative starting charge=   -0.071210

     negative rho (up, down):  4.426E-03 0.000E+00

     total cpu time spent up to now is        5.7 secs

     per-process dynamical memory:    32.7 Mb

     Self-consistent Calculation

     iteration #  1     ecut=    60.00 Ry     beta=0.70
     Davidson diagonalization with overlap
     ethr =  1.00E-06,  avg # of iterations = 19.0

     negative rho (up, down):  1.104E-03 0.000E+00

     total cpu time spent up to now is        5.9 secs

     total energy              =     -33.73690552 Ry
     Harris-Foulkes estimate   =     -33.73426443 Ry
     estimated scf accuracy    <       0.00121191 Ry

     iteration #  2     ecut=    60.00 Ry     beta=0.70
     Davidson diagonalization with overlap
     ethr =  1.51E-05,  avg # of iterations =  6.0

     negative rho (up, down):  6.474E-04 0.000E+00

     total cpu time spent up to now is        6.0 secs

     total energy              =     -33.74124897 Ry
     Harris-Foulkes estimate   =     -33.74172972 Ry
     estimated scf accuracy    <       0.00106226 Ry

     iteration #  3     ecut=    60.00 Ry     beta=0.70
     Davidson diagonalization with overlap
     ethr =  1.33E-05,  avg # of iterations =  2.0

     negative rho (up, down):  2.065E-05 0.000E+00

     total cpu time spent up to now is        6.1 secs

     total energy              =     -33.73740408 Ry
     Harris-Foulkes estimate   =     -33.73740530 Ry
     estimated scf accuracy    <       0.00001654 Ry

     iteration #  4     ecut=    60.00 Ry     beta=0.70
     Davidson diagonalization with overlap
     c_bands:  1 eigenvalues not converged
     ethr =  2.07E-07,  avg # of iterations = 20.0

     negative rho (up, down):  2.448E-07 0.000E+00

     total cpu time spent up to now is        6.3 secs

     total energy              =     -33.74148552 Ry
     Harris-Foulkes estimate   =     -33.74148567 Ry
     estimated scf accuracy    <       0.00000024 Ry

     iteration #  5     ecut=    60.00 Ry     beta=0.70
     Davidson diagonalization with overlap
     ethr =  2.99E-09,  avg # of iterations =  5.0

     total cpu time spent up to now is        6.3 secs

     total energy              =     -33.74148562 Ry
     Harris-Foulkes estimate   =     -33.74148558 Ry
     estimated scf accuracy    <       0.00000001 Ry

     iteration #  6     ecut=    60.00 Ry     beta=0.70
     Davidson diagonalization with overlap
     ethr =  1.41E-10,  avg # of iterations =  2.0

     total cpu time spent up to now is        6.4 secs

     End of self-consistent calculation

          k = 0.0000 0.0000 0.0000 ( 62669 PWs)   bands (ev):

   -25.3371 -12.4797  -9.4193  -7.0422  -0.9886   0.3913   0.7665   1.1038

     the Fermi energy is    -5.1663 ev

!    total energy              =     -33.74148561 Ry
     Harris-Foulkes estimate   =     -33.74148563 Ry
     estimated scf accuracy    <          8.9E-10 Ry

     convergence has been achieved in   6 iterations

     Forces acting on atoms (Ry/au):

     atom    1 type  2   force =    -0.00243554    0.05775095    0.00045757
     atom    2 type  1   force =    -0.00066579   -0.01671987    0.02491156
     atom    3 type  1   force =     0.00310132   -0.04103108   -0.02536913

     Total force =     0.081109     Total SCF correction =     0.000082

     Entering Dynamics:    iteration =     5
                           time      =   0.0024 pico-seconds


     Andersen thermostat:    3 collisions

ATOMIC_POSITIONS (angstrom)
O       -0.002159596  -0.007214515   0.119421585
H       -0.015140746   0.814395419  -0.456822811
H        0.049352172  -0.700106067  -0.499799262


     kinetic energy (Ekin) =     0.07250291 Ry
     temperature           =  3815.76363813 K 
     Ekin + Etot (const)   =   -33.66898270 Ry
     Message from routine dynamics:
     Total linear momentum <> 0

     Linear momentum :    0.6795784471   -0.5237907493    0.3478515919

     Writing output data file pwscf.save

     second order wave-functions extrapolation
     Check: negative starting charge=   -0.071210
     second order charge density extrapolation
     Check: negative starting charge=   -0.071146

     negative rho (up, down):  2.709E-03 0.000E+00

     total cpu time spent up to now is        7.0 secs

     per-process dynamical memory:    32.7 Mb

     Self-consistent Calculation

     iteration #  1     ecut=    60.00 Ry     beta=0.70
     Davidson diagonalization with overlap
     c_bands:  1 eigenvalues not converged
     ethr =  1.00E-06,  avg # of iterations = 20.0

     negative rho (up, down):  6.588E-04 0.000E+00

     total cpu time spent up to now is        7.2 secs

     total energy              =     -33.73300255 Ry
     Harris-Foulkes estimate   =     -33.73176373 Ry
     estimated scf accuracy    <       0.00014707 Ry

     iteration #  2     ecut=    60.00 Ry     beta=0.70
     Davidson diagonalization with overlap
     ethr =  1.84E-06,  avg # of iterations = 15.0

     negative rho (up, down):  3.392E-04 0.000E+00

     total cpu time spent up to now is        7.3 secs

     total energy              =     -33.73303157 Ry
     Harris-Foulkes estimate   =     -33.73306562 Ry
     estimated scf accuracy    <       0.00008926 Ry

     iteration #  3     ecut=    60.00 Ry     beta=0.70
     Davidson diagonalization with overlap
     ethr =  1.12E-06,  avg # of iterations =  3.0

     negative rho (up, down):  8.766E-08 0.000E+00

     total cpu time spent up to now is        7.4 secs

     total energy              =     -33.73304677 Ry
     Harris-Foulkes estimate   =     -33.73305466 Ry
     estimated scf accuracy    <       0.00000617 Ry

     iteration #  4     ecut=    60.00 Ry     beta=0.70
     Davidson diagonalization with overlap
     ethr =  7.71E-08,  avg # of iterations = 14.0

     total cpu time spent up to now is        7.6 secs

     total energy              =     -33.73304775 Ry
     Harris-Foulkes estimate   =     -33.73304788 Ry
     estimated scf accuracy    <       0.00000005 Ry

     iteration #  5     ecut=    60.00 Ry     beta=0.70
     Davidson diagonalization with overlap
     ethr =  6.23E-10,  avg # of iterations =  3.0

     total cpu time spent up to now is        7.6 secs

     End of self-consistent calculation

          k = 0.0000 0.0000 0.0000 ( 62669 PWs)   bands (ev):

   -25.5389 -12.8882  -9.2507  -7.0681  -0.9219   0.4119   0.8026   1.1077

     the Fermi energy is    -6.7548 ev

!    total energy              =     -33.73304772 Ry
     Harris-Foulkes estimate   =     -33.73304777 Ry
     estimated scf accuracy    <          2.6E-09 Ry

     convergence has been achieved in   5 iterations

     Forces acting on atoms (Ry/au):

     atom    1 type  2   force =    -0.00769279    0.10399228    0.06950607
     atom    2 type  1   force =     0.00060766   -0.01459721    0.01080082
     atom    3 type  1   force =     0.00708513   -0.08939507   -0.08030689

     Total force =     0.174716     Total SCF correction =     0.000295

     Entering Dynamics:    iteration =     6
                           time      =   0.0029 pico-seconds


     Andersen thermostat:    3 collisions

ATOMIC_POSITIONS (angstrom)
O       -0.005586771  -0.005944110   0.118383132
H       -0.001769057   0.792891532  -0.461530031
H        0.090272361  -0.698727421  -0.478641301


     kinetic energy (Ekin) =     0.05803568 Ry
     temperature           =  3054.36607439 K 
     Ekin + Etot (const)   =   -33.67501204 Ry
     Message from routine dynamics:
     Total linear momentum <> 0

     Linear momentum :   -0.6683750033   -0.0217809089    0.3724979199

     Writing output data file pwscf.save

     second order wave-functions extrapolation
     Check: negative starting charge=   -0.071146
     second order charge density extrapolation
     Check: negative starting charge=   -0.071170

     negative rho (up, down):  3.446E-03 0.000E+00

     total cpu time spent up to now is        8.2 secs

     per-process dynamical memory:    32.7 Mb

     Self-consistent Calculation

     iteration #  1     ecut=    60.00 Ry     beta=0.70
     Davidson diagonalization with overlap
     c_bands:  1 eigenvalues not converged
     ethr =  1.00E-06,  avg # of iterations = 20.0

     negative rho (up, down):  8.414E-04 0.000E+00

     total cpu time spent up to now is        8.4 secs

     total energy              =     -33.73007282 Ry
     Harris-Foulkes estimate   =     -33.72849970 Ry
     estimated scf accuracy    <       0.00094917 Ry

     iteration #  2     ecut=    60.00 Ry     beta=0.70
     Davidson diagonalization with overlap
     ethr =  1.19E-05,  avg # of iterations =  7.0

     negative rho (up, down):  4.674E-04 0.000E+00

     total cpu time spent up to now is        8.5 secs

     total energy              =     -33.73027451 Ry
     Harris-Foulkes estimate   =     -33.73060937 Ry
     estimated scf accuracy    <       0.00071494 Ry

     iteration #  3     ecut=    60.00 Ry     beta=0.70
     Davidson diagonalization with overlap
     ethr =  8.94E-06,  avg # of iterations = 11.0

     negative rho (up, down):  1.502E-05 0.000E+00

     total cpu time spent up to now is        8.6 secs

     total energy              =     -33.73043429 Ry
     Harris-Foulkes estimate   =     -33.73043672 Ry
     estimated scf accuracy    <       0.00001452 Ry

     iteration #  4     ecut=    60.00 Ry     beta=0.70
     Davidson diagonalization with overlap
     ethr =  1.81E-07,  avg # of iterations =  5.0

     negative rho (up, down):  1.380E-07 0.000E+00

     total cpu time spent up to now is        8.7 secs

     total energy              =     -33.73043732 Ry
     Harris-Foulkes estimate   =     -33.73043745 Ry
     estimated scf accuracy    <       0.00000020 Ry

     iteration #  5     ecut=    60.00 Ry     beta=0.70
     Davidson diagonalization with overlap
     ethr =  2.50E-09,  avg # of iterations =  2.0

     total cpu time spent up to now is        8.8 secs

     End of self-consistent calculation

          k = 0.0000 0.0000 0.0000 ( 62669 PWs)   bands (ev):

   -25.6925 -13.0169  -9.2736  -7.0951  -0.8836   0.4269   0.8260   1.1097

     the Fermi energy is    -6.7818 ev

!    total energy              =     -33.73043730 Ry
     Harris-Foulkes estimate   =     -33.73043736 Ry
     estimated scf accuracy    <          9.3E-09 Ry

     convergence has been achieved in   5 iterations

     Forces acting on atoms (Ry/au):

     atom    1 type  2   force =    -0.01637917    0.10681721    0.09713567
     atom    2 type  1   force =     0.00032040    0.00654817   -0.00179106
     atom    3 type  1   force =     0.01605877   -0.11336538   -0.09534461

     Total force =     0.208230     Total SCF correction =     0.001042

     Entering Dynamics:    iteration =     7
                           time      =   0.0034 pico-seconds


     Andersen thermostat:    3 collisions

ATOMIC_POSITIONS (angstrom)
O       -0.002883153  -0.006519335   0.114907660
H       -0.023755628   0.801003284  -0.432120781
H        0.069429344  -0.697726692  -0.452993573


     kinetic energy (Ekin) =     0.05059173 Ry
     temperature           =  2662.59766132 K 
     Ekin + Etot (const)   =   -33.67984557 Ry
     Message from routine dynamics:
     Total linear momentum <> 0

     Linear momentum :    0.0800011970    0.0159582807    0.2369577190

     Writing output data file pwscf.save

     second order wave-functions extrapolation
     Check: negative starting charge=   -0.071170
     second order charge density extrapolation
     Check: negative starting charge=   -0.071166

     negative rho (up, down):  1.137E-03 0.000E+00

     total cpu time spent up to now is        9.5 secs

     per-process dynamical memory:    32.7 Mb

     Self-consistent Calculation

     iteration #  1     ecut=    60.00 Ry     beta=0.70
     Davidson diagonalization with overlap
     ethr =  1.00E-06,  avg # of iterations = 13.0

     negative rho (up, down):  2.513E-04 0.000E+00

     total cpu time spent up to now is        9.7 secs

     total energy              =     -33.72250055 Ry
     Harris-Foulkes estimate   =     -33.72243417 Ry
     estimated scf accuracy    <       0.00005141 Ry

     iteration #  2     ecut=    60.00 Ry     beta=0.70
     Davidson diagonalization with overlap
     ethr =  6.43E-07,  avg # of iterations =  7.0

     negative rho (up, down):  1.200E-04 0.000E+00

     total cpu time spent up to now is        9.8 secs

     total energy              =     -33.72250971 Ry
     Harris-Foulkes estimate   =     -33.72252540 Ry
     estimated scf accuracy    <       0.00003030 Ry

     iteration #  3     ecut=    60.00 Ry     beta=0.70
     Davidson diagonalization with overlap
     ethr =  3.79E-07,  avg # of iterations =  2.0

     negative rho (up, down):  2.331E-06 0.000E+00

     total cpu time spent up to now is        9.9 secs

     total energy              =     -33.72251565 Ry
     Harris-Foulkes estimate   =     -33.72251736 Ry
     estimated scf accuracy    <       0.00000113 Ry

     iteration #  4     ecut=    60.00 Ry     beta=0.70
     Davidson diagonalization with overlap
     ethr =  1.41E-08,  avg # of iterations =  2.0

     negative rho (up, down):  5.187E-08 0.000E+00

     total cpu time spent up to now is       10.0 secs

     total energy              =     -33.72251577 Ry
     Harris-Foulkes estimate   =     -33.72251593 Ry
     estimated scf accuracy    <       0.00000001 Ry

     iteration #  5     ecut=    60.00 Ry     beta=0.70
     Davidson diagonalization with overlap
     ethr =  1.77E-10,  avg # of iterations =  3.0

     total cpu time spent up to now is       10.0 secs

     End of self-consistent calculation

          k = 0.0000 0.0000 0.0000 ( 62669 PWs)   bands (ev):

   -25.8366 -13.3505  -9.1341  -7.1153  -0.8384   0.4442   0.8426   1.1156

     the Fermi energy is    -6.8020 ev

!    total energy              =     -33.72251568 Ry
     Harris-Foulkes estimate   =     -33.72251578 Ry
     estimated scf accuracy    <          9.2E-10 Ry

     convergence has been achieved in   5 iterations

     Forces acting on atoms (Ry/au):

     atom    1 type  2   force =    -0.01906513    0.14239961    0.15510287
     atom    2 type  1   force =     0.00101868    0.01497028   -0.01644988
     atom    3 type  1   force =     0.01804645   -0.15736990   -0.13865298

     Total force =     0.299181     Total SCF correction =     0.000297

     Entering Dynamics:    iteration =     8
                           time      =   0.0039 pico-seconds


     Andersen thermostat:    3 collisions

ATOMIC_POSITIONS (angstrom)
O       -0.003519790  -0.007796070   0.117980604
H       -0.045732058   0.799400222  -0.449522613
H        0.101491110  -0.675898116  -0.484272037


     kinetic energy (Ekin) =     0.06433887 Ry
     temperature           =  3386.09753973 K 
     Ekin + Etot (const)   =   -33.65817680 Ry
     Message from routine dynamics:
     Total linear momentum <> 0

     Linear momentum :   -0.7675453950   -0.2929804625   -0.2278429864

     Writing output data file pwscf.save

     second order wave-functions extrapolation
     Check: negative starting charge=   -0.071166
     second order charge density extrapolation
     Check: negative starting charge=   -0.071202

     negative rho (up, down):  2.495E-03 0.000E+00

     total cpu time spent up to now is       10.6 secs

     per-process dynamical memory:    32.7 Mb

     Self-consistent Calculation

     iteration #  1     ecut=    60.00 Ry     beta=0.70
     Davidson diagonalization with overlap
     ethr =  1.00E-06,  avg # of iterations = 10.0

     negative rho (up, down):  5.972E-04 0.000E+00

     total cpu time spent up to now is       10.8 secs

     total energy              =     -33.72595821 Ry
     Harris-Foulkes estimate   =     -33.72490094 Ry
     estimated scf accuracy    <       0.00019062 Ry

     iteration #  2     ecut=    60.00 Ry     beta=0.70
     Davidson diagonalization with overlap
     ethr =  2.38E-06,  avg # of iterations =  8.0

     negative rho (up, down):  5.006E-06 0.000E+00

     total cpu time spent up to now is       10.9 secs

     total energy              =     -33.72597764 Ry
     Harris-Foulkes estimate   =     -33.72596770 Ry
     estimated scf accuracy    <       0.00001667 Ry

     iteration #  3     ecut=    60.00 Ry     beta=0.70
     Davidson diagonalization with overlap
     ethr =  2.08E-07,  avg # of iterations =  5.0

     negative rho (up, down):  1.491E-08 0.000E+00

     total cpu time spent up to now is       11.0 secs

     total energy              =     -33.72597913 Ry
     Harris-Foulkes estimate   =     -33.72597911 Ry
     estimated scf accuracy    <       0.00000046 Ry

     iteration #  4     ecut=    60.00 Ry     beta=0.70
     Davidson diagonalization with overlap
     ethr =  5.69E-09,  avg # of iterations =  2.0

     total cpu time spent up to now is       11.1 secs

     total energy              =     -33.72597935 Ry
     Harris-Foulkes estimate   =     -33.72597936 Ry
     estimated scf accuracy    <       0.00000021 Ry

     iteration #  5     ecut=    60.00 Ry     beta=0.70
     Davidson diagonalization with overlap
     ethr =  2.65E-09,  avg # of iterations =  2.0

     total cpu time spent up to now is       11.2 secs

     End of self-consistent calculation

          k = 0.0000 0.0000 0.0000 ( 62669 PWs)   bands (ev):

   -25.7854 -13.0753  -9.2912  -7.1097  -0.8719   0.4291   0.8365   1.1120

     the Fermi energy is    -6.7964 ev

!    total energy              =     -33.72597936 Ry
     Harris-Foulkes estimate   =     -33.72597940 Ry
     estimated scf accuracy    <          2.1E-09 Ry

     convergence has been achieved in   5 iterations

     Forces acting on atoms (Ry/au):

     atom    1 type  2   force =    -0.02275780    0.13510089    0.12359743
     atom    2 type  1   force =     0.00005397    0.00651827   -0.00014529
     atom    3 type  1   force =     0.02270383   -0.14161916   -0.12345215

     Total force =     0.264388     Total SCF correction =     0.000063

     Entering Dynamics:    iteration =     9
                           time      =   0.0044 pico-seconds


     Andersen thermostat:    3 collisions

ATOMIC_POSITIONS (angstrom)
O       -0.001622334  -0.007737100   0.116702673
H       -0.051095421   0.781270382  -0.419684069
H        0.076795769  -0.658702464  -0.493866135


     kinetic energy (Ekin) =     0.05455429 Ry
     temperature           =  2871.14362022 K 
     Ekin + Etot (const)   =   -33.67142507 Ry
     Message from routine dynamics:
     Total linear momentum <> 0

     Linear momentum :   -0.2033129130    0.5909610672   -0.8597606177

     Writing output data file pwscf.save

     second order wave-functions extrapolation
     Check: negative starting charge=   -0.071202
     second order charge density extrapolation
     Check: negative starting charge=   -0.071232

     negative rho (up, down):  1.472E-03 0.000E+00

     total cpu time spent up to now is       11.8 secs

     per-process dynamical memory:    32.7 Mb

     Self-consistent Calculation

     iteration #  1     ecut=    60.00 Ry     beta=0.70
     Davidson diagonalization with overlap
     ethr =  1.00E-06,  avg # of iterations =  7.0

     negative rho (up, down):  3.290E-04 0.000E+00

     total cpu time spent up to now is       12.0 secs

     total energy              =     -33.72005312 Ry
     Harris-Foulkes estimate   =     -33.72013156 Ry
     estimated scf accuracy    <       0.00056795 Ry

     iteration #  2     ecut=    60.00 Ry     beta=0.70
     Davidson diagonalization with overlap
     ethr =  7.10E-06,  avg # of iterations =  3.0

     negative rho (up, down):  1.497E-04 0.000E+00

     total cpu time spent up to now is       12.1 secs

     total energy              =     -33.72014007 Ry
     Harris-Foulkes estimate   =     -33.72028123 Ry
     estimated scf accuracy    <       0.00026824 Ry

     iteration #  3     ecut=    60.00 Ry     beta=0.70
     Davidson diagonalization with overlap
     ethr =  3.35E-06,  avg # of iterations =  2.0

     negative rho (up, down):  5.422E-06 0.000E+00

     total cpu time spent up to now is       12.2 secs

     total energy              =     -33.72020885 Ry
     Harris-Foulkes estimate   =     -33.72021333 Ry
     estimated scf accuracy    <       0.00001769 Ry

     iteration #  4     ecut=    60.00 Ry     beta=0.70
     Davidson diagonalization with overlap
     ethr =  2.21E-07,  avg # of iterations =  4.0

     negative rho (up, down):  3.657E-08 0.000E+00

     total cpu time spent up to now is       12.3 secs

     total energy              =     -33.72021239 Ry
     Harris-Foulkes estimate   =     -33.72021218 Ry
     estimated scf accuracy    <       0.00000019 Ry

     iteration #  5     ecut=    60.00 Ry     beta=0.70
     Davidson diagonalization with overlap
     ethr =  2.39E-09,  avg # of iterations =  2.0

     total cpu time spent up to now is       12.3 secs

     End of self-consistent calculation

          k = 0.0000 0.0000 0.0000 ( 62669 PWs)   bands (ev):

   -26.0245 -13.2698  -9.3377  -7.1526  -0.8169   0.4531   0.8666   1.1169

     the Fermi energy is    -6.8393 ev

!    total energy              =     -33.72021258 Ry
     Harris-Foulkes estimate   =     -33.72021244 Ry
     estimated scf accuracy    <          9.4E-09 Ry

     convergence has been achieved in   5 iterations

     Forces acting on atoms (Ry/au):

     atom    1 type  2   force =    -0.01679186    0.10651153    0.17398780
     atom    2 type  1   force =    -0.00328661    0.05731857   -0.02976807
     atom    3 type  1   force =     0.02007846   -0.16383010   -0.14421973

     Total force =     0.306796     Total SCF correction =     0.000393

     Entering Dynamics:    iteration =    10
                           time      =   0.0048 pico-seconds


     Andersen thermostat:    3 collisions

ATOMIC_POSITIONS (angstrom)
O       -0.006015409  -0.006074822   0.114714283
H        0.009002814   0.748680398  -0.375645162
H        0.086290793  -0.652445594  -0.506405802


     kinetic energy (Ekin) =     0.12773694 Ry
     temperature           =  6722.68145891 K 
     Ekin + Etot (const)   =   -33.59247563 Ry
     Message from routine dynamics:
     Total linear momentum <> 0

     Linear momentum :   -0.3329536072    0.4746686069    0.1699811617

     Writing output data file pwscf.save

     second order wave-functions extrapolation
     Check: negative starting charge=   -0.071232
     second order charge density extrapolation
     Check: negative starting charge=   -0.071266

     negative rho (up, down):  6.944E-03 0.000E+00

     total cpu time spent up to now is       12.9 secs

     per-process dynamical memory:    32.7 Mb

     Self-consistent Calculation

     iteration #  1     ecut=    60.00 Ry     beta=0.70
     Davidson diagonalization with overlap
     c_bands:  1 eigenvalues not converged
     ethr =  1.00E-06,  avg # of iterations = 20.0

     negative rho (up, down):  1.745E-03 0.000E+00

     total cpu time spent up to now is       13.2 secs

     total energy              =     -33.70835959 Ry
     Harris-Foulkes estimate   =     -33.70243308 Ry
     estimated scf accuracy    <       0.00104473 Ry

     iteration #  2     ecut=    60.00 Ry     beta=0.70
     Davidson diagonalization with overlap
     ethr =  1.31E-05,  avg # of iterations = 15.0

     negative rho (up, down):  6.851E-04 0.000E+00

     total cpu time spent up to now is       13.3 secs

     total energy              =     -33.70884051 Ry
     Harris-Foulkes estimate   =     -33.70860048 Ry
     estimated scf accuracy    <       0.00025173 Ry

     iteration #  3     ecut=    60.00 Ry     beta=0.70
     Davidson diagonalization with overlap
     ethr =  3.15E-06,  avg # of iterations =  7.0

     negative rho (up, down):  4.962E-05 0.000E+00

     total cpu time spent up to now is       13.4 secs

     total energy              =     -33.70891493 Ry
     Harris-Foulkes estimate   =     -33.70892985 Ry
     estimated scf accuracy    <       0.00006136 Ry

     iteration #  4     ecut=    60.00 Ry     beta=0.70
     Davidson diagonalization with overlap
     ethr =  7.67E-07,  avg # of iterations =  4.0

     negative rho (up, down):  4.493E-07 0.000E+00

     total cpu time spent up to now is       13.5 secs

     total energy              =     -33.70892803 Ry
     Harris-Foulkes estimate   =     -33.70892789 Ry
     estimated scf accuracy    <       0.00000071 Ry

     iteration #  5     ecut=    60.00 Ry     beta=0.70
     Davidson diagonalization with overlap
     ethr =  8.88E-09,  avg # of iterations =  2.0

     total cpu time spent up to now is       13.6 secs

     total energy              =     -33.70892821 Ry
     Harris-Foulkes estimate   =     -33.70892830 Ry
     estimated scf accuracy    <       0.00000002 Ry

     iteration #  6     ecut=    60.00 Ry     beta=0.70
     Davidson diagonalization with overlap
     ethr =  2.80E-10,  avg # of iterations =  2.0

     total cpu time spent up to now is       13.7 secs

     End of self-consistent calculation

          k = 0.0000 0.0000 0.0000 ( 62669 PWs)   bands (ev):

   -26.3168 -13.5334  -9.3759  -7.2045  -0.7594   0.4788   0.8967   1.1168

     the Fermi energy is    -6.8912 ev

!    total energy              =     -33.70892824 Ry
     Harris-Foulkes estimate   =     -33.70892822 Ry
     estimated scf accuracy    <          9.6E-10 Ry

     convergence has been achieved in   6 iterations

     Forces acting on atoms (Ry/au):

     atom    1 type  2   force =    -0.02446155   -0.02657032    0.23279874
     atom    2 type  1   force =     0.00320414    0.17843446   -0.10207303
     atom    3 type  1   force =     0.02125740   -0.15186413   -0.13072571

     Total force =     0.371983     Total SCF correction =     0.000154

     Entering Dynamics:    iteration =    11
                           time      =   0.0053 pico-seconds


     Andersen thermostat:    3 collisions

ATOMIC_POSITIONS (angstrom)
O       -0.004082639  -0.004948364   0.116489376
H       -0.019369205   0.780167110  -0.398236027
H        0.084044673  -0.701777185  -0.511935214


     kinetic energy (Ekin) =     0.06782297 Ry
     temperature           =  3569.46215416 K 
     Ekin + Etot (const)   =   -33.64110527 Ry
     Message from routine dynamics:
     Total linear momentum <> 0

     Linear momentum :   -0.1980602492   -0.2759638503   -0.0672680957

     Writing output data file pwscf.save

     second order wave-functions extrapolation
     Check: negative starting charge=   -0.071266
     second order charge density extrapolation
     Check: negative starting charge=   -0.071122

     negative rho (up, down):  2.550E-03 0.000E+00

     total cpu time spent up to now is       14.3 secs

     per-process dynamical memory:    32.7 Mb

     Self-consistent Calculation

     iteration #  1     ecut=    60.00 Ry     beta=0.70
     Davidson diagonalization with overlap
     ethr =  1.00E-06,  avg # of iterations =  9.0

     negative rho (up, down):  6.212E-04 0.000E+00

     total cpu time spent up to now is       14.5 secs

     total energy              =     -33.73071779 Ry
     Harris-Foulkes estimate   =     -33.73042956 Ry
     estimated scf accuracy    <       0.00137832 Ry

     iteration #  2     ecut=    60.00 Ry     beta=0.70
     Davidson diagonalization with overlap
     ethr =  1.72E-05,  avg # of iterations =  4.0

     negative rho (up, down):  3.296E-04 0.000E+00

     total cpu time spent up to now is       14.6 secs

     total energy              =     -33.73504447 Ry
     Harris-Foulkes estimate   =     -33.73549145 Ry
     estimated scf accuracy    <       0.00084924 Ry

     iteration #  3     ecut=    60.00 Ry     beta=0.70
     Davidson diagonalization with overlap
     ethr =  1.06E-05,  avg # of iterations =  2.0

     negative rho (up, down):  2.707E-05 0.000E+00

     total cpu time spent up to now is       14.7 secs

     total energy              =     -33.73116319 Ry
     Harris-Foulkes estimate   =     -33.73117365 Ry
     estimated scf accuracy    <       0.00002432 Ry

     iteration #  4     ecut=    60.00 Ry     beta=0.70
     Davidson diagonalization with overlap
     ethr =  3.04E-07,  avg # of iterations =  4.0

     negative rho (up, down):  5.504E-07 0.000E+00

     total cpu time spent up to now is       14.8 secs

     total energy              =     -33.73116808 Ry
     Harris-Foulkes estimate   =     -33.73116828 Ry
     estimated scf accuracy    <       0.00000036 Ry

     iteration #  5     ecut=    60.00 Ry     beta=0.70
     Davidson diagonalization with overlap
     ethr =  4.47E-09,  avg # of iterations =  2.0

     total cpu time spent up to now is       14.9 secs

     total energy              =     -33.73116803 Ry
     Harris-Foulkes estimate   =     -33.73116817 Ry
     estimated scf accuracy    <       0.00000002 Ry

     iteration #  6     ecut=    60.00 Ry     beta=0.70
     Davidson diagonalization with overlap
     ethr =  2.27E-10,  avg # of iterations =  2.0

     total cpu time spent up to now is       14.9 secs

     End of self-consistent calculation

          k = 0.0000 0.0000 0.0000 ( 62669 PWs)   bands (ev):

   -25.7866 -13.2202  -9.2164  -7.1132  -0.8394   0.4484   0.8400   1.1128

     the Fermi energy is    -6.7999 ev

!    total energy              =     -33.73116792 Ry
     Harris-Foulkes estimate   =     -33.73116803 Ry
     estimated scf accuracy    <          8.4E-10 Ry

     convergence has been achieved in   6 iterations

     Forces acting on atoms (Ry/au):

     atom    1 type  2   force =    -0.00922639   -0.01736380    0.11524131
     atom    2 type  1   force =    -0.00036599    0.08219211   -0.05462503
     atom    3 type  1   force =     0.00959238   -0.06482832   -0.06061627

     Total force =     0.177132     Total SCF correction =     0.000285

     Entering Dynamics:    iteration =    12
                           time      =   0.0058 pico-seconds


     Andersen thermostat:    3 collisions

ATOMIC_POSITIONS (angstrom)
O       -0.007349462  -0.005926431   0.114799516
H        0.019958302   0.801405210  -0.367595025
H        0.096468819  -0.707521149  -0.515806152


     kinetic energy (Ekin) =     0.05730194 Ry
     temperature           =  3015.75010745 K 
     Ekin + Etot (const)   =   -33.67386598 Ry
     Message from routine dynamics:
     Total linear momentum <> 0

     Linear momentum :   -0.3846661159   -0.0843859423    0.1804824436

     Writing output data file pwscf.save

     second order wave-functions extrapolation
     Check: negative starting charge=   -0.071122
     second order charge density extrapolation
     Check: negative starting charge=   -0.071073

     negative rho (up, down):  3.298E-03 0.000E+00

     total cpu time spent up to now is       15.5 secs

     per-process dynamical memory:    32.7 Mb

     Self-consistent Calculation

     iteration #  1     ecut=    60.00 Ry     beta=0.70
     Davidson diagonalization with overlap
     ethr =  1.00E-06,  avg # of iterations = 15.0

     negative rho (up, down):  8.168E-04 0.000E+00

     total cpu time spent up to now is       15.7 secs

     total energy              =     -33.73219926 Ry
     Harris-Foulkes estimate   =     -33.73039227 Ry
     estimated scf accuracy    <       0.00035409 Ry

     iteration #  2     ecut=    60.00 Ry     beta=0.70
     Davidson diagonalization with overlap
     ethr =  4.43E-06,  avg # of iterations = 10.0

     negative rho (up, down):  2.533E-04 0.000E+00

     total cpu time spent up to now is       15.8 secs

     total energy              =     -33.73225339 Ry
     Harris-Foulkes estimate   =     -33.73226687 Ry
     estimated scf accuracy    <       0.00005391 Ry

     iteration #  3     ecut=    60.00 Ry     beta=0.70
     Davidson diagonalization with overlap
     ethr =  6.74E-07,  avg # of iterations =  8.0

     negative rho (up, down):  3.233E-05 0.000E+00

     total cpu time spent up to now is       15.9 secs

     total energy              =     -33.73226177 Ry
     Harris-Foulkes estimate   =     -33.73227494 Ry
     estimated scf accuracy    <       0.00002037 Ry

     iteration #  4     ecut=    60.00 Ry     beta=0.70
     Davidson diagonalization with overlap
     ethr =  2.55E-07,  avg # of iterations =  3.0

     negative rho (up, down):  4.793E-07 0.000E+00

     total cpu time spent up to now is       16.0 secs

     total energy              =     -33.73226625 Ry
     Harris-Foulkes estimate   =     -33.73226670 Ry
     estimated scf accuracy    <       0.00000063 Ry

     iteration #  5     ecut=    60.00 Ry     beta=0.70
     Davidson diagonalization with overlap
     ethr =  7.94E-09,  avg # of iterations =  2.0

     total cpu time spent up to now is       16.1 secs

     total energy              =     -33.73226622 Ry
     Harris-Foulkes estimate   =     -33.73226641 Ry
     estimated scf accuracy    <       0.00000001 Ry

     iteration #  6     ecut=    60.00 Ry     beta=0.70
     Davidson diagonalization with overlap
     ethr =  1.33E-10,  avg # of iterations =  3.0

     total cpu time spent up to now is       16.2 secs

     End of self-consistent calculation

          k = 0.0000 0.0000 0.0000 ( 62669 PWs)   bands (ev):

   -25.6981 -13.2858  -9.1014  -7.0956  -0.8455   0.4470   0.8277   1.1114

     the Fermi energy is    -6.7822 ev

!    total energy              =     -33.73226623 Ry
     Harris-Foulkes estimate   =     -33.73226623 Ry
     estimated scf accuracy    <          6.9E-10 Ry

     convergence has been achieved in   6 iterations

     Forces acting on atoms (Ry/au):

     atom    1 type  2   force =    -0.01412272   -0.02651688    0.10738913
     atom    2 type  1   force =     0.00460669    0.07455618   -0.05337171
     atom    3 type  1   force =     0.00951603   -0.04803931   -0.05401742

     Total force =     0.161801     Total SCF correction =     0.000159

     Entering Dynamics:    iteration =    13
                           time      =   0.0063 pico-seconds


     Andersen thermostat:    3 collisions

ATOMIC_POSITIONS (angstrom)
O       -0.007274834  -0.009807161   0.115158711
H        0.012194086   0.783014469  -0.354171248
H        0.103050805  -0.627653496  -0.534920146


     kinetic energy (Ekin) =     0.14844466 Ry
     temperature           =  7812.51024027 K 
     Ekin + Etot (const)   =   -33.58382157 Ry
     Message from routine dynamics:
     Total linear momentum <> 0

     Linear momentum :    0.7212015354   -0.6581210693    0.7658078466

     Writing output data file pwscf.save

     second order wave-functions extrapolation
     Check: negative starting charge=   -0.071073
     second order charge density extrapolation
     Check: negative starting charge=   -0.071213

     negative rho (up, down):  3.988E-03 0.000E+00

     total cpu time spent up to now is       16.8 secs

     per-process dynamical memory:    32.7 Mb

     Self-consistent Calculation

     iteration #  1     ecut=    60.00 Ry     beta=0.70
     Davidson diagonalization with overlap
     c_bands:  1 eigenvalues not converged
     ethr =  1.00E-06,  avg # of iterations = 20.0

     negative rho (up, down):  9.900E-04 0.000E+00

     total cpu time spent up to now is       17.1 secs

     total energy              =     -33.71651537 Ry
     Harris-Foulkes estimate   =     -33.71403598 Ry
     estimated scf accuracy    <       0.00063980 Ry

     iteration #  2     ecut=    60.00 Ry     beta=0.70
     Davidson diagonalization with overlap
     ethr =  8.00E-06,  avg # of iterations = 19.0

     negative rho (up, down):  5.138E-04 0.000E+00

     total cpu time spent up to now is       17.2 secs

     total energy              =     -33.71664182 Ry
     Harris-Foulkes estimate   =     -33.71678644 Ry
     estimated scf accuracy    <       0.00033597 Ry

     iteration #  3     ecut=    60.00 Ry     beta=0.70
     Davidson diagonalization with overlap
     ethr =  4.20E-06,  avg # of iterations =  2.0

     negative rho (up, down):  7.991E-06 0.000E+00

     total cpu time spent up to now is       17.3 secs

     total energy              =     -33.71672706 Ry
     Harris-Foulkes estimate   =     -33.71672877 Ry
     estimated scf accuracy    <       0.00001862 Ry

     iteration #  4     ecut=    60.00 Ry     beta=0.70
     Davidson diagonalization with overlap
     ethr =  2.33E-07,  avg # of iterations =  5.0

     negative rho (up, down):  1.423E-08 0.000E+00

     total cpu time spent up to now is       17.4 secs

     total energy              =     -33.71673132 Ry
     Harris-Foulkes estimate   =     -33.71673057 Ry
     estimated scf accuracy    <       0.00000017 Ry

     iteration #  5     ecut=    60.00 Ry     beta=0.70
     Davidson diagonalization with overlap
     ethr =  2.08E-09,  avg # of iterations =  2.0

     total cpu time spent up to now is       17.5 secs

     End of self-consistent calculation

          k = 0.0000 0.0000 0.0000 ( 62669 PWs)   bands (ev):

   -26.1727 -13.3945  -9.3691  -7.1802  -0.7839   0.4683   0.8826   1.1146

     the Fermi energy is    -6.8669 ev

!    total energy              =     -33.71673147 Ry
     Harris-Foulkes estimate   =     -33.71673137 Ry
     estimated scf accuracy    <          6.7E-09 Ry

     convergence has been achieved in   5 iterations

     Forces acting on atoms (Ry/au):

     atom    1 type  2   force =    -0.02598260    0.01232623    0.19633299
     atom    2 type  1   force =     0.00218049    0.12832247   -0.06374367
     atom    3 type  1   force =     0.02380211   -0.14064870   -0.13258932

     Total force =     0.312789     Total SCF correction =     0.000569

     Entering Dynamics:    iteration =    14
                           time      =   0.0068 pico-seconds


     Andersen thermostat:    3 collisions

ATOMIC_POSITIONS (angstrom)
O       -0.006283321  -0.006768965   0.117522688
H       -0.007771127   0.762963839  -0.369213579
H        0.107308894  -0.655732707  -0.557326962


     kinetic energy (Ekin) =     0.04239213 Ry
     temperature           =  2231.06004003 K 
     Ekin + Etot (const)   =   -33.67433934 Ry
     Message from routine dynamics:
     Total linear momentum <> 0

     Linear momentum :   -0.1721853387    0.2050227042   -0.5516445374

     Writing output data file pwscf.save

     second order wave-functions extrapolation
     Check: negative starting charge=   -0.071213
     second order charge density extrapolation
     Check: negative starting charge=   -0.071209

     negative rho (up, down):  2.680E-03 0.000E+00

     total cpu time spent up to now is       18.2 secs

     per-process dynamical memory:    32.7 Mb

     Self-consistent Calculation

     iteration #  1     ecut=    60.00 Ry     beta=0.70
     Davidson diagonalization with overlap
     ethr =  1.00E-06,  avg # of iterations = 12.0

     negative rho (up, down):  6.540E-04 0.000E+00

     total cpu time spent up to now is       18.4 secs

     total energy              =     -33.72339757 Ry
     Harris-Foulkes estimate   =     -33.72248297 Ry
     estimated scf accuracy    <       0.00057788 Ry

     iteration #  2     ecut=    60.00 Ry     beta=0.70
     Davidson diagonalization with overlap
     ethr =  7.22E-06,  avg # of iterations = 11.0

     negative rho (up, down):  2.913E-04 0.000E+00

     total cpu time spent up to now is       18.5 secs

     total energy              =     -33.72347413 Ry
     Harris-Foulkes estimate   =     -33.72358406 Ry
     estimated scf accuracy    <       0.00020150 Ry

     iteration #  3     ecut=    60.00 Ry     beta=0.70
     Davidson diagonalization with overlap
     ethr =  2.52E-06,  avg # of iterations =  8.0

     negative rho (up, down):  2.392E-05 0.000E+00

     total cpu time spent up to now is       18.6 secs

     total energy              =     -33.72352552 Ry
     Harris-Foulkes estimate   =     -33.72353750 Ry
     estimated scf accuracy    <       0.00002590 Ry

     iteration #  4     ecut=    60.00 Ry     beta=0.70
     Davidson diagonalization with overlap
     ethr =  3.24E-07,  avg # of iterations =  4.0

     negative rho (up, down):  5.898E-07 0.000E+00

     total cpu time spent up to now is       18.7 secs

     total energy              =     -33.72353155 Ry
     Harris-Foulkes estimate   =     -33.72353080 Ry
     estimated scf accuracy    <       0.00000035 Ry

     iteration #  5     ecut=    60.00 Ry     beta=0.70
     Davidson diagonalization with overlap
     ethr =  4.43E-09,  avg # of iterations =  2.0

     total cpu time spent up to now is       18.8 secs

     total energy              =     -33.72353184 Ry
     Harris-Foulkes estimate   =     -33.72353167 Ry
     estimated scf accuracy    <       0.00000001 Ry

     iteration #  6     ecut=    60.00 Ry     beta=0.70
     Davidson diagonalization with overlap
     ethr =  1.49E-10,  avg # of iterations =  2.0

     total cpu time spent up to now is       18.9 secs

     End of self-consistent calculation

          k = 0.0000 0.0000 0.0000 ( 62669 PWs)   bands (ev):

   -26.0214 -13.1863  -9.4028  -7.1551  -0.8185   0.4533   0.8677   1.1124

     the Fermi energy is    -6.8418 ev

!    total energy              =     -33.72353186 Ry
     Harris-Foulkes estimate   =     -33.72353184 Ry
     estimated scf accuracy    <          7.8E-10 Ry

     convergence has been achieved in   6 iterations

     Forces acting on atoms (Ry/au):

     atom    1 type  2   force =    -0.01039467   -0.08419657    0.14048425
     atom    2 type  1   force =    -0.00109760    0.15504532   -0.08336676
     atom    3 type  1   force =     0.01149226   -0.07084875   -0.05711749

     Total force =     0.257560     Total SCF correction =     0.000323

     Entering Dynamics:    iteration =    15
                           time      =   0.0073 pico-seconds


     Andersen thermostat:    3 collisions

ATOMIC_POSITIONS (angstrom)
O       -0.004624040  -0.004546066   0.114639338
H       -0.062580890   0.740139652  -0.342213969
H        0.135833010  -0.668122764  -0.538649744


     kinetic energy (Ekin) =     0.10667699 Ry
     temperature           =  5614.31490691 K 
     Ekin + Etot (const)   =   -33.61685487 Ry
     Message from routine dynamics:
     Total linear momentum <> 0

     Linear momentum :   -0.2771320815    0.5061510848   -0.1993297438

     Writing output data file pwscf.save

     second order wave-functions extrapolation
     Check: negative starting charge=   -0.071209
     second order charge density extrapolation
     Check: negative starting charge=   -0.071276

     negative rho (up, down):  5.463E-03 0.000E+00

     total cpu time spent up to now is       19.5 secs

     per-process dynamical memory:    32.7 Mb

     Self-consistent Calculation

     iteration #  1     ecut=    60.00 Ry     beta=0.70
     Davidson diagonalization with overlap
     c_bands:  1 eigenvalues not converged
     ethr =  1.00E-06,  avg # of iterations = 20.0

     negative rho (up, down):  1.371E-03 0.000E+00

     total cpu time spent up to now is       19.7 secs

     total energy              =     -33.70778176 Ry
     Harris-Foulkes estimate   =     -33.70440215 Ry
     estimated scf accuracy    <       0.00217119 Ry

     iteration #  2     ecut=    60.00 Ry     beta=0.70
     Davidson diagonalization with overlap
     ethr =  2.71E-05,  avg # of iterations =  5.0

     negative rho (up, down):  7.789E-04 0.000E+00

     total cpu time spent up to now is       19.8 secs

     total energy              =     -33.70839727 Ry
     Harris-Foulkes estimate   =     -33.70906357 Ry
     estimated scf accuracy    <       0.00164134 Ry

     iteration #  3     ecut=    60.00 Ry     beta=0.70
     Davidson diagonalization with overlap
     ethr =  2.05E-05,  avg # of iterations =  4.0

     negative rho (up, down):  2.355E-06 0.000E+00

     total cpu time spent up to now is       19.9 secs

     total energy              =     -33.70876440 Ry
     Harris-Foulkes estimate   =     -33.70875002 Ry
     estimated scf accuracy    <       0.00002289 Ry

     iteration #  4     ecut=    60.00 Ry     beta=0.70
     Davidson diagonalization with overlap
     c_bands:  1 eigenvalues not converged
     ethr =  2.86E-07,  avg # of iterations = 20.0

     negative rho (up, down):  2.116E-07 0.000E+00

     total cpu time spent up to now is       20.0 secs

     total energy              =     -33.70876916 Ry
     Harris-Foulkes estimate   =     -33.70876976 Ry
     estimated scf accuracy    <       0.00000041 Ry

     iteration #  5     ecut=    60.00 Ry     beta=0.70
     Davidson diagonalization with overlap
     ethr =  5.14E-09,  avg # of iterations =  4.0

     total cpu time spent up to now is       20.1 secs

     total energy              =     -33.70876889 Ry
     Harris-Foulkes estimate   =     -33.70876923 Ry
     estimated scf accuracy    <       0.00000002 Ry

     iteration #  6     ecut=    60.00 Ry     beta=0.70
     Davidson diagonalization with overlap
     ethr =  2.54E-10,  avg # of iterations =  2.0

     total cpu time spent up to now is       20.2 secs

     End of self-consistent calculation

          k = 0.0000 0.0000 0.0000 ( 62669 PWs)   bands (ev):

   -26.2117 -13.5220  -9.2932  -7.1831  -0.7784   0.4687   0.8825   1.1165

     the Fermi energy is    -6.8697 ev

!    total energy              =     -33.70876889 Ry
     Harris-Foulkes estimate   =     -33.70876890 Ry
     estimated scf accuracy    <          2.4E-09 Ry

     convergence has been achieved in   6 iterations

     Forces acting on atoms (Ry/au):

     atom    1 type  2   force =     0.00348804   -0.18416000    0.20627539
     atom    2 type  1   force =    -0.01856779    0.25035756   -0.14708532
     atom    3 type  1   force =     0.01507975   -0.06619756   -0.05919007

     Total force =     0.411397     Total SCF correction =     0.000180

     Entering Dynamics:    iteration =    16
                           time      =   0.0077 pico-seconds


     Andersen thermostat:    3 collisions

ATOMIC_POSITIONS (angstrom)
O       -0.000581965  -0.006178057   0.114703872
H       -0.125699177   0.763174157  -0.345136161
H        0.134918427  -0.665303955  -0.536749869


     kinetic energy (Ekin) =     0.07863177 Ry
     temperature           =  4138.31989306 K 
     Ekin + Etot (const)   =   -33.63013712 Ry
     Message from routine dynamics:
     Total linear momentum <> 0

     Linear momentum :    0.2869325429   -0.2476438004    0.4993617904

     Writing output data file pwscf.save

     second order wave-functions extrapolation
     Check: negative starting charge=   -0.071276
     second order charge density extrapolation
     Check: negative starting charge=   -0.071149

     negative rho (up, down):  5.300E-03 0.000E+00

     total cpu time spent up to now is       20.9 secs

     per-process dynamical memory:    32.7 Mb

     Self-consistent Calculation

     iteration #  1     ecut=    60.00 Ry     beta=0.70
     Davidson diagonalization with overlap
     c_bands:  1 eigenvalues not converged
     ethr =  1.00E-06,  avg # of iterations = 20.0

     negative rho (up, down):  1.336E-03 0.000E+00

     total cpu time spent up to now is       21.1 secs

     total energy              =     -33.72029382 Ry
     Harris-Foulkes estimate   =     -33.71721329 Ry
     estimated scf accuracy    <       0.00218571 Ry

     iteration #  2     ecut=    60.00 Ry     beta=0.70
     Davidson diagonalization with overlap
     ethr =  2.73E-05,  avg # of iterations =  7.0

     negative rho (up, down):  7.206E-04 0.000E+00

     total cpu time spent up to now is       21.2 secs

     total energy              =     -33.72485886 Ry
     Harris-Foulkes estimate   =     -33.72540639 Ry
     estimated scf accuracy    <       0.00121989 Ry

     iteration #  3     ecut=    60.00 Ry     beta=0.70
     Davidson diagonalization with overlap
     ethr =  1.52E-05,  avg # of iterations = 11.0

     negative rho (up, down):  6.699E-05 0.000E+00

     total cpu time spent up to now is       21.3 secs

     total energy              =     -33.72107816 Ry
     Harris-Foulkes estimate   =     -33.72108542 Ry
     estimated scf accuracy    <       0.00004309 Ry

     iteration #  4     ecut=    60.00 Ry     beta=0.70
     Davidson diagonalization with overlap
     ethr =  5.39E-07,  avg # of iterations = 11.0

     negative rho (up, down):  1.628E-06 0.000E+00

     total cpu time spent up to now is       21.4 secs

     total energy              =     -33.72108751 Ry
     Harris-Foulkes estimate   =     -33.72108669 Ry
     estimated scf accuracy    <       0.00000062 Ry

     iteration #  5     ecut=    60.00 Ry     beta=0.70
     Davidson diagonalization with overlap
     ethr =  7.76E-09,  avg # of iterations =  2.0

     total cpu time spent up to now is       21.5 secs

     total energy              =     -33.72108783 Ry
     Harris-Foulkes estimate   =     -33.72108768 Ry
     estimated scf accuracy    <       0.00000003 Ry

     iteration #  6     ecut=    60.00 Ry     beta=0.70
     Davidson diagonalization with overlap
     ethr =  3.14E-10,  avg # of iterations =  2.0

     total cpu time spent up to now is       21.6 secs

     End of self-consistent calculation

          k = 0.0000 0.0000 0.0000 ( 62669 PWs)   bands (ev):

   -26.0199 -13.4537  -9.2192  -7.1522  -0.7949   0.4651   0.8643   1.1241

     the Fermi energy is    -6.8389 ev

!    total energy              =     -33.72108791 Ry
     Harris-Foulkes estimate   =     -33.72108784 Ry
     estimated scf accuracy    <          1.0E-09 Ry

     convergence has been achieved in   6 iterations

     Forces acting on atoms (Ry/au):

     atom    1 type  2   force =     0.01017355   -0.09073079    0.16678721
     atom    2 type  1   force =    -0.02545347    0.16088026   -0.09577381
     atom    3 type  1   force =     0.01527992   -0.07014947   -0.07101340

     Total force =     0.286450     Total SCF correction =     0.000337

     Entering Dynamics:    iteration =    17
                           time      =   0.0082 pico-seconds


     Andersen thermostat:    3 collisions

ATOMIC_POSITIONS (angstrom)
O       -0.002303701  -0.002894239   0.117950639
H       -0.123536507   0.767958762  -0.351597926
H        0.160030783  -0.722109433  -0.581722042


     kinetic energy (Ekin) =     0.10161967 Ry
     temperature           =  5348.15270276 K 
     Ekin + Etot (const)   =   -33.61946824 Ry
     Message from routine dynamics:
     Total linear momentum <> 0

     Linear momentum :    0.2147061343    0.0864686144   -0.6290931562

     Writing output data file pwscf.save

     second order wave-functions extrapolation
     Check: negative starting charge=   -0.071149
     second order charge density extrapolation
     Check: negative starting charge=   -0.071125

     negative rho (up, down):  5.250E-03 0.000E+00

     total cpu time spent up to now is       22.2 secs

     per-process dynamical memory:    32.7 Mb

     Self-consistent Calculation

     iteration #  1     ecut=    60.00 Ry     beta=0.70
     Davidson diagonalization with overlap
     c_bands:  1 eigenvalues not converged
     ethr =  1.00E-06,  avg # of iterations = 20.0

     negative rho (up, down):  1.328E-03 0.000E+00

     total cpu time spent up to now is       22.4 secs

     total energy              =     -33.72444237 Ry
     Harris-Foulkes estimate   =     -33.72363970 Ry
     estimated scf accuracy    <       0.00548067 Ry

     iteration #  2     ecut=    60.00 Ry     beta=0.70
     Davidson diagonalization with overlap
     ethr =  6.85E-05,  avg # of iterations =  6.0

     negative rho (up, down):  7.791E-04 0.000E+00

     total cpu time spent up to now is       22.5 secs

     total energy              =     -33.72972346 Ry
     Harris-Foulkes estimate   =     -33.73188657 Ry
     estimated scf accuracy    <       0.00447860 Ry

     iteration #  3     ecut=    60.00 Ry     beta=0.70
     Davidson diagonalization with overlap
     ethr =  5.60E-05,  avg # of iterations =  2.0

     negative rho (up, down):  8.122E-05 0.000E+00

     total cpu time spent up to now is       22.6 secs

     total energy              =     -33.72662177 Ry
     Harris-Foulkes estimate   =     -33.72662599 Ry
     estimated scf accuracy    <       0.00005239 Ry

     iteration #  4     ecut=    60.00 Ry     beta=0.70
     Davidson diagonalization with overlap
     c_bands:  1 eigenvalues not converged
     ethr =  6.55E-07,  avg # of iterations = 20.0

     negative rho (up, down):  4.046E-06 0.000E+00

     total cpu time spent up to now is       22.8 secs

     total energy              =     -33.72663273 Ry
     Harris-Foulkes estimate   =     -33.72663456 Ry
     estimated scf accuracy    <       0.00000117 Ry

     iteration #  5     ecut=    60.00 Ry     beta=0.70
     Davidson diagonalization with overlap
     ethr =  1.46E-08,  avg # of iterations =  3.0

     total cpu time spent up to now is       22.8 secs

     total energy              =     -33.72663294 Ry
     Harris-Foulkes estimate   =     -33.72663295 Ry
     estimated scf accuracy    <       0.00000006 Ry

     iteration #  6     ecut=    60.00 Ry     beta=0.70
     Davidson diagonalization with overlap
     ethr =  7.02E-10,  avg # of iterations =  2.0

     total cpu time spent up to now is       22.9 secs

     End of self-consistent calculation

          k = 0.0000 0.0000 0.0000 ( 62669 PWs)   bands (ev):

   -25.5726 -13.0284  -9.1462  -7.0667  -0.9220   0.4062   0.8028   1.1106

     the Fermi energy is    -6.7534 ev

!    total energy              =     -33.72663291 Ry
     Harris-Foulkes estimate   =     -33.72663295 Ry
     estimated scf accuracy    <          2.1E-09 Ry

     convergence has been achieved in   6 iterations

     Forces acting on atoms (Ry/au):

     atom    1 type  2   force =     0.02731856   -0.17629098    0.07309933
     atom    2 type  1   force =    -0.02138938    0.14374839   -0.09530029
     atom    3 type  1   force =    -0.00592918    0.03254259    0.02220095

     Total force =     0.262600     Total SCF correction =     0.000550

     Entering Dynamics:    iteration =    18
                           time      =   0.0087 pico-seconds


     Andersen thermostat:    3 collisions

ATOMIC_POSITIONS (angstrom)
O       -0.005453602  -0.001906999   0.121797191
H       -0.094290889   0.750716388  -0.389691237
H        0.180684582  -0.720506504  -0.604564210


     kinetic energy (Ekin) =     0.06721841 Ry
     temperature           =  3537.64493244 K 
     Ekin + Etot (const)   =   -33.65941450 Ry
     Message from routine dynamics:
     Total linear momentum <> 0

     Linear momentum :    0.1901216991   -0.1015493727    0.2927876861

     Writing output data file pwscf.save

     second order wave-functions extrapolation
     Check: negative starting charge=   -0.071125
     second order charge density extrapolation
     Check: negative starting charge=   -0.071141

     negative rho (up, down):  3.567E-03 0.000E+00

     total cpu time spent up to now is       23.6 secs

     per-process dynamical memory:    32.7 Mb

     Self-consistent Calculation

     iteration #  1     ecut=    60.00 Ry     beta=0.70
     Davidson diagonalization with overlap
     c_bands:  1 eigenvalues not converged
     ethr =  1.00E-06,  avg # of iterations = 20.0

     negative rho (up, down):  8.813E-04 0.000E+00

     total cpu time spent up to now is       23.9 secs

     total energy              =     -33.72558753 Ry
     Harris-Foulkes estimate   =     -33.72349527 Ry
     estimated scf accuracy    <       0.00042809 Ry

     iteration #  2     ecut=    60.00 Ry     beta=0.70
     Davidson diagonalization with overlap
     ethr =  5.35E-06,  avg # of iterations =  7.0

     negative rho (up, down):  4.721E-04 0.000E+00

     total cpu time spent up to now is       24.1 secs

     total energy              =     -33.72566407 Ry
     Harris-Foulkes estimate   =     -33.72578027 Ry
     estimated scf accuracy    <       0.00026881 Ry

     iteration #  3     ecut=    60.00 Ry     beta=0.70
     Davidson diagonalization with overlap
     ethr =  3.36E-06,  avg # of iterations =  3.0

     negative rho (up, down):  9.321E-06 0.000E+00

     total cpu time spent up to now is       24.2 secs

     total energy              =     -33.72572653 Ry
     Harris-Foulkes estimate   =     -33.72573265 Ry
     estimated scf accuracy    <       0.00001518 Ry

     iteration #  4     ecut=    60.00 Ry     beta=0.70
     Davidson diagonalization with overlap
     c_bands:  1 eigenvalues not converged
     ethr =  1.90E-07,  avg # of iterations = 20.0

     negative rho (up, down):  4.757E-08 0.000E+00

     total cpu time spent up to now is       24.3 secs

     total energy              =     -33.72573004 Ry
     Harris-Foulkes estimate   =     -33.72572958 Ry
     estimated scf accuracy    <       0.00000016 Ry

     iteration #  5     ecut=    60.00 Ry     beta=0.70
     Davidson diagonalization with overlap
     ethr =  2.03E-09,  avg # of iterations = 10.0

     total cpu time spent up to now is       24.4 secs

     End of self-consistent calculation

          k = 0.0000 0.0000 0.0000 ( 62669 PWs)   bands (ev):

   -25.5217 -12.7084  -9.3325  -7.0614  -0.9785   0.3807   0.7932   1.1091

     the Fermi energy is    -6.7481 ev

!    total energy              =     -33.72573020 Ry
     Harris-Foulkes estimate   =     -33.72573011 Ry
     estimated scf accuracy    <          8.0E-09 Ry

     convergence has been achieved in   5 iterations

     Forces acting on atoms (Ry/au):

     atom    1 type  2   force =     0.02670799   -0.17960908    0.04269404
     atom    2 type  1   force =    -0.01656921    0.14014415   -0.08893430
     atom    3 type  1   force =    -0.01013878    0.03946493    0.04624026

     Total force =     0.257717     Total SCF correction =     0.001051

     Entering Dynamics:    iteration =    19
                           time      =   0.0092 pico-seconds


     Andersen thermostat:    3 collisions

ATOMIC_POSITIONS (angstrom)
O       -0.009014624  -0.004845248   0.125258804
H       -0.065445894   0.740808800  -0.444468861
H        0.208251823  -0.664052389  -0.604624014


     kinetic energy (Ekin) =     0.13440723 Ry
     temperature           =  7073.73254157 K 
     Ekin + Etot (const)   =   -33.59132297 Ry
     Message from routine dynamics:
     Total linear momentum <> 0

     Linear momentum :    0.1533696310   -0.1678148401   -0.1785933230

     Writing output data file pwscf.save

     second order wave-functions extrapolation
     Check: negative starting charge=   -0.071141
     second order charge density extrapolation
     Check: negative starting charge=   -0.071305

     negative rho (up, down):  3.582E-03 0.000E+00

     total cpu time spent up to now is       25.1 secs

     per-process dynamical memory:    32.7 Mb

     Self-consistent Calculation

     iteration #  1     ecut=    60.00 Ry     beta=0.70
[...]
     ethr =  3.58E-10,  avg # of iterations =  2.0

     total cpu time spent up to now is     1312.1 secs

     End of self-consistent calculation

          k = 0.0000 0.0000 0.0000 ( 62669 PWs)   bands (ev):

   -24.7006 -12.9663  -8.3891  -6.8733  -1.1860   0.3103   0.6434   1.1080

     the Fermi energy is    -5.0040 ev

!    total energy              =     -33.71912160 Ry
     Harris-Foulkes estimate   =     -33.71912167 Ry
     estimated scf accuracy    <          1.0E-09 Ry

     convergence has been achieved in   6 iterations

     Forces acting on atoms (Ry/au):

     atom    1 type  2   force =    -0.00726659    0.10691640    0.04679334
     atom    2 type  1   force =    -0.01235500   -0.12752529   -0.00709231
     atom    3 type  1   force =     0.01962159    0.02060888   -0.03970104

     Total force =     0.180347     Total SCF correction =     0.000359

     Entering Dynamics:    iteration =   996
                           time      =   0.4818 pico-seconds


     Andersen thermostat:    3 collisions

ATOMIC_POSITIONS (angstrom)
O       -0.019783584  -0.013005939   0.099037029
H        0.188574015   0.955726562  -0.160369338
H        0.124829289  -0.749691892  -0.473329080


     kinetic energy (Ekin) =     0.17207357 Ry
     temperature           =  9056.07826142 K 
     Ekin + Etot (const)   =   -33.54704804 Ry
     Message from routine dynamics:
     Total linear momentum <> 0

     Linear momentum :    0.2412774433    0.1607238306   -0.3677172823

     Writing output data file pwscf.save

     second order wave-functions extrapolation
     Check: negative starting charge=   -0.070567
     second order charge density extrapolation
     Check: negative starting charge=   -0.070724

     negative rho (up, down):  7.743E-03 0.000E+00

     total cpu time spent up to now is     1312.8 secs

     per-process dynamical memory:    32.7 Mb

     Self-consistent Calculation

     iteration #  1     ecut=    60.00 Ry     beta=0.70
     Davidson diagonalization with overlap
     ethr =  1.00E-06,  avg # of iterations = 18.0

     negative rho (up, down):  1.937E-03 0.000E+00

     total cpu time spent up to now is     1313.0 secs

     total energy              =     -33.71267182 Ry
     Harris-Foulkes estimate   =     -33.70962302 Ry
     estimated scf accuracy    <       0.00610291 Ry

     iteration #  2     ecut=    60.00 Ry     beta=0.70
     Davidson diagonalization with overlap
     ethr =  7.63E-05,  avg # of iterations =  5.0

     negative rho (up, down):  1.166E-03 0.000E+00

     total cpu time spent up to now is     1313.1 secs

     total energy              =     -33.71441713 Ry
     Harris-Foulkes estimate   =     -33.71694493 Ry
     estimated scf accuracy    <       0.00620929 Ry

     iteration #  3     ecut=    60.00 Ry     beta=0.70
     Davidson diagonalization with overlap
     ethr =  7.63E-05,  avg # of iterations =  2.0

     negative rho (up, down):  3.646E-05 0.000E+00

     total cpu time spent up to now is     1313.2 secs

     total energy              =     -33.71574628 Ry
     Harris-Foulkes estimate   =     -33.71568477 Ry
     estimated scf accuracy    <       0.00003732 Ry

     iteration #  4     ecut=    60.00 Ry     beta=0.70
     Davidson diagonalization with overlap
     ethr =  4.67E-07,  avg # of iterations = 10.0

     negative rho (up, down):  5.879E-06 0.000E+00

     total cpu time spent up to now is     1313.3 secs

     total energy              =     -33.71576043 Ry
     Harris-Foulkes estimate   =     -33.71576113 Ry
     estimated scf accuracy    <       0.00000116 Ry

     iteration #  5     ecut=    60.00 Ry     beta=0.70
     Davidson diagonalization with overlap
     ethr =  1.45E-08,  avg # of iterations =  2.0

     total cpu time spent up to now is     1313.4 secs

     total energy              =     -33.71576053 Ry
     Harris-Foulkes estimate   =     -33.71576055 Ry
     estimated scf accuracy    <       0.00000010 Ry

     iteration #  6     ecut=    60.00 Ry     beta=0.70
     Davidson diagonalization with overlap
     ethr =  1.30E-09,  avg # of iterations =  2.0

     total cpu time spent up to now is     1313.4 secs

     End of self-consistent calculation

          k = 0.0000 0.0000 0.0000 ( 62669 PWs)   bands (ev):

   -25.0558 -13.5852  -8.2414  -6.9394  -0.9962   0.3799   0.7233   1.1168

     the Fermi energy is    -6.6261 ev

!    total energy              =     -33.71576052 Ry
     Harris-Foulkes estimate   =     -33.71576055 Ry
     estimated scf accuracy    <          3.5E-09 Ry

     convergence has been achieved in   6 iterations

     Forces acting on atoms (Ry/au):

     atom    1 type  2   force =    -0.03054383    0.10133193    0.10902238
     atom    2 type  1   force =     0.00164909   -0.07750290   -0.02730253
     atom    3 type  1   force =     0.02889474   -0.02382903   -0.08171985

     Total force =     0.194737     Total SCF correction =     0.000147

     Entering Dynamics:    iteration =   997
                           time      =   0.4823 pico-seconds


     Andersen thermostat:    3 collisions

ATOMIC_POSITIONS (angstrom)
O       -0.020745593  -0.010965288   0.098124123
H        0.194337180   0.932382159  -0.138450901
H        0.134305881  -0.758674632  -0.480785647


     kinetic energy (Ekin) =     0.02712234 Ry
     temperature           =  1427.42450475 K 
     Ekin + Etot (const)   =   -33.68863818 Ry
     Message from routine dynamics:
     Total linear momentum <> 0

     Linear momentum :    0.2030085701    0.5158666840    0.4811441922

     Writing output data file pwscf.save

     second order wave-functions extrapolation
     Check: negative starting charge=   -0.070724
     second order charge density extrapolation
     Check: negative starting charge=   -0.070765

     negative rho (up, down):  1.262E-03 0.000E+00

     total cpu time spent up to now is     1314.1 secs

     per-process dynamical memory:    32.7 Mb

     Self-consistent Calculation

     iteration #  1     ecut=    60.00 Ry     beta=0.70
     Davidson diagonalization with overlap
     c_bands:  1 eigenvalues not converged
     ethr =  1.00E-06,  avg # of iterations = 20.0

     negative rho (up, down):  2.823E-04 0.000E+00

     total cpu time spent up to now is     1314.3 secs

     total energy              =     -33.71886468 Ry
     Harris-Foulkes estimate   =     -33.71888617 Ry
     estimated scf accuracy    <       0.00027665 Ry

     iteration #  2     ecut=    60.00 Ry     beta=0.70
     Davidson diagonalization with overlap
     ethr =  3.46E-06,  avg # of iterations =  4.0

     negative rho (up, down):  1.467E-04 0.000E+00

     total cpu time spent up to now is     1314.4 secs

     total energy              =     -33.71891509 Ry
     Harris-Foulkes estimate   =     -33.71902114 Ry
     estimated scf accuracy    <       0.00021422 Ry

     iteration #  3     ecut=    60.00 Ry     beta=0.70
     Davidson diagonalization with overlap
     ethr =  2.68E-06,  avg # of iterations =  2.0

     negative rho (up, down):  3.261E-06 0.000E+00

     total cpu time spent up to now is     1314.4 secs

     total energy              =     -33.71896132 Ry
     Harris-Foulkes estimate   =     -33.71896399 Ry
     estimated scf accuracy    <       0.00000474 Ry

     iteration #  4     ecut=    60.00 Ry     beta=0.70
     Davidson diagonalization with overlap
     ethr =  5.93E-08,  avg # of iterations =  8.0

     negative rho (up, down):  2.655E-08 0.000E+00

     total cpu time spent up to now is     1314.6 secs

     total energy              =     -33.71896226 Ry
     Harris-Foulkes estimate   =     -33.71896230 Ry
     estimated scf accuracy    <       0.00000008 Ry

     iteration #  5     ecut=    60.00 Ry     beta=0.70
     Davidson diagonalization with overlap
     ethr =  1.02E-09,  avg # of iterations =  2.0

     total cpu time spent up to now is     1314.6 secs

     End of self-consistent calculation

          k = 0.0000 0.0000 0.0000 ( 62669 PWs)   bands (ev):

   -25.0941 -13.6789  -8.2299  -6.9515  -0.9565   0.4029   0.7299   1.1144

     the Fermi energy is    -6.6382 ev

!    total energy              =     -33.71896228 Ry
     Harris-Foulkes estimate   =     -33.71896228 Ry
     estimated scf accuracy    <          3.6E-09 Ry

     convergence has been achieved in   5 iterations

     Forces acting on atoms (Ry/au):

     atom    1 type  2   force =    -0.03589406    0.04042796    0.09964605
     atom    2 type  1   force =     0.01063885   -0.04115414   -0.03854557
     atom    3 type  1   force =     0.02525521    0.00072617   -0.06110049

     Total force =     0.143235     Total SCF correction =     0.000339

     Entering Dynamics:    iteration =   998
                           time      =   0.4828 pico-seconds


     Andersen thermostat:    3 collisions

ATOMIC_POSITIONS (angstrom)
O       -0.021305635  -0.010883117   0.097013979
H        0.193841314   0.983402675  -0.123562794
H        0.143673692  -0.810996863  -0.478087316


     kinetic energy (Ekin) =     0.10129731 Ry
     temperature           =  5331.18681254 K 
     Ekin + Etot (const)   =   -33.61766498 Ry
     Message from routine dynamics:
     Total linear momentum <> 0

     Linear momentum :    0.0158184640    0.4794454132   -0.4439487190

     Writing output data file pwscf.save

     second order wave-functions extrapolation
     Check: negative starting charge=   -0.070765
     second order charge density extrapolation
     Check: negative starting charge=   -0.070598

     negative rho (up, down):  3.012E-03 0.000E+00

     total cpu time spent up to now is     1315.3 secs

     per-process dynamical memory:    32.7 Mb

     Self-consistent Calculation

     iteration #  1     ecut=    60.00 Ry     beta=0.70
     Davidson diagonalization with overlap
     c_bands:  1 eigenvalues not converged
     ethr =  1.00E-06,  avg # of iterations = 20.0

     negative rho (up, down):  7.337E-04 0.000E+00

     total cpu time spent up to now is     1315.5 secs

     total energy              =     -33.70748647 Ry
     Harris-Foulkes estimate   =     -33.70688455 Ry
     estimated scf accuracy    <       0.00202592 Ry

     iteration #  2     ecut=    60.00 Ry     beta=0.70
     Davidson diagonalization with overlap
     ethr =  2.53E-05,  avg # of iterations =  6.0

     negative rho (up, down):  4.181E-04 0.000E+00

     total cpu time spent up to now is     1315.6 secs

     total energy              =     -33.71188013 Ry
     Harris-Foulkes estimate   =     -33.71271328 Ry
     estimated scf accuracy    <       0.00168608 Ry

     iteration #  3     ecut=    60.00 Ry     beta=0.70
     Davidson diagonalization with overlap
     ethr =  2.11E-05,  avg # of iterations =  2.0

     negative rho (up, down):  2.012E-05 0.000E+00

     total cpu time spent up to now is     1315.7 secs

     total energy              =     -33.70817856 Ry
     Harris-Foulkes estimate   =     -33.70819241 Ry
     estimated scf accuracy    <       0.00004066 Ry

     iteration #  4     ecut=    60.00 Ry     beta=0.70
     Davidson diagonalization with overlap
     ethr =  5.08E-07,  avg # of iterations =  8.0

     negative rho (up, down):  4.762E-07 0.000E+00

     total cpu time spent up to now is     1315.8 secs

     total energy              =     -33.70818640 Ry
     Harris-Foulkes estimate   =     -33.70818636 Ry
     estimated scf accuracy    <       0.00000045 Ry

     iteration #  5     ecut=    60.00 Ry     beta=0.70
     Davidson diagonalization with overlap
     ethr =  5.60E-09,  avg # of iterations =  2.0

     total cpu time spent up to now is     1315.9 secs

     total energy              =     -33.70818636 Ry
     Harris-Foulkes estimate   =     -33.70818647 Ry
     estimated scf accuracy    <       0.00000002 Ry

     iteration #  6     ecut=    60.00 Ry     beta=0.70
     Davidson diagonalization with overlap
     ethr =  2.56E-10,  avg # of iterations =  2.0

     total cpu time spent up to now is     1316.0 secs

     End of self-consistent calculation

          k = 0.0000 0.0000 0.0000 ( 62669 PWs)   bands (ev):

   -24.6370 -13.3510  -8.0078  -6.8432  -1.1587   0.3334   0.6365   1.1051

     the Fermi energy is    -6.5299 ev

!    total energy              =     -33.70818638 Ry
     Harris-Foulkes estimate   =     -33.70818637 Ry
     estimated scf accuracy    <          5.7E-10 Ry

     convergence has been achieved in   6 iterations

     Forces acting on atoms (Ry/au):

     atom    1 type  2   force =    -0.02036947    0.03859810    0.05844162
     atom    2 type  1   force =     0.00278735   -0.09701530   -0.03285086
     atom    3 type  1   force =     0.01758212    0.05841720   -0.02559076

     Total force =     0.142111     Total SCF correction =     0.000074

     Entering Dynamics:    iteration =   999
                           time      =   0.4833 pico-seconds


     Andersen thermostat:    3 collisions

ATOMIC_POSITIONS (angstrom)
O       -0.019209582  -0.009913417   0.100990101
H        0.152422475   0.976143568  -0.125547001
H        0.151887731  -0.819099332  -0.539091172


     kinetic energy (Ekin) =     0.09827017 Ry
     temperature           =  5171.87161978 K 
     Ekin + Etot (const)   =   -33.60991621 Ry
     Message from routine dynamics:
     Total linear momentum <> 0

     Linear momentum :    0.1820581830    0.3492064355    0.1217082134

     Writing output data file pwscf.save

     second order wave-functions extrapolation
     Check: negative starting charge=   -0.070598
     second order charge density extrapolation
     Check: negative starting charge=   -0.070565

     negative rho (up, down):  5.467E-03 0.000E+00

     total cpu time spent up to now is     1316.6 secs

     per-process dynamical memory:    32.7 Mb

     Self-consistent Calculation

     iteration #  1     ecut=    60.00 Ry     beta=0.70
     Davidson diagonalization with overlap
     c_bands:  1 eigenvalues not converged
     ethr =  1.00E-06,  avg # of iterations = 20.0

     negative rho (up, down):  1.360E-03 0.000E+00

     total cpu time spent up to now is     1316.8 secs

     total energy              =     -33.70832995 Ry
     Harris-Foulkes estimate   =     -33.70409295 Ry
     estimated scf accuracy    <       0.00113119 Ry

     iteration #  2     ecut=    60.00 Ry     beta=0.70
     Davidson diagonalization with overlap
     ethr =  1.41E-05,  avg # of iterations =  6.0

     negative rho (up, down):  7.761E-04 0.000E+00

     total cpu time spent up to now is     1316.9 secs

     total energy              =     -33.70861887 Ry
     Harris-Foulkes estimate   =     -33.70890511 Ry
     estimated scf accuracy    <       0.00085114 Ry

     iteration #  3     ecut=    60.00 Ry     beta=0.70
     Davidson diagonalization with overlap
     ethr =  1.06E-05,  avg # of iterations =  3.0

     negative rho (up, down):  3.840E-05 0.000E+00

     total cpu time spent up to now is     1317.0 secs

     total energy              =     -33.70883635 Ry
     Harris-Foulkes estimate   =     -33.70883015 Ry
     estimated scf accuracy    <       0.00003906 Ry

     iteration #  4     ecut=    60.00 Ry     beta=0.70
     Davidson diagonalization with overlap
     ethr =  4.88E-07,  avg # of iterations =  5.0

     negative rho (up, down):  4.142E-07 0.000E+00

     total cpu time spent up to now is     1317.1 secs

     total energy              =     -33.70884136 Ry
     Harris-Foulkes estimate   =     -33.70884436 Ry
     estimated scf accuracy    <       0.00000057 Ry

     iteration #  5     ecut=    60.00 Ry     beta=0.70
     Davidson diagonalization with overlap
     ethr =  7.10E-09,  avg # of iterations =  2.0

     total cpu time spent up to now is     1317.2 secs

     total energy              =     -33.71291856 Ry
     Harris-Foulkes estimate   =     -33.71291904 Ry
     estimated scf accuracy    <       0.00000003 Ry

     iteration #  6     ecut=    60.00 Ry     beta=0.70
     Davidson diagonalization with overlap
     ethr =  3.19E-10,  avg # of iterations =  2.0

     total cpu time spent up to now is     1317.3 secs

     End of self-consistent calculation

          k = 0.0000 0.0000 0.0000 ( 62669 PWs)   bands (ev):

   -24.5122 -13.1340  -8.0744  -6.8228  -1.2167   0.3230   0.5952   1.1018

     the Fermi energy is    -4.9615 ev

!    total energy              =     -33.71291852 Ry
     Harris-Foulkes estimate   =     -33.71291857 Ry
     estimated scf accuracy    <          6.0E-10 Ry

     convergence has been achieved in   6 iterations

     Forces acting on atoms (Ry/au):

     atom    1 type  2   force =    -0.00986239   -0.02575356    0.02339522
     atom    2 type  1   force =     0.00684744   -0.07603203   -0.03725511
     atom    3 type  1   force =     0.00301496    0.10178559    0.01385988

     Total force =     0.138149     Total SCF correction =     0.000125

     Entering Dynamics:    iteration =  1000
                           time      =   0.4838 pico-seconds


     Andersen thermostat:    3 collisions

ATOMIC_POSITIONS (angstrom)
O       -0.022432767  -0.010869026   0.098963443
H        0.177565038   0.960301622  -0.131973379
H        0.177805524  -0.788119032  -0.500559319


     kinetic energy (Ekin) =     0.06908311 Ry
     temperature           =  3635.78268252 K 
     Ekin + Etot (const)   =   -33.64383541 Ry
     Message from routine dynamics:
     Total linear momentum <> 0

     Linear momentum :    0.1548447910   -0.0893772644    0.5059377635

     The maximum number of steps has been reached.

     End of molecular dynamics calculation

     diffusion coefficients :
     atom     1   D =       0.00000004 cm^2/s
     atom     2   D =       0.00000653 cm^2/s
     atom     3   D =       0.00000113 cm^2/s

     < D > =       0.00000256 cm^2/s

     Writing output data file pwscf.save
 
     init_run     :      0.24s CPU      0.28s WALL (       1 calls)
     electrons    :    601.99s CPU    766.14s WALL (    1000 calls)
     update_pot   :    277.25s CPU    382.01s WALL (     999 calls)
     forces       :     62.70s CPU     69.64s WALL (    1000 calls)

     Called by init_run:
     wfcinit      :      0.02s CPU      0.03s WALL (       1 calls)
     potinit      :      0.05s CPU      0.06s WALL (       1 calls)

     Called by electrons:
     c_bands      :    299.69s CPU    307.08s WALL (    5431 calls)
     sum_band     :     43.67s CPU     45.76s WALL (    5431 calls)
     v_of_rho     :    130.28s CPU    134.68s WALL (    6431 calls)
     mix_rho      :     57.55s CPU    103.38s WALL (    5431 calls)

     Called by c_bands:
     init_us_2    :      1.63s CPU      1.87s WALL (   10863 calls)
     cegterg      :    297.48s CPU    303.21s WALL (    5431 calls)

     Called by sum_band:

     Called by *egterg:
     h_psi        :    243.41s CPU    247.65s WALL (   48833 calls)
     g_psi        :      2.84s CPU      2.89s WALL (   43401 calls)
     cdiaghg      :     11.04s CPU     11.38s WALL (   47833 calls)

     Called by h_psi:
     h_psi:pot    :    240.94s CPU    245.12s WALL (   48833 calls)
     h_psi:calbec :      4.32s CPU      4.98s WALL (   48833 calls)
     vloc_psi     :    235.60s CPU    239.10s WALL (   48833 calls)
     add_vuspsi   :      0.79s CPU      0.81s WALL (   48833 calls)

     General routines
     calbec       :     21.26s CPU     28.71s WALL (   53831 calls)
     fft          :     86.48s CPU     90.70s WALL (   72740 calls)
     fftw         :    233.99s CPU    238.34s WALL (  417920 calls)
     davcio       :      6.43s CPU     44.95s WALL (   36179 calls)
 
     Parallel routines
     fft_scatter  :    114.59s CPU    120.41s WALL (  490660 calls)
 
     PWSCF        : 16m20.73s CPU    21m57.77s WALL

 
   This run was terminated on:  20:59:17  19Apr2018            

=------------------------------------------------------------------------------=
   JOB DONE.
=------------------------------------------------------------------------------=
