
     Program PWSCF v.6.0 (svn rev. 13079) starts on 13Apr2018 at 20:54:29 

     This program is part of the open-source Quantum ESPRESSO suite
     for quantum simulation of materials; please cite
         "P. Giannozzi et al., J. Phys.:Condens. Matter 21 395502 (2009);
          URL http://www.quantum-espresso.org", 
     in publications or presentations arising from this work. More details at
     http://www.quantum-espresso.org/quote

     Parallel version (MPI), running on    28 processors
     R & G space division:  proc/nbgrp/npool/nimage =      28
     Reading input from ../H2O-1000x.in

     Current dimensions of program PWSCF are:
     Max number of different atomic species (ntypx) = 10
     Max number of k-points (npk) =  40000
     Max angular momentum in pseudopotentials (lmaxx) =  3

     Subspace diagonalization in iterative solution of the eigenvalue problem:
     a serial algorithm will be used

 
     Parallelization info
     --------------------
     sticks:   dense  smooth     PW     G-vecs:    dense   smooth      PW
     Min         273     273     67                17945    17945    2235
     Max         274     274     68                17950    17950    2240
     Sum        7645    7645   1901               502479   502479   62669
 


     bravais-lattice index     =            1
     lattice parameter (alat)  =      20.0000  a.u.
     unit-cell volume          =    8000.0000 (a.u.)^3
     number of atoms/cell      =            3
     number of atomic types    =            2
     number of electrons       =         8.00
     number of Kohn-Sham states=            4
     kinetic-energy cutoff     =      60.0000  Ry
     charge density cutoff     =     240.0000  Ry
     convergence threshold     =      1.0E-08
     mixing beta               =       0.7000
     number of iterations used =            8  plain     mixing
     Exchange-correlation      = BLYP ( 1  3  1  3 0 0)
     nstep                     =         1000


     celldm(1)=  20.000000  celldm(2)=   0.000000  celldm(3)=   0.000000
     celldm(4)=   0.000000  celldm(5)=   0.000000  celldm(6)=   0.000000

     crystal axes: (cart. coord. in units of alat)
               a(1) = (   1.000000   0.000000   0.000000 )  
               a(2) = (   0.000000   1.000000   0.000000 )  
               a(3) = (   0.000000   0.000000   1.000000 )  

     reciprocal axes: (cart. coord. in units 2 pi/alat)
               b(1) = (  1.000000  0.000000  0.000000 )  
               b(2) = (  0.000000  1.000000  0.000000 )  
               b(3) = (  0.000000  0.000000  1.000000 )  


     PseudoPot. # 1 for  H read from file:
     ./H.blyp-hgh.UPF
     MD5 check sum: c576e69559cde411e611be972c763230
     Pseudo is Norm-conserving, Zval =  1.0
     Generated in analytical, separable form
     Using radial grid of  929 points,  0 beta functions with: 

     PseudoPot. # 2 for  O read from file:
     ./O.blyp-hgh.UPF
     MD5 check sum: d0b7156309aa9befef28faac7bc56342
     Pseudo is Norm-conserving, Zval =  6.0
     Generated in analytical, separable form
     Using radial grid of 1095 points,  1 beta functions with: 
                l(1) =   0

     atomic species   valence    mass     pseudopotential
        H              1.00     1.01000      H( 1.00)
        O              6.00    16.00000      O( 1.00)

     No symmetry found



   Cartesian axes

     site n.     atom                  positions (alat units)
         1           O   tau(   1) = (   0.0000000   0.0000000   0.0112686  )
         2           H   tau(   2) = (   0.0000000   0.0721156  -0.0450744  )
         3           H   tau(   3) = (   0.0000000  -0.0721156  -0.0450744  )

     number of k points=     1
                       cart. coord. in units 2pi/alat
        k(    1) = (   0.0000000   0.0000000   0.0000000), wk =   2.0000000

     Dense  grid:   502479 G-vectors     FFT dimensions: ( 100, 100, 100)

     Estimated max dynamical RAM per process >      17.25Mb

     Estimated total allocated dynamical RAM >     483.03Mb

     Initial potential from superposition of free atoms
     Check: negative starting charge=   -0.071145

     starting charge    7.99998, renormalised to    8.00000

     negative rho (up, down):  7.115E-02 0.000E+00
     Starting wfc are    6 randomized atomic wfcs

     total cpu time spent up to now is        2.0 secs

     per-process dynamical memory:    29.7 Mb

     Self-consistent Calculation

     iteration #  1     ecut=    60.00 Ry     beta=0.70
     Davidson diagonalization with overlap
     ethr =  1.00E-02,  avg # of iterations =  2.0

     negative rho (up, down):  2.059E-02 0.000E+00

     total cpu time spent up to now is        2.7 secs

     total energy              =     -33.64323775 Ry
     Harris-Foulkes estimate   =     -33.72909278 Ry
     estimated scf accuracy    <       0.22787228 Ry

     iteration #  2     ecut=    60.00 Ry     beta=0.70
     Davidson diagonalization with overlap
     ethr =  2.85E-03,  avg # of iterations =  2.0

     negative rho (up, down):  1.213E-02 0.000E+00

     total cpu time spent up to now is        2.8 secs

     total energy              =     -33.68611622 Ry
     Harris-Foulkes estimate   =     -33.76840859 Ry
     estimated scf accuracy    <       0.18751303 Ry

     iteration #  3     ecut=    60.00 Ry     beta=0.70
     Davidson diagonalization with overlap
     ethr =  2.34E-03,  avg # of iterations =  2.0

     negative rho (up, down):  1.497E-06 0.000E+00

     total cpu time spent up to now is        2.9 secs

     total energy              =     -33.74057551 Ry
     Harris-Foulkes estimate   =     -33.72921113 Ry
     estimated scf accuracy    <       0.00536983 Ry

     iteration #  4     ecut=    60.00 Ry     beta=0.70
     Davidson diagonalization with overlap
     ethr =  6.71E-05,  avg # of iterations =  2.0

     negative rho (up, down):  2.387E-04 0.000E+00

     total cpu time spent up to now is        3.0 secs

     total energy              =     -33.74204427 Ry
     Harris-Foulkes estimate   =     -33.74213841 Ry
     estimated scf accuracy    <       0.00025821 Ry

     iteration #  5     ecut=    60.00 Ry     beta=0.70
     Davidson diagonalization with overlap
     ethr =  3.23E-06,  avg # of iterations =  2.0

     negative rho (up, down):  2.476E-05 0.000E+00

     total cpu time spent up to now is        3.0 secs

     total energy              =     -33.74205302 Ry
     Harris-Foulkes estimate   =     -33.74206588 Ry
     estimated scf accuracy    <       0.00002870 Ry

     iteration #  6     ecut=    60.00 Ry     beta=0.70
     Davidson diagonalization with overlap
     ethr =  3.59E-07,  avg # of iterations =  2.0

     negative rho (up, down):  2.915E-08 0.000E+00

     total cpu time spent up to now is        3.1 secs

     total energy              =     -33.74205624 Ry
     Harris-Foulkes estimate   =     -33.74205759 Ry
     estimated scf accuracy    <       0.00000158 Ry

     iteration #  7     ecut=    60.00 Ry     beta=0.70
     Davidson diagonalization with overlap
     ethr =  1.98E-08,  avg # of iterations =  2.0

     total cpu time spent up to now is        3.2 secs

     total energy              =     -33.74205625 Ry
     Harris-Foulkes estimate   =     -33.74205646 Ry
     estimated scf accuracy    <       0.00000004 Ry

     iteration #  8     ecut=    60.00 Ry     beta=0.70
     Davidson diagonalization with overlap
     ethr =  5.15E-10,  avg # of iterations =  2.0

     total cpu time spent up to now is        3.3 secs

     total energy              =     -33.74205615 Ry
     Harris-Foulkes estimate   =     -33.74205625 Ry
     estimated scf accuracy    <       0.00000002 Ry

     iteration #  9     ecut=    60.00 Ry     beta=0.70
     Davidson diagonalization with overlap
     ethr =  2.13E-10,  avg # of iterations =  2.0

     total cpu time spent up to now is        3.3 secs

     End of self-consistent calculation

          k = 0.0000 0.0000 0.0000 ( 62669 PWs)   bands (ev):

   -25.4809 -12.9152  -9.2076  -7.0606

     highest occupied level (ev):    -7.0606

!    total energy              =     -33.74205614 Ry
     Harris-Foulkes estimate   =     -33.74205615 Ry
     estimated scf accuracy    <          1.2E-09 Ry

     convergence has been achieved in   9 iterations

     Forces acting on atoms (Ry/au):

     atom    1 type  2   force =     0.00000000   -0.00000007    0.05215844
     atom    2 type  1   force =    -0.00000001    0.02845865   -0.02607930
     atom    3 type  1   force =     0.00000000   -0.02845858   -0.02607914

     Total force =     0.075502     Total SCF correction =     0.000067

     Molecular Dynamics Calculation

     Starting temperature  =    10.00 K

     temperature is controlled by Andersen thermostat
     Collision frequency = 1.0000/timestep
     mass H                =     1.01
     mass O                =    16.00
     Time step             =    10.00 a.u.,  0.4838 femto-seconds

     Entering Dynamics:    iteration =     1
                           time      =   0.0005 pico-seconds


     Andersen thermostat:    3 collisions

ATOMIC_POSITIONS (angstrom)
O       -0.000042661  -0.000060097   0.119181413
H        0.000287202   0.765016404  -0.476624100
H        0.000388618  -0.764064372  -0.476193269


     kinetic energy (Ekin) =     0.00009323 Ry
     temperature           =     4.90642674 K 
     Ekin + Etot (const)   =   -33.74196291 Ry

     Linear momentum :   -0.0000000000   -0.0000000000   -0.0000000000

     Writing output data file pwscf.save
     Check: negative starting charge=   -0.071145
     NEW-OLD atomic charge density approx. for the potential
     Check: negative starting charge=   -0.071143

     negative rho (up, down):  4.656E-05 0.000E+00

     total cpu time spent up to now is        4.3 secs

     per-process dynamical memory:    32.0 Mb

     Self-consistent Calculation

     iteration #  1     ecut=    60.00 Ry     beta=0.70
     Davidson diagonalization with overlap
     ethr =  1.00E-06,  avg # of iterations =  2.0

     Threshold (ethr) on eigenvalues was too large:
     Diagonalizing with lowered threshold

     Davidson diagonalization with overlap
     ethr =  1.02E-08,  avg # of iterations =  2.0

     negative rho (up, down):  3.878E-06 0.000E+00

     total cpu time spent up to now is        4.4 secs

     total energy              =     -33.74212583 Ry
     Harris-Foulkes estimate   =     -33.74212739 Ry
     estimated scf accuracy    <       0.00000098 Ry

     iteration #  2     ecut=    60.00 Ry     beta=0.70
     Davidson diagonalization with overlap
     ethr =  1.22E-08,  avg # of iterations =  2.0

     negative rho (up, down):  7.658E-07 0.000E+00

     total cpu time spent up to now is        4.5 secs

     total energy              =     -33.74212571 Ry
     Harris-Foulkes estimate   =     -33.74212614 Ry
     estimated scf accuracy    <       0.00000032 Ry

     iteration #  3     ecut=    60.00 Ry     beta=0.70
     Davidson diagonalization with overlap
     ethr =  4.01E-09,  avg # of iterations =  2.0

     total cpu time spent up to now is        4.6 secs

     total energy              =     -33.74212540 Ry
     Harris-Foulkes estimate   =     -33.74212582 Ry
     estimated scf accuracy    <       0.00000005 Ry

     iteration #  4     ecut=    60.00 Ry     beta=0.70
     Davidson diagonalization with overlap
     ethr =  5.72E-10,  avg # of iterations =  2.0

     total cpu time spent up to now is        4.6 secs

     End of self-consistent calculation

          k = 0.0000 0.0000 0.0000 ( 62669 PWs)   bands (ev):

   -25.4717 -12.9178  -9.1986  -7.0589

     highest occupied level (ev):    -7.0589

!    total energy              =     -33.74212528 Ry
     Harris-Foulkes estimate   =     -33.74212541 Ry
     estimated scf accuracy    <          4.6E-10 Ry

     convergence has been achieved in   4 iterations

     Forces acting on atoms (Ry/au):

     atom    1 type  2   force =     0.00002240    0.00171587    0.05164126
     atom    2 type  1   force =    -0.00001380    0.02631138   -0.02518087
     atom    3 type  1   force =    -0.00000861   -0.02802725   -0.02646039

     Total force =     0.074039     Total SCF correction =     0.000361

     Entering Dynamics:    iteration =     2
                           time      =   0.0010 pico-seconds


     Andersen thermostat:    3 collisions

ATOMIC_POSITIONS (angstrom)
O       -0.000045039  -0.000175401   0.119587786
H        0.001100443   0.767795688  -0.480856576
H       -0.000386948  -0.765017056  -0.478398383


     kinetic energy (Ekin) =     0.00038362 Ry
     temperature           =    20.18956590 K 
     Ekin + Etot (const)   =   -33.74174166 Ry
     Message from routine dynamics:
     Total linear momentum <> 0

     Linear momentum :    0.0062895486    0.0006201499   -0.0487816190

     Writing output data file pwscf.save

     first order wave-functions extrapolation
     Check: negative starting charge=   -0.071143
     first order charge density extrapolation
     Check: negative starting charge=   -0.071148

     negative rho (up, down):  3.623E-04 0.000E+00

     total cpu time spent up to now is        5.6 secs

     per-process dynamical memory:    32.0 Mb

     Self-consistent Calculation

     iteration #  1     ecut=    60.00 Ry     beta=0.70
     Davidson diagonalization with overlap
     ethr =  1.00E-06,  avg # of iterations =  3.0

     negative rho (up, down):  6.354E-05 0.000E+00

     total cpu time spent up to now is        5.8 secs

     total energy              =     -33.74258460 Ry
     Harris-Foulkes estimate   =     -33.74260575 Ry
     estimated scf accuracy    <       0.00002510 Ry

     iteration #  2     ecut=    60.00 Ry     beta=0.70
     Davidson diagonalization with overlap
     ethr =  3.14E-07,  avg # of iterations =  3.0

     negative rho (up, down):  2.893E-05 0.000E+00

     total cpu time spent up to now is        5.8 secs

     total energy              =     -33.74258853 Ry
     Harris-Foulkes estimate   =     -33.74260115 Ry
     estimated scf accuracy    <       0.00002209 Ry

     iteration #  3     ecut=    60.00 Ry     beta=0.70
     Davidson diagonalization with overlap
     ethr =  2.76E-07,  avg # of iterations =  2.0

     negative rho (up, down):  2.046E-07 0.000E+00

     total cpu time spent up to now is        5.9 secs

     total energy              =     -33.74259369 Ry
     Harris-Foulkes estimate   =     -33.74259322 Ry
     estimated scf accuracy    <       0.00000019 Ry

     iteration #  4     ecut=    60.00 Ry     beta=0.70
     Davidson diagonalization with overlap
     ethr =  2.35E-09,  avg # of iterations =  2.0

     total cpu time spent up to now is        6.0 secs

     total energy              =     -33.74259394 Ry
     Harris-Foulkes estimate   =     -33.74259380 Ry
     estimated scf accuracy    <       0.00000001 Ry

     iteration #  5     ecut=    60.00 Ry     beta=0.70
     Davidson diagonalization with overlap
     ethr =  1.30E-10,  avg # of iterations =  2.0

     total cpu time spent up to now is        6.0 secs

     End of self-consistent calculation

          k = 0.0000 0.0000 0.0000 ( 62669 PWs)   bands (ev):

   -25.4344 -12.8734  -9.2031  -7.0526

     highest occupied level (ev):    -7.0526

!    total energy              =     -33.74259407 Ry
     Harris-Foulkes estimate   =     -33.74259394 Ry
     estimated scf accuracy    <          9.6E-10 Ry

     convergence has been achieved in   5 iterations

     Forces acting on atoms (Ry/au):

     atom    1 type  2   force =    -0.00008947    0.00561136    0.04306396
     atom    2 type  1   force =     0.00006335    0.01941860   -0.01931690
     atom    3 type  1   force =     0.00002612   -0.02502997   -0.02374706

     Total force =     0.061860     Total SCF correction =     0.000457

     Entering Dynamics:    iteration =     3
                           time      =   0.0015 pico-seconds


     Andersen thermostat:    3 collisions

ATOMIC_POSITIONS (angstrom)
O        0.000005860  -0.000214781   0.119826259
H        0.001912354   0.769263592  -0.482613475
H       -0.002005190  -0.765861128  -0.480419277


     kinetic energy (Ekin) =     0.00013468 Ry
     temperature           =     7.08787243 K 
     Ekin + Etot (const)   =   -33.74245939 Ry
     Message from routine dynamics:
     Total linear momentum <> 0

     Linear momentum :   -0.0159045047   -0.0068393267    0.0131516092

     Writing output data file pwscf.save

     second order wave-functions extrapolation
     Check: negative starting charge=   -0.071148
     second order charge density extrapolation
     Check: negative starting charge=   -0.071151

     negative rho (up, down):  1.941E-05 0.000E+00

     total cpu time spent up to now is        6.7 secs

     per-process dynamical memory:    32.0 Mb

     Self-consistent Calculation

     iteration #  1     ecut=    60.00 Ry     beta=0.70
     Davidson diagonalization with overlap
     ethr =  1.00E-06,  avg # of iterations =  2.0

     Threshold (ethr) on eigenvalues was too large:
     Diagonalizing with lowered threshold

     Davidson diagonalization with overlap
     ethr =  4.86E-09,  avg # of iterations =  2.0

     negative rho (up, down):  1.286E-06 0.000E+00

     total cpu time spent up to now is        6.8 secs

     total energy              =     -33.74283677 Ry
     Harris-Foulkes estimate   =     -33.74283697 Ry
     estimated scf accuracy    <       0.00000048 Ry

     iteration #  2     ecut=    60.00 Ry     beta=0.70
     Davidson diagonalization with overlap
     ethr =  5.99E-09,  avg # of iterations =  2.0

     negative rho (up, down):  2.500E-07 0.000E+00

     total cpu time spent up to now is        6.9 secs

     total energy              =     -33.74283679 Ry
     Harris-Foulkes estimate   =     -33.74283692 Ry
     estimated scf accuracy    <       0.00000019 Ry

     iteration #  3     ecut=    60.00 Ry     beta=0.70
     Davidson diagonalization with overlap
     ethr =  2.31E-09,  avg # of iterations =  2.0

     total cpu time spent up to now is        6.9 secs

     total energy              =     -33.74283690 Ry
     Harris-Foulkes estimate   =     -33.74283685 Ry
     estimated scf accuracy    <       0.00000003 Ry

     iteration #  4     ecut=    60.00 Ry     beta=0.70
     Davidson diagonalization with overlap
     ethr =  3.29E-10,  avg # of iterations =  2.0

     total cpu time spent up to now is        7.0 secs

     End of self-consistent calculation

          k = 0.0000 0.0000 0.0000 ( 62669 PWs)   bands (ev):

   -25.4120 -12.8473  -9.2053  -7.0489

     highest occupied level (ev):    -7.0489

!    total energy              =     -33.74283690 Ry
     Harris-Foulkes estimate   =     -33.74283690 Ry
     estimated scf accuracy    <          2.4E-10 Ry

     convergence has been achieved in   4 iterations

     Forces acting on atoms (Ry/au):

     atom    1 type  2   force =    -0.00002801    0.00598454    0.03850443
     atom    2 type  1   force =     0.00006215    0.01630352   -0.01685362
     atom    3 type  1   force =    -0.00003414   -0.02228806   -0.02165081

     Total force =     0.055080     Total SCF correction =     0.000123

     Entering Dynamics:    iteration =     4
                           time      =   0.0019 pico-seconds


     Andersen thermostat:    3 collisions

ATOMIC_POSITIONS (angstrom)
O        0.000069661  -0.000094654   0.119806592
H        0.002166825   0.767898362  -0.482074536
H       -0.003270364  -0.766398894  -0.480646656


     kinetic energy (Ekin) =     0.00013937 Ry
     temperature           =     7.33517761 K 
     Ekin + Etot (const)   =   -33.74269752 Ry
     Message from routine dynamics:
     Total linear momentum <> 0

     Linear momentum :    0.0304732395   -0.0388027532   -0.0087373910

     Writing output data file pwscf.save

     second order wave-functions extrapolation
     Check: negative starting charge=   -0.071151
     second order charge density extrapolation
     Check: negative starting charge=   -0.071152

     negative rho (up, down):  2.622E-05 0.000E+00

     total cpu time spent up to now is        7.5 secs

     per-process dynamical memory:    32.0 Mb

     Self-consistent Calculation

     iteration #  1     ecut=    60.00 Ry     beta=0.70
     Davidson diagonalization with overlap
     ethr =  1.00E-06,  avg # of iterations =  2.0

     Threshold (ethr) on eigenvalues was too large:
     Diagonalizing with lowered threshold

     Davidson diagonalization with overlap
     ethr =  1.53E-09,  avg # of iterations =  3.0

     negative rho (up, down):  1.884E-06 0.000E+00

     total cpu time spent up to now is        7.7 secs

     total energy              =     -33.74280596 Ry
     Harris-Foulkes estimate   =     -33.74280594 Ry
     estimated scf accuracy    <       0.00000013 Ry

     iteration #  2     ecut=    60.00 Ry     beta=0.70
     Davidson diagonalization with overlap
     ethr =  1.62E-09,  avg # of iterations =  2.0

     negative rho (up, down):  3.021E-08 0.000E+00

     total cpu time spent up to now is        7.7 secs

     total energy              =     -33.74280618 Ry
     Harris-Foulkes estimate   =     -33.74280598 Ry
     estimated scf accuracy    <       0.00000001 Ry

     iteration #  3     ecut=    60.00 Ry     beta=0.70
     Davidson diagonalization with overlap
     ethr =  1.49E-10,  avg # of iterations =  2.0

     total cpu time spent up to now is        7.8 secs

     End of self-consistent calculation

          k = 0.0000 0.0000 0.0000 ( 62669 PWs)   bands (ev):

   -25.4170 -12.8508  -9.2068  -7.0499

     highest occupied level (ev):    -7.0499

!    total energy              =     -33.74280615 Ry
     Harris-Foulkes estimate   =     -33.74280619 Ry
     estimated scf accuracy    <          2.7E-09 Ry

     convergence has been achieved in   3 iterations

     Forces acting on atoms (Ry/au):

     atom    1 type  2   force =     0.00003127    0.00270123    0.03927301
     atom    2 type  1   force =     0.00005499    0.01857843   -0.01841883
     atom    3 type  1   force =    -0.00008626   -0.02127966   -0.02085418

     Total force =     0.055873     Total SCF correction =     0.000609

     Entering Dynamics:    iteration =     5
                           time      =   0.0024 pico-seconds


     Andersen thermostat:    3 collisions

ATOMIC_POSITIONS (angstrom)
O        0.000008464   0.000044820   0.119723071
H        0.001974097   0.767818271  -0.480785366
H       -0.002108181  -0.768528293  -0.480612725


     kinetic energy (Ekin) =     0.00015954 Ry
     temperature           =     8.39655888 K 
     Ekin + Etot (const)   =   -33.74264661 Ry
     Message from routine dynamics:
     Total linear momentum <> 0

     Linear momentum :   -0.0039922512    0.0379379767    0.0126859328

     Writing output data file pwscf.save

     second order wave-functions extrapolation
     Check: negative starting charge=   -0.071152
     second order charge density extrapolation
     Check: negative starting charge=   -0.071149

     negative rho (up, down):  6.451E-05 0.000E+00

     total cpu time spent up to now is        8.4 secs

     per-process dynamical memory:    32.0 Mb

     Self-consistent Calculation

     iteration #  1     ecut=    60.00 Ry     beta=0.70
     Davidson diagonalization with overlap
     ethr =  1.00E-06,  avg # of iterations =  2.0

     Threshold (ethr) on eigenvalues was too large:
     Diagonalizing with lowered threshold

     Davidson diagonalization with overlap
     ethr =  2.52E-08,  avg # of iterations =  2.0

     negative rho (up, down):  6.142E-06 0.000E+00

     total cpu time spent up to now is        8.5 secs

     total energy              =     -33.74283361 Ry
     Harris-Foulkes estimate   =     -33.74283617 Ry
     estimated scf accuracy    <       0.00000253 Ry

     iteration #  2     ecut=    60.00 Ry     beta=0.70
     Davidson diagonalization with overlap
     ethr =  3.16E-08,  avg # of iterations =  2.0

     negative rho (up, down):  1.712E-06 0.000E+00

     total cpu time spent up to now is        8.6 secs

     total energy              =     -33.74283372 Ry
     Harris-Foulkes estimate   =     -33.74283470 Ry
     estimated scf accuracy    <       0.00000134 Ry

     iteration #  3     ecut=    60.00 Ry     beta=0.70
     Davidson diagonalization with overlap
     ethr =  1.68E-08,  avg # of iterations =  2.0

     negative rho (up, down):  1.186E-08 0.000E+00

     total cpu time spent up to now is        8.6 secs

     total energy              =     -33.74283397 Ry
     Harris-Foulkes estimate   =     -33.74283409 Ry
     estimated scf accuracy    <       0.00000008 Ry

     iteration #  4     ecut=    60.00 Ry     beta=0.70
     Davidson diagonalization with overlap
     ethr =  9.46E-10,  avg # of iterations =  2.0

     total cpu time spent up to now is        8.7 secs

     End of self-consistent calculation

          k = 0.0000 0.0000 0.0000 ( 62669 PWs)   bands (ev):

   -25.4107 -12.8545  -9.1989  -7.0485

     highest occupied level (ev):    -7.0485

!    total energy              =     -33.74283394 Ry
     Harris-Foulkes estimate   =     -33.74283399 Ry
     estimated scf accuracy    <          1.0E-09 Ry

     convergence has been achieved in   4 iterations

     Forces acting on atoms (Ry/au):

     atom    1 type  2   force =     0.00011387   -0.00097139    0.03919189
     atom    2 type  1   force =    -0.00000403    0.01955250   -0.01989115
     atom    3 type  1   force =    -0.00010984   -0.01858111   -0.01930074

     Total force =     0.055070     Total SCF correction =     0.000491

     Entering Dynamics:    iteration =     6
                           time      =   0.0029 pico-seconds


     Andersen thermostat:    3 collisions

ATOMIC_POSITIONS (angstrom)
O        0.000145121   0.000252020   0.119771636
H        0.001087369   0.766482782  -0.480144956
H       -0.003386316  -0.770475185  -0.482022478


     kinetic energy (Ekin) =     0.00020140 Ry
     temperature           =    10.59958026 K 
     Ekin + Etot (const)   =   -33.74263254 Ry
     Message from routine dynamics:
     Total linear momentum <> 0

     Linear momentum :    0.0354019365    0.0107186262    0.0069968191

     Writing output data file pwscf.save

     second order wave-functions extrapolation
     Check: negative starting charge=   -0.071149
     second order charge density extrapolation
     Check: negative starting charge=   -0.071149

     negative rho (up, down):  5.858E-05 0.000E+00

     total cpu time spent up to now is        9.3 secs

     per-process dynamical memory:    32.0 Mb

     Self-consistent Calculation

     iteration #  1     ecut=    60.00 Ry     beta=0.70
     Davidson diagonalization with overlap
     ethr =  1.00E-06,  avg # of iterations =  2.0

     Threshold (ethr) on eigenvalues was too large:
     Diagonalizing with lowered threshold

     Davidson diagonalization with overlap
     ethr =  1.22E-08,  avg # of iterations =  3.0

     negative rho (up, down):  5.440E-06 0.000E+00

     total cpu time spent up to now is        9.4 secs

     total energy              =     -33.74286588 Ry
     Harris-Foulkes estimate   =     -33.74286761 Ry
     estimated scf accuracy    <       0.00000198 Ry

     iteration #  2     ecut=    60.00 Ry     beta=0.70
     Davidson diagonalization with overlap
     ethr =  2.47E-08,  avg # of iterations =  3.0

     negative rho (up, down):  1.930E-06 0.000E+00

     total cpu time spent up to now is        9.5 secs

     total energy              =     -33.74286629 Ry
     Harris-Foulkes estimate   =     -33.74286722 Ry
     estimated scf accuracy    <       0.00000187 Ry

     iteration #  3     ecut=    60.00 Ry     beta=0.70
     Davidson diagonalization with overlap
     ethr =  2.33E-08,  avg # of iterations =  2.0

     total cpu time spent up to now is        9.6 secs

     total energy              =     -33.74286705 Ry
     Harris-Foulkes estimate   =     -33.74286668 Ry
     estimated scf accuracy    <       0.00000001 Ry

     iteration #  4     ecut=    60.00 Ry     beta=0.70
     Davidson diagonalization with overlap
     ethr =  1.82E-10,  avg # of iterations =  3.0

     total cpu time spent up to now is        9.6 secs

     End of self-consistent calculation

          k = 0.0000 0.0000 0.0000 ( 62669 PWs)   bands (ev):

   -25.4054 -12.8488  -9.1990  -7.0475

     highest occupied level (ev):    -7.0475

!    total energy              =     -33.74286710 Ry
     Harris-Foulkes estimate   =     -33.74286706 Ry
     estimated scf accuracy    <          1.4E-09 Ry

     convergence has been achieved in   4 iterations

     Forces acting on atoms (Ry/au):

     atom    1 type  2   force =     0.00002522   -0.00647358    0.03794989
     atom    2 type  1   force =     0.00003667    0.02165282   -0.02155518
     atom    3 type  1   force =    -0.00006189   -0.01517924   -0.01639471

     Total force =     0.053989     Total SCF correction =     0.000306

     Entering Dynamics:    iteration =     7
                           time      =   0.0034 pico-seconds


     Andersen thermostat:    3 collisions

ATOMIC_POSITIONS (angstrom)
O        0.000088603   0.000344754   0.119789352
H        0.001207184   0.768143480  -0.481311969
H       -0.002610800  -0.773604929  -0.481136119


     kinetic energy (Ekin) =     0.00018925 Ry
     temperature           =     9.96026595 K 
     Ekin + Etot (const)   =   -33.74267785 Ry
     Message from routine dynamics:
     Total linear momentum <> 0

     Linear momentum :   -0.0085174305    0.0089804118    0.0074868865

     Writing output data file pwscf.save

     second order wave-functions extrapolation
     Check: negative starting charge=   -0.071149
     second order charge density extrapolation
     Check: negative starting charge=   -0.071147

     negative rho (up, down):  5.761E-05 0.000E+00

     total cpu time spent up to now is       10.2 secs

     per-process dynamical memory:    32.0 Mb

     Self-consistent Calculation

     iteration #  1     ecut=    60.00 Ry     beta=0.70
     Davidson diagonalization with overlap
     ethr =  1.00E-06,  avg # of iterations =  2.0

     Threshold (ethr) on eigenvalues was too large:
     Diagonalizing with lowered threshold

     Davidson diagonalization with overlap
     ethr =  5.98E-08,  avg # of iterations =  2.0

     negative rho (up, down):  5.353E-06 0.000E+00

     total cpu time spent up to now is       10.3 secs

     total energy              =     -33.74302729 Ry
     Harris-Foulkes estimate   =     -33.74303142 Ry
     estimated scf accuracy    <       0.00000625 Ry

     iteration #  2     ecut=    60.00 Ry     beta=0.70
     Davidson diagonalization with overlap
     ethr =  7.81E-08,  avg # of iterations =  2.0

     negative rho (up, down):  1.689E-06 0.000E+00

     total cpu time spent up to now is       10.3 secs

     total energy              =     -33.74302830 Ry
     Harris-Foulkes estimate   =     -33.74303064 Ry
     estimated scf accuracy    <       0.00000429 Ry

     iteration #  3     ecut=    60.00 Ry     beta=0.70
     Davidson diagonalization with overlap
     ethr =  5.36E-08,  avg # of iterations =  2.0

     total cpu time spent up to now is       10.4 secs

     total energy              =     -33.74302961 Ry
     Harris-Foulkes estimate   =     -33.74302934 Ry
     estimated scf accuracy    <       0.00000010 Ry

     iteration #  4     ecut=    60.00 Ry     beta=0.70
     Davidson diagonalization with overlap
     ethr =  1.26E-09,  avg # of iterations =  2.0

     total cpu time spent up to now is       10.5 secs

     End of self-consistent calculation

          k = 0.0000 0.0000 0.0000 ( 62669 PWs)   bands (ev):

   -25.3814 -12.8384  -9.1881  -7.0431

     highest occupied level (ev):    -7.0431

!    total energy              =     -33.74302969 Ry
     Harris-Foulkes estimate   =     -33.74302964 Ry
     estimated scf accuracy    <          1.7E-09 Ry

     convergence has been achieved in   4 iterations

     Forces acting on atoms (Ry/au):

     atom    1 type  2   force =     0.00002708   -0.00635420    0.03457783
     atom    2 type  1   force =     0.00002049    0.01836747   -0.01986522
     atom    3 type  1   force =    -0.00004757   -0.01201327   -0.01471261

     Total force =     0.048257     Total SCF correction =     0.000243

     Entering Dynamics:    iteration =     8
                           time      =   0.0039 pico-seconds


     Andersen thermostat:    3 collisions

ATOMIC_POSITIONS (angstrom)
O        0.000324202   0.000373497   0.119830538
H       -0.001154383   0.770331573  -0.484517546
H       -0.003981492  -0.776248361  -0.478582998


     kinetic energy (Ekin) =     0.00057574 Ry
     temperature           =    30.30091592 K 
     Ekin + Etot (const)   =   -33.74245395 Ry
     Message from routine dynamics:
     Total linear momentum <> 0

     Linear momentum :   -0.0030198415    0.0614881389    0.0048908442

     Writing output data file pwscf.save

     second order wave-functions extrapolation
     Check: negative starting charge=   -0.071147
     second order charge density extrapolation
     Check: negative starting charge=   -0.071145

     negative rho (up, down):  1.973E-04 0.000E+00

     total cpu time spent up to now is       11.0 secs

     per-process dynamical memory:    32.0 Mb

     Self-consistent Calculation

     iteration #  1     ecut=    60.00 Ry     beta=0.70
     Davidson diagonalization with overlap
     ethr =  1.00E-06,  avg # of iterations =  2.0

     Threshold (ethr) on eigenvalues was too large:
     Diagonalizing with lowered threshold

     Davidson diagonalization with overlap
     ethr =  2.50E-08,  avg # of iterations =  2.0

     negative rho (up, down):  2.849E-05 0.000E+00

     total cpu time spent up to now is       11.2 secs

     total energy              =     -33.74319212 Ry
     Harris-Foulkes estimate   =     -33.74319581 Ry
     estimated scf accuracy    <       0.00000204 Ry

     iteration #  2     ecut=    60.00 Ry     beta=0.70
     Davidson diagonalization with overlap
     ethr =  2.54E-08,  avg # of iterations =  2.0

     negative rho (up, down):  2.427E-07 0.000E+00

     total cpu time spent up to now is       11.2 secs

     total energy              =     -33.74319191 Ry
     Harris-Foulkes estimate   =     -33.74319235 Ry
     estimated scf accuracy    <       0.00000013 Ry

     iteration #  3     ecut=    60.00 Ry     beta=0.70
     Davidson diagonalization with overlap
     ethr =  1.64E-09,  avg # of iterations =  2.0

     total cpu time spent up to now is       11.3 secs

     End of self-consistent calculation

          k = 0.0000 0.0000 0.0000 ( 62669 PWs)   bands (ev):

   -25.3554 -12.8250  -9.1775  -7.0382

     highest occupied level (ev):    -7.0382

!    total energy              =     -33.74319197 Ry
     Harris-Foulkes estimate   =     -33.74319194 Ry
     estimated scf accuracy    <          6.3E-09 Ry

     convergence has been achieved in   3 iterations

     Forces acting on atoms (Ry/au):

     atom    1 type  2   force =    -0.00036379   -0.00172728    0.03106462
     atom    2 type  1   force =     0.00019921    0.01269843   -0.01642834
     atom    3 type  1   force =     0.00016458   -0.01097114   -0.01463628

     Total force =     0.041640     Total SCF correction =     0.001050

     Entering Dynamics:    iteration =     9
                           time      =   0.0044 pico-seconds


     Andersen thermostat:    3 collisions

ATOMIC_POSITIONS (angstrom)
O        0.000563435   0.000472475   0.120026504
H       -0.002714849   0.769747211  -0.484894336
H       -0.006210860  -0.777231957  -0.481310625


     kinetic energy (Ekin) =     0.00026008 Ry
     temperature           =    13.68792563 K 
     Ekin + Etot (const)   =   -33.74293189 Ry
     Message from routine dynamics:
     Total linear momentum <> 0

     Linear momentum :    0.0196450612   -0.0031236637    0.0053645310

     Writing output data file pwscf.save

     second order wave-functions extrapolation
     Check: negative starting charge=   -0.071145
     second order charge density extrapolation
     Check: negative starting charge=   -0.071147

     negative rho (up, down):  1.767E-04 0.000E+00

     total cpu time spent up to now is       11.9 secs

     per-process dynamical memory:    32.0 Mb

     Self-consistent Calculation

     iteration #  1     ecut=    60.00 Ry     beta=0.70
     Davidson diagonalization with overlap
     ethr =  1.00E-06,  avg # of iterations =  3.0

     Threshold (ethr) on eigenvalues was too large:
     Diagonalizing with lowered threshold

     Davidson diagonalization with overlap
     ethr =  7.66E-08,  avg # of iterations =  1.0

     negative rho (up, down):  2.423E-05 0.000E+00

     total cpu time spent up to now is       12.0 secs

     total energy              =     -33.74327558 Ry
     Harris-Foulkes estimate   =     -33.74328217 Ry
     estimated scf accuracy    <       0.00000632 Ry

     iteration #  2     ecut=    60.00 Ry     beta=0.70
     Davidson diagonalization with overlap
     ethr =  7.90E-08,  avg # of iterations =  2.0

     negative rho (up, down):  8.762E-06 0.000E+00

     total cpu time spent up to now is       12.1 secs

     total energy              =     -33.74327633 Ry
     Harris-Foulkes estimate   =     -33.74327882 Ry
     estimated scf accuracy    <       0.00000423 Ry

     iteration #  3     ecut=    60.00 Ry     beta=0.70
     Davidson diagonalization with overlap
     ethr =  5.28E-08,  avg # of iterations =  2.0

     negative rho (up, down):  3.603E-08 0.000E+00

     total cpu time spent up to now is       12.1 secs

     total energy              =     -33.74327761 Ry
     Harris-Foulkes estimate   =     -33.74327737 Ry
     estimated scf accuracy    <       0.00000014 Ry

     iteration #  4     ecut=    60.00 Ry     beta=0.70
     Davidson diagonalization with overlap
     ethr =  1.69E-09,  avg # of iterations =  2.0

     total cpu time spent up to now is       12.2 secs

     End of self-consistent calculation

          k = 0.0000 0.0000 0.0000 ( 62669 PWs)   bands (ev):

   -25.3449 -12.8068  -9.1834  -7.0367

     highest occupied level (ev):    -7.0367

!    total energy              =     -33.74327773 Ry
     Harris-Foulkes estimate   =     -33.74327765 Ry
     estimated scf accuracy    <          2.7E-09 Ry

     convergence has been achieved in   4 iterations

     Forces acting on atoms (Ry/au):

     atom    1 type  2   force =     0.00027236   -0.00592361    0.02803724
     atom    2 type  1   force =    -0.00013356    0.01347406   -0.01640431
     atom    3 type  1   force =    -0.00013880   -0.00755045   -0.01163294

     Total force =     0.038266     Total SCF correction =     0.000620

     Entering Dynamics:    iteration =    10
                           time      =   0.0048 pico-seconds


     Andersen thermostat:    3 collisions

ATOMIC_POSITIONS (angstrom)
O        0.000372270   0.000369290   0.120288298
H       -0.000875364   0.770571663  -0.485897735
H       -0.005021990  -0.776421806  -0.484454456


     kinetic energy (Ekin) =     0.00026507 Ry
     temperature           =    13.95040818 K 
     Ekin + Etot (const)   =   -33.74301266 Ry
     Message from routine dynamics:
     Total linear momentum <> 0

     Linear momentum :    0.0087600576   -0.0157697972   -0.0172479097

     Writing output data file pwscf.save

     second order wave-functions extrapolation
     Check: negative starting charge=   -0.071147
     second order charge density extrapolation
     Check: negative starting charge=   -0.071151

     negative rho (up, down):  1.946E-04 0.000E+00

     total cpu time spent up to now is       12.7 secs

     per-process dynamical memory:    32.0 Mb

     Self-consistent Calculation

     iteration #  1     ecut=    60.00 Ry     beta=0.70
     Davidson diagonalization with overlap
     ethr =  1.00E-06,  avg # of iterations =  3.0

     Threshold (ethr) on eigenvalues was too large:
     Diagonalizing with lowered threshold

     Davidson diagonalization with overlap
     ethr =  9.64E-08,  avg # of iterations =  1.0

     negative rho (up, down):  2.761E-05 0.000E+00

     total cpu time spent up to now is       12.9 secs

     total energy              =     -33.74338190 Ry
     Harris-Foulkes estimate   =     -33.74339132 Ry
     estimated scf accuracy    <       0.00000836 Ry

     iteration #  2     ecut=    60.00 Ry     beta=0.70
     Davidson diagonalization with overlap
     ethr =  1.05E-07,  avg # of iterations =  2.0

     negative rho (up, down):  1.095E-05 0.000E+00

     total cpu time spent up to now is       12.9 secs

     total energy              =     -33.74338331 Ry
     Harris-Foulkes estimate   =     -33.74338705 Ry
     estimated scf accuracy    <       0.00000679 Ry

     iteration #  3     ecut=    60.00 Ry     beta=0.70
     Davidson diagonalization with overlap
     ethr =  8.49E-08,  avg # of iterations =  2.0

     negative rho (up, down):  2.532E-08 0.000E+00

     total cpu time spent up to now is       13.0 secs

     total energy              =     -33.74338510 Ry
     Harris-Foulkes estimate   =     -33.74338483 Ry
     estimated scf accuracy    <       0.00000008 Ry

     iteration #  4     ecut=    60.00 Ry     beta=0.70
     Davidson diagonalization with overlap
     ethr =  1.05E-09,  avg # of iterations =  2.0

     total cpu time spent up to now is       13.0 secs

     End of self-consistent calculation

          k = 0.0000 0.0000 0.0000 ( 62669 PWs)   bands (ev):

   -25.3331 -12.7836  -9.1920  -7.0349

     highest occupied level (ev):    -7.0349

!    total energy              =     -33.74338520 Ry
     Harris-Foulkes estimate   =     -33.74338515 Ry
     estimated scf accuracy    <          6.3E-09 Ry

     convergence has been achieved in   4 iterations

     Forces acting on atoms (Ry/au):

     atom    1 type  2   force =     0.00050129   -0.00538911    0.02455343
     atom    2 type  1   force =    -0.00023840    0.01178354   -0.01454282
     atom    3 type  1   force =    -0.00026289   -0.00639443   -0.01001061

     Total force =     0.033522     Total SCF correction =     0.000538

     Entering Dynamics:    iteration =    11
                           time      =   0.0053 pico-seconds


     Andersen thermostat:    3 collisions

ATOMIC_POSITIONS (angstrom)
O        0.000369914   0.000311231   0.120472324
H        0.000805935   0.772930437  -0.487642141
H       -0.006665966  -0.777860823  -0.485625314


     kinetic energy (Ekin) =     0.00025703 Ry
     temperature           =    13.52727957 K 
     Ekin + Etot (const)   =   -33.74312817 Ry
     Message from routine dynamics:
     Total linear momentum <> 0

     Linear momentum :    0.0141489189   -0.0206444830    0.0386156047

     Writing output data file pwscf.save

     second order wave-functions extrapolation
     Check: negative starting charge=   -0.071151
     second order charge density extrapolation
     Check: negative starting charge=   -0.071151

     negative rho (up, down):  4.265E-05 0.000E+00

     total cpu time spent up to now is       13.6 secs

     per-process dynamical memory:    32.0 Mb

     Self-consistent Calculation

     iteration #  1     ecut=    60.00 Ry     beta=0.70
     Davidson diagonalization with overlap
     ethr =  1.00E-06,  avg # of iterations =  2.0

     Threshold (ethr) on eigenvalues was too large:
     Diagonalizing with lowered threshold

     Davidson diagonalization with overlap
     ethr =  5.87E-08,  avg # of iterations =  2.0

     negative rho (up, down):  3.569E-06 0.000E+00

     total cpu time spent up to now is       13.8 secs

     total energy              =     -33.74350720 Ry
     Harris-Foulkes estimate   =     -33.74351066 Ry
     estimated scf accuracy    <       0.00000572 Ry

     iteration #  2     ecut=    60.00 Ry     beta=0.70
     Davidson diagonalization with overlap
     ethr =  7.15E-08,  avg # of iterations =  2.0

     negative rho (up, down):  1.057E-06 0.000E+00

     total cpu time spent up to now is       13.8 secs

     total energy              =     -33.74350779 Ry
     Harris-Foulkes estimate   =     -33.74351010 Ry
     estimated scf accuracy    <       0.00000377 Ry

     iteration #  3     ecut=    60.00 Ry     beta=0.70
     Davidson diagonalization with overlap
     ethr =  4.72E-08,  avg # of iterations =  2.0

     total cpu time spent up to now is       13.9 secs

     total energy              =     -33.74350863 Ry
     Harris-Foulkes estimate   =     -33.74350872 Ry
     estimated scf accuracy    <       0.00000012 Ry

     iteration #  4     ecut=    60.00 Ry     beta=0.70
     Davidson diagonalization with overlap
     ethr =  1.54E-09,  avg # of iterations =  2.0

     total cpu time spent up to now is       13.9 secs

     End of self-consistent calculation

          k = 0.0000 0.0000 0.0000 ( 62669 PWs)   bands (ev):

   -25.3064 -12.7600  -9.1889  -7.0304

     highest occupied level (ev):    -7.0304

!    total energy              =     -33.74350866 Ry
     Harris-Foulkes estimate   =     -33.74350866 Ry
     estimated scf accuracy    <          1.7E-09 Ry

     convergence has been achieved in   4 iterations

     Forces acting on atoms (Ry/au):

     atom    1 type  2   force =     0.00026218   -0.00390259    0.02019935
     atom    2 type  1   force =    -0.00011671    0.00769214   -0.01172131
     atom    3 type  1   force =    -0.00014547   -0.00378954   -0.00847804

     Total force =     0.026573     Total SCF correction =     0.000128

     Entering Dynamics:    iteration =    12
                           time      =   0.0058 pico-seconds


     Andersen thermostat:    3 collisions

ATOMIC_POSITIONS (angstrom)
O        0.000373337   0.000245551   0.120512210
H        0.000848988   0.774057366  -0.488062182
H       -0.006763244  -0.777947282  -0.485837132


     kinetic energy (Ekin) =     0.00003006 Ry
     temperature           =     1.58188386 K 
     Ekin + Etot (const)   =   -33.74347860 Ry
     Message from routine dynamics:
     Total linear momentum <> 0

     Linear momentum :    0.0077825198    0.0258935469    0.0230191072

     Writing output data file pwscf.save

     second order wave-functions extrapolation
     Check: negative starting charge=   -0.071151
     second order charge density extrapolation
     Check: negative starting charge=   -0.071151

     negative rho (up, down):  9.137E-06 0.000E+00

     total cpu time spent up to now is       14.5 secs

     per-process dynamical memory:    32.0 Mb

     Self-consistent Calculation

     iteration #  1     ecut=    60.00 Ry     beta=0.70
     Davidson diagonalization with overlap
     ethr =  1.00E-06,  avg # of iterations =  1.0

     Threshold (ethr) on eigenvalues was too large:
     Diagonalizing with lowered threshold

     Davidson diagonalization with overlap
     ethr =  8.70E-10,  avg # of iterations =  4.0

     negative rho (up, down):  5.168E-07 0.000E+00

     total cpu time spent up to now is       14.7 secs

     total energy              =     -33.74353675 Ry
     Harris-Foulkes estimate   =     -33.74353673 Ry
     estimated scf accuracy    <       0.00000011 Ry

     iteration #  2     ecut=    60.00 Ry     beta=0.70
     Davidson diagonalization with overlap
     ethr =  1.38E-09,  avg # of iterations =  2.0

     negative rho (up, down):  4.991E-08 0.000E+00

     total cpu time spent up to now is       14.7 secs

     total energy              =     -33.74353680 Ry
     Harris-Foulkes estimate   =     -33.74353677 Ry
     estimated scf accuracy    <       0.00000002 Ry

     iteration #  3     ecut=    60.00 Ry     beta=0.70
     Davidson diagonalization with overlap
     ethr =  2.47E-10,  avg # of iterations =  2.0

     total cpu time spent up to now is       14.8 secs

     End of self-consistent calculation

          k = 0.0000 0.0000 0.0000 ( 62669 PWs)   bands (ev):

   -25.2981 -12.7538  -9.1868  -7.0285

     highest occupied level (ev):    -7.0285

!    total energy              =     -33.74353683 Ry
     Harris-Foulkes estimate   =     -33.74353681 Ry
     estimated scf accuracy    <          6.6E-09 Ry

     convergence has been achieved in   3 iterations

     Forces acting on atoms (Ry/au):

     atom    1 type  2   force =     0.00023481   -0.00219024    0.01910570
     atom    2 type  1   force =    -0.00009399    0.00589354   -0.01063365
     atom    3 type  1   force =    -0.00014082   -0.00370330   -0.00847204

     Total force =     0.024560     Total SCF correction =     0.000678

     Entering Dynamics:    iteration =    13
                           time      =   0.0063 pico-seconds


     Andersen thermostat:    3 collisions

ATOMIC_POSITIONS (angstrom)
O        0.000286005   0.000247852   0.120476524
H        0.001031875   0.774159283  -0.487670171
H       -0.005562645  -0.778085658  -0.485663814


     kinetic energy (Ekin) =     0.00005147 Ry
     temperature           =     2.70894985 K 
     Ekin + Etot (const)   =   -33.74348535 Ry
     Message from routine dynamics:
     Total linear momentum <> 0

     Linear momentum :   -0.0185910368    0.0247705762    0.0095965931

     Writing output data file pwscf.save

     second order wave-functions extrapolation
     Check: negative starting charge=   -0.071151
     second order charge density extrapolation
     Check: negative starting charge=   -0.071150

     negative rho (up, down):  2.751E-05 0.000E+00

     total cpu time spent up to now is       15.3 secs

     per-process dynamical memory:    32.0 Mb

     Self-consistent Calculation

     iteration #  1     ecut=    60.00 Ry     beta=0.70
     Davidson diagonalization with overlap
     ethr =  1.00E-06,  avg # of iterations =  2.0

     Threshold (ethr) on eigenvalues was too large:
     Diagonalizing with lowered threshold

     Davidson diagonalization with overlap
     ethr =  1.42E-09,  avg # of iterations =  3.0

     negative rho (up, down):  2.010E-06 0.000E+00

     total cpu time spent up to now is       15.4 secs

     total energy              =     -33.74352812 Ry
     Harris-Foulkes estimate   =     -33.74352887 Ry
     estimated scf accuracy    <       0.00000011 Ry

     iteration #  2     ecut=    60.00 Ry     beta=0.70
     Davidson diagonalization with overlap
     ethr =  1.43E-09,  avg # of iterations =  2.0

     negative rho (up, down):  4.872E-08 0.000E+00

     total cpu time spent up to now is       15.5 secs

     total energy              =     -33.74352812 Ry
     Harris-Foulkes estimate   =     -33.74352814 Ry
     estimated scf accuracy    <       0.00000001 Ry

     iteration #  3     ecut=    60.00 Ry     beta=0.70
     Davidson diagonalization with overlap
     ethr =  1.56E-10,  avg # of iterations =  3.0

     total cpu time spent up to now is       15.5 secs

     End of self-consistent calculation

          k = 0.0000 0.0000 0.0000 ( 62669 PWs)   bands (ev):

   -25.2994 -12.7571  -9.1857  -7.0292

     highest occupied level (ev):    -7.0292

!    total energy              =     -33.74352808 Ry
     Harris-Foulkes estimate   =     -33.74352813 Ry
     estimated scf accuracy    <          5.6E-09 Ry

     convergence has been achieved in   3 iterations

     Forces acting on atoms (Ry/au):

     atom    1 type  2   force =     0.00060410   -0.00293383    0.01937539
     atom    2 type  1   force =    -0.00028319    0.00628540   -0.01084720
     atom    3 type  1   force =    -0.00032091   -0.00335158   -0.00852820

     Total force =     0.025014     Total SCF correction =     0.000651

     Entering Dynamics:    iteration =    14
                           time      =   0.0068 pico-seconds


     Andersen thermostat:    3 collisions

ATOMIC_POSITIONS (angstrom)
O        0.000201175   0.000202356   0.120440342
H        0.003621034   0.774907205  -0.488138933
H       -0.006807960  -0.778112837  -0.484621879


     kinetic energy (Ekin) =     0.00017919 Ry
     temperature           =     9.43034874 K 
     Ekin + Etot (const)   =   -33.74334889 Ry
     Message from routine dynamics:
     Total linear momentum <> 0

     Linear momentum :    0.0096281855   -0.0187657579   -0.0095161216

     Writing output data file pwscf.save

     second order wave-functions extrapolation
     Check: negative starting charge=   -0.071150
     second order charge density extrapolation
     Check: negative starting charge=   -0.071149

     negative rho (up, down):  7.667E-05 0.000E+00

     total cpu time spent up to now is       16.1 secs

     per-process dynamical memory:    32.0 Mb

     Self-consistent Calculation

     iteration #  1     ecut=    60.00 Ry     beta=0.70
     Davidson diagonalization with overlap
     ethr =  1.00E-06,  avg # of iterations =  2.0

     Threshold (ethr) on eigenvalues was too large:
     Diagonalizing with lowered threshold

     Davidson diagonalization with overlap
     ethr =  9.77E-09,  avg # of iterations =  4.0

     negative rho (up, down):  7.799E-06 0.000E+00

     total cpu time spent up to now is       16.2 secs

     total energy              =     -33.74352848 Ry
     Harris-Foulkes estimate   =     -33.74353065 Ry
     estimated scf accuracy    <       0.00000107 Ry

     iteration #  2     ecut=    60.00 Ry     beta=0.70
     Davidson diagonalization with overlap
     ethr =  1.33E-08,  avg # of iterations =  2.0

     negative rho (up, down):  2.018E-06 0.000E+00

     total cpu time spent up to now is       16.3 secs

     total energy              =     -33.74352852 Ry
     Harris-Foulkes estimate   =     -33.74352886 Ry
     estimated scf accuracy    <       0.00000052 Ry

     iteration #  3     ecut=    60.00 Ry     beta=0.70
     Davidson diagonalization with overlap
     ethr =  6.49E-09,  avg # of iterations =  2.0

     total cpu time spent up to now is       16.3 secs

     total energy              =     -33.74352833 Ry
     Harris-Foulkes estimate   =     -33.74352867 Ry
     estimated scf accuracy    <       0.00000006 Ry

     iteration #  4     ecut=    60.00 Ry     beta=0.70
     Davidson diagonalization with overlap
     ethr =  7.17E-10,  avg # of iterations =  2.0

     total cpu time spent up to now is       16.4 secs

     End of self-consistent calculation

          k = 0.0000 0.0000 0.0000 ( 62669 PWs)   bands (ev):

   -25.2968 -12.7585  -9.1822  -7.0284

     highest occupied level (ev):    -7.0284

!    total energy              =     -33.74352836 Ry
     Harris-Foulkes estimate   =     -33.74352834 Ry
     estimated scf accuracy    <          7.2E-10 Ry

     convergence has been achieved in   4 iterations

     Forces acting on atoms (Ry/au):

     atom    1 type  2   force =     0.00020140   -0.00078968    0.01938701
     atom    2 type  1   force =    -0.00007093    0.00492229   -0.01005815
     atom    3 type  1   force =    -0.00013047   -0.00413260   -0.00932886

     Total force =     0.024618     Total SCF correction =     0.000086

     Entering Dynamics:    iteration =    15
                           time      =   0.0073 pico-seconds


     Andersen thermostat:    3 collisions

ATOMIC_POSITIONS (angstrom)
O        0.000260697   0.000381406   0.120463555
H        0.003599688   0.773591201  -0.488802615
H       -0.007729536  -0.779633270  -0.484325917


     kinetic energy (Ekin) =     0.00011662 Ry
     temperature           =     6.13786906 K 
     Ekin + Etot (const)   =   -33.74341173 Ry
     Message from routine dynamics:
     Total linear momentum <> 0

     Linear momentum :    0.0064986428    0.0198144607    0.0330509248

     Writing output data file pwscf.save

     second order wave-functions extrapolation
     Check: negative starting charge=   -0.071149
     second order charge density extrapolation
     Check: negative starting charge=   -0.071149

     negative rho (up, down):  8.802E-05 0.000E+00

     total cpu time spent up to now is       16.9 secs

     per-process dynamical memory:    32.0 Mb

     Self-consistent Calculation

     iteration #  1     ecut=    60.00 Ry     beta=0.70
     Davidson diagonalization with overlap
     ethr =  1.00E-06,  avg # of iterations =  2.0

     Threshold (ethr) on eigenvalues was too large:
     Diagonalizing with lowered threshold

     Davidson diagonalization with overlap
     ethr =  7.98E-09,  avg # of iterations =  3.0

     negative rho (up, down):  9.507E-06 0.000E+00

     total cpu time spent up to now is       17.1 secs

     total energy              =     -33.74353194 Ry
     Harris-Foulkes estimate   =     -33.74353324 Ry
     estimated scf accuracy    <       0.00000065 Ry

     iteration #  2     ecut=    60.00 Ry     beta=0.70
     Davidson diagonalization with overlap
     ethr =  8.06E-09,  avg # of iterations =  2.0

     negative rho (up, down):  3.532E-07 0.000E+00

     total cpu time spent up to now is       17.2 secs

     total energy              =     -33.74353192 Ry
     Harris-Foulkes estimate   =     -33.74353205 Ry
     estimated scf accuracy    <       0.00000005 Ry

     iteration #  3     ecut=    60.00 Ry     beta=0.70
     Davidson diagonalization with overlap
     ethr =  5.74E-10,  avg # of iterations =  2.0

     total cpu time spent up to now is       17.2 secs

     End of self-consistent calculation

          k = 0.0000 0.0000 0.0000 ( 62669 PWs)   bands (ev):

   -25.2948 -12.7561  -9.1826  -7.0281

     highest occupied level (ev):    -7.0281

!    total energy              =     -33.74353207 Ry
     Harris-Foulkes estimate   =     -33.74353193 Ry
     estimated scf accuracy    <          2.5E-09 Ry

     convergence has been achieved in   3 iterations

     Forces acting on atoms (Ry/au):

     atom    1 type  2   force =     0.00016182   -0.00415922    0.01896625
     atom    2 type  1   force =    -0.00005442    0.00635464   -0.01082387
     atom    3 type  1   force =    -0.00010739   -0.00219542   -0.00814238

     Total force =     0.024611     Total SCF correction =     0.001494

     Entering Dynamics:    iteration =    16
                           time      =   0.0077 pico-seconds


     Andersen thermostat:    3 collisions

ATOMIC_POSITIONS (angstrom)
O        0.000073063   0.000534338   0.120675601
H        0.004846209   0.771716492  -0.490277518
H       -0.006003648  -0.780181248  -0.486210164


     kinetic energy (Ekin) =     0.00027505 Ry
     temperature           =    14.47569835 K 
     Ekin + Etot (const)   =   -33.74325702 Ry
     Message from routine dynamics:
     Total linear momentum <> 0

     Linear momentum :   -0.0333898576    0.0423202613    0.0053408613

     Writing output data file pwscf.save

     second order wave-functions extrapolation
     Check: negative starting charge=   -0.071149
     second order charge density extrapolation
     Check: negative starting charge=   -0.071153

     negative rho (up, down):  1.945E-04 0.000E+00

     total cpu time spent up to now is       17.8 secs

     per-process dynamical memory:    32.0 Mb

     Self-consistent Calculation

     iteration #  1     ecut=    60.00 Ry     beta=0.70
     Davidson diagonalization with overlap
     ethr =  1.00E-06,  avg # of iterations =  2.0

     Threshold (ethr) on eigenvalues was too large:
     Diagonalizing with lowered threshold

     Davidson diagonalization with overlap
     ethr =  1.87E-08,  avg # of iterations =  2.0

     negative rho (up, down):  2.760E-05 0.000E+00

     total cpu time spent up to now is       17.9 secs

     total energy              =     -33.74356314 Ry
     Harris-Foulkes estimate   =     -33.74356739 Ry
     estimated scf accuracy    <       0.00000191 Ry

     iteration #  2     ecut=    60.00 Ry     beta=0.70
     Davidson diagonalization with overlap
     ethr =  2.39E-08,  avg # of iterations =  2.0

     negative rho (up, down):  9.627E-06 0.000E+00

     total cpu time spent up to now is       18.0 secs

     total energy              =     -33.74356312 Ry
     Harris-Foulkes estimate   =     -33.74356406 Ry
     estimated scf accuracy    <       0.00000116 Ry

     iteration #  3     ecut=    60.00 Ry     beta=0.70
     Davidson diagonalization with overlap
     ethr =  1.45E-08,  avg # of iterations =  2.0

     total cpu time spent up to now is       18.0 secs

     total energy              =     -33.74356373 Ry
     Harris-Foulkes estimate   =     -33.74356343 Ry
     estimated scf accuracy    <       0.00000007 Ry

     iteration #  4     ecut=    60.00 Ry     beta=0.70
     Davidson diagonalization with overlap
     ethr =  8.40E-10,  avg # of iterations =  2.0

     total cpu time spent up to now is       18.1 secs

     End of self-consistent calculation

          k = 0.0000 0.0000 0.0000 ( 62669 PWs)   bands (ev):

   -25.2917 -12.7398  -9.1928  -7.0279

     highest occupied level (ev):    -7.0279

!    total energy              =     -33.74356384 Ry
     Harris-Foulkes estimate   =     -33.74356375 Ry
     estimated scf accuracy    <          1.5E-09 Ry

     convergence has been achieved in   4 iterations

     Forces acting on atoms (Ry/au):

     atom    1 type  2   force =     0.00018899   -0.00626944    0.01682891
     atom    2 type  1   force =    -0.00006720    0.00714467   -0.01095564
     atom    3 type  1   force =    -0.00012179   -0.00087523   -0.00587328

     Total force =     0.022998     Total SCF correction =     0.000360

     Entering Dynamics:    iteration =    17
                           time      =   0.0082 pico-seconds


     Andersen thermostat:    3 collisions

ATOMIC_POSITIONS (angstrom)
O        0.000028486   0.000488600   0.120720823
H        0.004667867   0.773207526  -0.491541738
H       -0.005119127  -0.780947731  -0.485662332


     kinetic energy (Ekin) =     0.00009585 Ry
     temperature           =     5.04463491 K 
     Ekin + Etot (const)   =   -33.74346799 Ry
     Message from routine dynamics:
     Total linear momentum <> 0

     Linear momentum :    0.0081699189   -0.0260262614    0.0326374735

     Writing output data file pwscf.save

     second order wave-functions extrapolation
     Check: negative starting charge=   -0.071153
     second order charge density extrapolation
     Check: negative starting charge=   -0.071152

     negative rho (up, down):  2.680E-05 0.000E+00

     total cpu time spent up to now is       18.7 secs

     per-process dynamical memory:    32.0 Mb

     Self-consistent Calculation

     iteration #  1     ecut=    60.00 Ry     beta=0.70
     Davidson diagonalization with overlap
     ethr =  1.00E-06,  avg # of iterations =  2.0

     Threshold (ethr) on eigenvalues was too large:
     Diagonalizing with lowered threshold

     Davidson diagonalization with overlap
     ethr =  2.56E-08,  avg # of iterations =  2.0

     negative rho (up, down):  1.939E-06 0.000E+00

     total cpu time spent up to now is       18.8 secs

     total energy              =     -33.74359842 Ry
     Harris-Foulkes estimate   =     -33.74360038 Ry
     estimated scf accuracy    <       0.00000294 Ry

     iteration #  2     ecut=    60.00 Ry     beta=0.70
     Davidson diagonalization with overlap
     ethr =  3.68E-08,  avg # of iterations =  2.0

     negative rho (up, down):  5.789E-07 0.000E+00

     total cpu time spent up to now is       18.8 secs

     total energy              =     -33.74359877 Ry
     Harris-Foulkes estimate   =     -33.74360004 Ry
     estimated scf accuracy    <       0.00000218 Ry

     iteration #  3     ecut=    60.00 Ry     beta=0.70
     Davidson diagonalization with overlap
     ethr =  2.73E-08,  avg # of iterations =  2.0

     total cpu time spent up to now is       19.0 secs

     total energy              =     -33.74359936 Ry
     Harris-Foulkes estimate   =     -33.74359929 Ry
     estimated scf accuracy    <       0.00000005 Ry

     iteration #  4     ecut=    60.00 Ry     beta=0.70
     Davidson diagonalization with overlap
     ethr =  6.11E-10,  avg # of iterations =  2.0

     total cpu time spent up to now is       19.0 secs

     End of self-consistent calculation

          k = 0.0000 0.0000 0.0000 ( 62669 PWs)   bands (ev):

   -25.2789 -12.7317  -9.1889  -7.0256

     highest occupied level (ev):    -7.0256

!    total energy              =     -33.74359936 Ry
     Harris-Foulkes estimate   =     -33.74359938 Ry
     estimated scf accuracy    <          1.0E-09 Ry

     convergence has been achieved in   4 iterations

     Forces acting on atoms (Ry/au):

     atom    1 type  2   force =     0.00006927   -0.00387875    0.01501132
     atom    2 type  1   force =    -0.00001716    0.00432570   -0.00913302
     atom    3 type  1   force =    -0.00005211   -0.00044695   -0.00587829

     Total force =     0.019423     Total SCF correction =     0.000156

     Entering Dynamics:    iteration =    18
                           time      =   0.0087 pico-seconds


     Andersen thermostat:    3 collisions

ATOMIC_POSITIONS (angstrom)
O       -0.000015942   0.000733501   0.120755475
H        0.004736738   0.771630598  -0.489931929
H       -0.004484189  -0.783250411  -0.487821084


     kinetic energy (Ekin) =     0.00029045 Ry
     temperature           =    15.28593117 K 
     Ekin + Etot (const)   =   -33.74330891 Ry
     Message from routine dynamics:
     Total linear momentum <> 0

     Linear momentum :    0.0107674870    0.0097010687    0.0250437974

     Writing output data file pwscf.save

     second order wave-functions extrapolation
     Check: negative starting charge=   -0.071152
     second order charge density extrapolation
     Check: negative starting charge=   -0.071151

     negative rho (up, down):  7.859E-05 0.000E+00

     total cpu time spent up to now is       19.6 secs

     per-process dynamical memory:    32.0 Mb

     Self-consistent Calculation

     iteration #  1     ecut=    60.00 Ry     beta=0.70
     Davidson diagonalization with overlap
     ethr =  1.00E-06,  avg # of iterations =  3.0

     Threshold (ethr) on eigenvalues was too large:
     Diagonalizing with lowered threshold

     Davidson diagonalization with overlap
     ethr =  3.32E-08,  avg # of iterations =  2.0

     negative rho (up, down):  8.073E-06 0.000E+00

     total cpu time spent up to now is       19.7 secs

     total energy              =     -33.74355599 Ry
     Harris-Foulkes estimate   =     -33.74355823 Ry
     estimated scf accuracy    <       0.00000265 Ry

     iteration #  2     ecut=    60.00 Ry     beta=0.70
     Davidson diagonalization with overlap
     ethr =  3.31E-08,  avg # of iterations =  2.0

     negative rho (up, down):  1.626E-06 0.000E+00

     total cpu time spent up to now is       19.8 secs

     total energy              =     -33.74355604 Ry
     Harris-Foulkes estimate   =     -33.74355679 Ry
     estimated scf accuracy    <       0.00000082 Ry

     iteration #  3     ecut=    60.00 Ry     beta=0.70
     Davidson diagonalization with overlap
     ethr =  1.03E-08,  avg # of iterations =  2.0

     negative rho (up, down):  2.567E-08 0.000E+00

     total cpu time spent up to now is       19.8 secs

     total energy              =     -33.74355628 Ry
     Harris-Foulkes estimate   =     -33.74355631 Ry
     estimated scf accuracy    <       0.00000015 Ry

     iteration #  4     ecut=    60.00 Ry     beta=0.70
     Davidson diagonalization with overlap
     ethr =  1.84E-09,  avg # of iterations =  2.0

     total cpu time spent up to now is       19.9 secs

     End of self-consistent calculation

          k = 0.0000 0.0000 0.0000 ( 62669 PWs)   bands (ev):

   -25.2745 -12.7273  -9.1886  -7.0249

     highest occupied level (ev):    -7.0249

!    total energy              =     -33.74355627 Ry
     Harris-Foulkes estimate   =     -33.74355631 Ry
     estimated scf accuracy    <          3.0E-09 Ry

     convergence has been achieved in   4 iterations

     Forces acting on atoms (Ry/au):

     atom    1 type  2   force =    -0.00013567   -0.01152478    0.01448257
     atom    2 type  1   force =     0.00008373    0.00759510   -0.01174522
     atom    3 type  1   force =     0.00005194    0.00392968   -0.00273735

     Total force =     0.023689     Total SCF correction =     0.000705

     Entering Dynamics:    iteration =    19
                           time      =   0.0092 pico-seconds


     Andersen thermostat:    3 collisions

ATOMIC_POSITIONS (angstrom)
O        0.000131621   0.000515173   0.120740675
H        0.003451555   0.774393992  -0.490010932
H       -0.005536638  -0.782555153  -0.487507625


     kinetic energy (Ekin) =     0.00022133 Ry
     temperature           =    11.64860608 K 
     Ekin + Etot (const)   =   -33.74333494 Ry
     Message from routine dynamics:
     Total linear momentum <> 0

     Linear momentum :    0.0098680740    0.0498932049    0.0318854797

     Writing output data file pwscf.save

     second order wave-functions extrapolation
     Check: negative starting charge=   -0.071151
     second order charge density extrapolation
     Check: negative starting charge=   -0.071149

     negative rho (up, down):  8.891E-05 0.000E+00

     total cpu time spent up to now is       20.5 secs

     per-process dynamical memory:    32.0 Mb

     Self-consistent Calculation

     iteration #  1     ecut=    60.00 Ry     beta=0.70
     Davidson diagonalization with overlap
     ethr =  1.00E-06,  avg # of iterations =  2.0

     Threshold (ethr) on eigenvalues was too large:
     Diagonalizing with lowered threshold

     Davidson diagonalization with overlap
     ethr =  1.03E-08,  avg # of iterations =  2.0

     negative rho (up, down):  9.503E-06 0.000E+00

     total cpu time spent up to now is       20.6 secs

     total energy              =     -33.74359487 Ry
     Harris-Foulkes estimate   =     -33.74359725 Ry
     estimated scf accuracy    <       0.00000106 Ry

     iteration #  2     ecut=    60.00 Ry     beta=0.70
     Davidson diagonalization with overlap
     ethr =  1.32E-08,  avg # of iterations =  2.0

     negative rho (up, down):  2.691E-06 0.000E+00

     total cpu time spent up to now is       20.6 secs

     total energy              =     -33.74359485 Ry
     Harris-Foulkes estimate   =     -33.74359531 Ry
     estimated scf accuracy    <       0.00000055 Ry

     iteration #  3     ecut=    60.00 Ry     beta=0.70
     Davidson diagonalization with overlap
     ethr =  6.88E-09,  avg # of iterations =  2.0

     total cpu time spent up to now is       20.7 secs

     total energy              =     -33.74359491 Ry
     Harris-Foulkes estimate   =     -33.74359501 Ry
     estimated scf accuracy    <       0.00000004 Ry

     iteration #  4     ecut=    60.00 Ry     beta=0.70
     Davidson diagonalization with overlap
     ethr =  5.17E-10,  avg # of iterations =  2.0

     total cpu time spent up to now is       20.8 secs

     End of self-consistent calculation

          k = 0.0000 0.0000 0.0000 ( 62669 PWs)   bands (ev):

   -25.2649 -12.7247  -9.1829  -7.0229

     highest occupied level (ev):    -7.0229

!    total energy              =     -33.74359494 Ry
     Harris-Foulkes estimate   =     -33.74359492 Ry
     estimated scf accuracy    <          5.4E-10 Ry

     convergence has been achieved in   4 iterations

     Forces acting on atoms (Ry/au):

     atom    1 type  2   force =    -0.00007694   -0.00689814    0.01333398
     atom    2 type  1   force =     0.00003768    0.00408517   -0.00950170
     atom    3 type  1   force =     0.00003926    0.00281296   -0.00383228

     Total force =     0.018840     Total SCF correction =     0.000267

     Entering Dynamics:    iteration =    20
                           time      =   0.0097 pico-seconds


     Andersen thermostat:    3 collisions

ATOMIC_POSITIONS (angstrom)
O        0.000079382   0.000427233   0.120734233
H        0.003089278   0.774855279  -0.490205099
H       -0.004346817  -0.781623329  -0.487211402


     kinetic energy (Ekin) =     0.00007583 Ry
     temperature           =     3.99099564 K 
     Ekin + Etot (const)   =   -33.74351910 Ry
     Message from routine dynamics:
     Total linear momentum <> 0

     Linear momentum :    0.0191082143    0.0377012643   -0.0280587404

     Writing output data file pwscf.save

     second order wave-functions extrapolation
     Check: negative starting charge=   -0.071149
     second order charge density extrapolation
     Check: negative starting charge=   -0.071150

     negative rho (up, down):  2.024E-05 0.000E+00

     total cpu time spent up to now is       21.3 secs

     per-process dynamical memory:    32.0 Mb

     Self-consistent Calculation

     iteration #  1     ecut=    60.00 Ry     beta=0.70
     Davidson diagonalization with overlap
     ethr =  1.00E-06,  avg # of iterations =  2.0

     Threshold (ethr) on eigenvalues was too large:
     Diagonalizing with lowered threshold

     Davidson diagonalization with overlap
     ethr =  1.81E-09,  avg # of iterations =  4.0

     negative rho (up, down):  1.355E-06 0.000E+00

     total cpu time spent up to now is       21.5 secs

     total energy              =     -33.74360436 Ry
     Harris-Foulkes estimate   =     -33.74360447 Ry
     estimated scf accuracy    <       0.00000018 Ry

     iteration #  2     ecut=    60.00 Ry     beta=0.70
     Davidson diagonalization with overlap
     ethr =  2.19E-09,  avg # of iterations =  2.0

     negative rho (up, down):  1.279E-07 0.000E+00

     total cpu time spent up to now is       21.5 secs

     total energy              =     -33.74360432 Ry
     Harris-Foulkes estimate   =     -33.74360440 Ry
     estimated scf accuracy    <       0.00000004 Ry

     iteration #  3     ecut=    60.00 Ry     beta=0.70
     Davidson diagonalization with overlap
     ethr =  5.09E-10,  avg # of iterations =  2.0

     total cpu time spent up to now is       21.6 secs

     total energy              =     -33.74360433 Ry
     Harris-Foulkes estimate   =     -33.74360434 Ry
     estimated scf accuracy    <       0.00000002 Ry

     iteration #  4     ecut=    60.00 Ry     beta=0.70
     Davidson diagonalization with overlap
     ethr =  1.92E-10,  avg # of iterations =  2.0

     total cpu time spent up to now is       21.6 secs

     End of self-consistent calculation

          k = 0.0000 0.0000 0.0000 ( 62669 PWs)   bands (ev):

   -25.2673 -12.7261  -9.1837  -7.0234

     highest occupied level (ev):    -7.0234

!    total energy              =     -33.74360434 Ry
     Harris-Foulkes estimate   =     -33.74360433 Ry
     estimated scf accuracy    <          7.3E-11 Ry

     convergence has been achieved in   4 iterations

     Forces acting on atoms (Ry/au):

     atom    1 type  2   force =     0.00005657   -0.00508090    0.01366053
     atom    2 type  1   force =    -0.00002432    0.00348576   -0.00890127
     atom    3 type  1   force =    -0.00003226    0.00159514   -0.00475926

     Total force =     0.018139     Total SCF correction =     0.000071

     Entering Dynamics:    iteration =    21
                           time      =   0.0102 pico-seconds


     Andersen thermostat:    3 collisions

ATOMIC_POSITIONS (angstrom)
O        0.000149007   0.000327069   0.120721691
H        0.004153895   0.776128936  -0.490801365
H       -0.006514410  -0.781310228  -0.486416446


     kinetic energy (Ekin) =     0.00015821 Ry
     temperature           =     8.32619600 K 
     Ekin + Etot (const)   =   -33.74344613 Ry
     Message from routine dynamics:
     Total linear momentum <> 0

     Linear momentum :    0.0367619714    0.0017350680    0.0132506688

     Writing output data file pwscf.save

     second order wave-functions extrapolation
     Check: negative starting charge=   -0.071150
     second order charge density extrapolation
     Check: negative starting charge=   -0.071149

     negative rho (up, down):  3.008E-05 0.000E+00

     total cpu time spent up to now is       22.2 secs

     per-process dynamical memory:    32.0 Mb

     Self-consistent Calculation

     iteration #  1     ecut=    60.00 Ry     beta=0.70
     Davidson diagonalization with overlap
     ethr =  1.00E-06,  avg # of iterations =  2.0

     Threshold (ethr) on eigenvalues was too large:
     Diagonalizing with lowered threshold

     Davidson diagonalization with overlap
     ethr =  8.84E-09,  avg # of iterations =  2.0

     negative rho (up, down):  2.236E-06 0.000E+00

     total cpu time spent up to now is       22.3 secs

     total energy              =     -33.74361353 Ry
     Harris-Foulkes estimate   =     -33.74361410 Ry
     estimated scf accuracy    <       0.00000073 Ry

     iteration #  2     ecut=    60.00 Ry     beta=0.70
     Davidson diagonalization with overlap
     ethr =  9.16E-09,  avg # of iterations =  2.0

     negative rho (up, down):  3.927E-07 0.000E+00

     total cpu time spent up to now is       22.4 secs

     total energy              =     -33.74361355 Ry
     Harris-Foulkes estimate   =     -33.74361373 Ry
     estimated scf accuracy    <       0.00000025 Ry

     iteration #  3     ecut=    60.00 Ry     beta=0.70
     Davidson diagonalization with overlap
     ethr =  3.08E-09,  avg # of iterations =  2.0

     total cpu time spent up to now is       22.4 secs

     total energy              =     -33.74361354 Ry
     Harris-Foulkes estimate   =     -33.74361363 Ry
     estimated scf accuracy    <       0.00000005 Ry

     iteration #  4     ecut=    60.00 Ry     beta=0.70
     Davidson diagonalization with overlap
     ethr =  6.08E-10,  avg # of iterations =  2.0

     total cpu time spent up to now is       22.5 secs

     End of self-consistent calculation

          k = 0.0000 0.0000 0.0000 ( 62669 PWs)   bands (ev):

   -25.2630 -12.7254  -9.1809  -7.0225

     highest occupied level (ev):    -7.0225

!    total energy              =     -33.74361356 Ry
     Harris-Foulkes estimate   =     -33.74361355 Ry
     estimated scf accuracy    <          5.6E-10 Ry

     convergence has been achieved in   4 iterations

     Forces acting on atoms (Ry/au):

     atom    1 type  2   force =     0.00015583   -0.00217801    0.01321787
     atom    2 type  1   force =    -0.00007827    0.00149723   -0.00755207
     atom    3 type  1   force =    -0.00007756    0.00068077   -0.00566580

     Total force =     0.016472     Total SCF correction =     0.000229

     Entering Dynamics:    iteration =    22
                           time      =   0.0106 pico-seconds


     Andersen thermostat:    3 collisions

ATOMIC_POSITIONS (angstrom)
O        0.000113473   0.000277405   0.120710947
H        0.006035981   0.776766969  -0.491722764
H       -0.007833570  -0.781161510  -0.485324852


     kinetic energy (Ekin) =     0.00013804 Ry
     temperature           =     7.26479338 K 
     Ekin + Etot (const)   =   -33.74347552 Ry
     Message from routine dynamics:
     Total linear momentum <> 0

     Linear momentum :   -0.0030365436    0.0224424963    0.0172365304

     Writing output data file pwscf.save

     second order wave-functions extrapolation
     Check: negative starting charge=   -0.071149
     second order charge density extrapolation
     Check: negative starting charge=   -0.071148

     negative rho (up, down):  3.272E-05 0.000E+00

     total cpu time spent up to now is       23.0 secs

     per-process dynamical memory:    32.0 Mb

     Self-consistent Calculation

     iteration #  1     ecut=    60.00 Ry     beta=0.70
     Davidson diagonalization with overlap
     ethr =  1.00E-06,  avg # of iterations =  2.0

     Threshold (ethr) on eigenvalues was too large:
     Diagonalizing with lowered threshold

     Davidson diagonalization with overlap
     ethr =  1.96E-09,  avg # of iterations =  3.0

     negative rho (up, down):  2.506E-06 0.000E+00

     total cpu time spent up to now is       23.2 secs

[...]

ATOMIC_POSITIONS (angstrom)
O        0.000577400  -0.003896143   0.121887772
H        0.019194907   0.806012847  -0.456285601
H       -0.028341840  -0.744291772  -0.539404781


     kinetic energy (Ekin) =     0.00024852 Ry
     temperature           =    13.07920260 K 
     Ekin + Etot (const)   =   -33.74349276 Ry
     Message from routine dynamics:
     Total linear momentum <> 0

     Linear momentum :   -0.0410015518    0.0077765284   -0.0265373353

     Writing output data file pwscf.save

     second order wave-functions extrapolation
     Check: negative starting charge=   -0.071174
     second order charge density extrapolation
     Check: negative starting charge=   -0.071170

     negative rho (up, down):  9.235E-05 0.000E+00

     total cpu time spent up to now is     1021.5 secs

     per-process dynamical memory:    32.0 Mb

     Self-consistent Calculation

     iteration #  1     ecut=    60.00 Ry     beta=0.70
     Davidson diagonalization with overlap
     ethr =  1.00E-06,  avg # of iterations =  2.0

     Threshold (ethr) on eigenvalues was too large:
     Diagonalizing with lowered threshold

     Davidson diagonalization with overlap
     ethr =  5.27E-08,  avg # of iterations =  2.0

     negative rho (up, down):  1.002E-05 0.000E+00

     total cpu time spent up to now is     1021.6 secs

     total energy              =     -33.74372146 Ry
     Harris-Foulkes estimate   =     -33.74372767 Ry
     estimated scf accuracy    <       0.00000653 Ry

     iteration #  2     ecut=    60.00 Ry     beta=0.70
     Davidson diagonalization with overlap
     ethr =  8.16E-08,  avg # of iterations =  3.0

     negative rho (up, down):  3.704E-06 0.000E+00

     total cpu time spent up to now is     1021.7 secs

     total energy              =     -33.74372237 Ry
     Harris-Foulkes estimate   =     -33.74372572 Ry
     estimated scf accuracy    <       0.00000603 Ry

     iteration #  3     ecut=    60.00 Ry     beta=0.70
     Davidson diagonalization with overlap
     ethr =  7.54E-08,  avg # of iterations =  2.0

     negative rho (up, down):  2.775E-08 0.000E+00

     total cpu time spent up to now is     1021.7 secs

     total energy              =     -33.74372398 Ry
     Harris-Foulkes estimate   =     -33.74372367 Ry
     estimated scf accuracy    <       0.00000006 Ry

     iteration #  4     ecut=    60.00 Ry     beta=0.70
     Davidson diagonalization with overlap
     ethr =  7.15E-10,  avg # of iterations =  2.0

     total cpu time spent up to now is     1021.8 secs

     End of self-consistent calculation

          k = 0.0000 0.0000 0.0000 ( 62669 PWs)   bands (ev):

   -25.2257 -12.6209  -9.2330  -7.0182

     highest occupied level (ev):    -7.0182

!    total energy              =     -33.74372403 Ry
     Harris-Foulkes estimate   =     -33.74372401 Ry
     estimated scf accuracy    <          3.0E-09 Ry

     convergence has been achieved in   4 iterations

     Forces acting on atoms (Ry/au):

     atom    1 type  2   force =     0.00017545    0.00229234   -0.00101965
     atom    2 type  1   force =    -0.00017656   -0.00454920    0.00134668
     atom    3 type  1   force =     0.00000111    0.00225686   -0.00032703

     Total force =     0.005837     Total SCF correction =     0.000636
     SCF correction compared to forces is large: reduce conv_thr to get better values

     Entering Dynamics:    iteration =   996
                           time      =   0.4818 pico-seconds


     Andersen thermostat:    3 collisions

ATOMIC_POSITIONS (angstrom)
O        0.000654971  -0.003838005   0.121691296
H        0.019101453   0.803337301  -0.454124633
H       -0.029477235  -0.742537215  -0.538453269


     kinetic energy (Ekin) =     0.00032050 Ry
     temperature           =    16.86752130 K 
     Ekin + Etot (const)   =   -33.74340353 Ry
     Message from routine dynamics:
     Total linear momentum <> 0

     Linear momentum :    0.0484287348    0.0318063288    0.0170591178

     Writing output data file pwscf.save

     second order wave-functions extrapolation
     Check: negative starting charge=   -0.071170
     second order charge density extrapolation
     Check: negative starting charge=   -0.071173

     negative rho (up, down):  1.392E-04 0.000E+00

     total cpu time spent up to now is     1022.4 secs

     per-process dynamical memory:    32.0 Mb

     Self-consistent Calculation

     iteration #  1     ecut=    60.00 Ry     beta=0.70
     Davidson diagonalization with overlap
     ethr =  1.00E-06,  avg # of iterations =  3.0

     negative rho (up, down):  1.749E-05 0.000E+00

     total cpu time spent up to now is     1022.5 secs

     total energy              =     -33.74373676 Ry
     Harris-Foulkes estimate   =     -33.74374613 Ry
     estimated scf accuracy    <       0.00000953 Ry

     iteration #  2     ecut=    60.00 Ry     beta=0.70
     Davidson diagonalization with overlap
     ethr =  1.19E-07,  avg # of iterations =  2.0

     negative rho (up, down):  6.163E-06 0.000E+00

     total cpu time spent up to now is     1022.9 secs

     total energy              =     -33.74373886 Ry
     Harris-Foulkes estimate   =     -33.74374220 Ry
     estimated scf accuracy    <       0.00000648 Ry

     iteration #  3     ecut=    60.00 Ry     beta=0.70
     Davidson diagonalization with overlap
     ethr =  8.10E-08,  avg # of iterations =  2.0

     negative rho (up, down):  4.465E-08 0.000E+00

     total cpu time spent up to now is     1022.9 secs

     total energy              =     -33.74373989 Ry
     Harris-Foulkes estimate   =     -33.74374043 Ry
     estimated scf accuracy    <       0.00000015 Ry

     iteration #  4     ecut=    60.00 Ry     beta=0.70
     Davidson diagonalization with overlap
     ethr =  1.84E-09,  avg # of iterations =  2.0

     total cpu time spent up to now is     1023.0 secs

     End of self-consistent calculation

          k = 0.0000 0.0000 0.0000 ( 62669 PWs)   bands (ev):

   -25.2546 -12.6454  -9.2366  -7.0230

     highest occupied level (ev):    -7.0230

!    total energy              =     -33.74373978 Ry
     Harris-Foulkes estimate   =     -33.74373993 Ry
     estimated scf accuracy    <          1.9E-09 Ry

     convergence has been achieved in   4 iterations

     Forces acting on atoms (Ry/au):

     atom    1 type  2   force =     0.00014815   -0.00018805    0.00449661
     atom    2 type  1   force =    -0.00006299    0.00022645   -0.00199014
     atom    3 type  1   force =    -0.00008517   -0.00003841   -0.00250648

     Total force =     0.005530     Total SCF correction =     0.000673
     SCF correction compared to forces is large: reduce conv_thr to get better values

     Entering Dynamics:    iteration =   997
                           time      =   0.4823 pico-seconds


     Andersen thermostat:    3 collisions

ATOMIC_POSITIONS (angstrom)
O        0.000722021  -0.003795398   0.121732466
H        0.018491755   0.803351923  -0.453976135
H       -0.029929707  -0.743226808  -0.539253965


     kinetic energy (Ekin) =     0.00004381 Ry
     temperature           =     2.30586452 K 
     Ekin + Etot (const)   =   -33.74369597 Ry
     Message from routine dynamics:
     Total linear momentum <> 0

     Linear momentum :    0.0206577397   -0.0272709275    0.0091429547

     Writing output data file pwscf.save

     second order wave-functions extrapolation
     Check: negative starting charge=   -0.071173
     second order charge density extrapolation
     Check: negative starting charge=   -0.071172

     negative rho (up, down):  2.672E-05 0.000E+00

     total cpu time spent up to now is     1023.6 secs

     per-process dynamical memory:    32.0 Mb

     Self-consistent Calculation

     iteration #  1     ecut=    60.00 Ry     beta=0.70
     Davidson diagonalization with overlap
     ethr =  1.00E-06,  avg # of iterations =  2.0

     Threshold (ethr) on eigenvalues was too large:
     Diagonalizing with lowered threshold

     Davidson diagonalization with overlap
     ethr =  4.23E-09,  avg # of iterations =  3.0

     negative rho (up, down):  1.898E-06 0.000E+00

     total cpu time spent up to now is     1023.7 secs

     total energy              =     -33.74374059 Ry
     Harris-Foulkes estimate   =     -33.74374093 Ry
     estimated scf accuracy    <       0.00000044 Ry

     iteration #  2     ecut=    60.00 Ry     beta=0.70
     Davidson diagonalization with overlap
     ethr =  5.45E-09,  avg # of iterations =  2.0

     negative rho (up, down):  4.404E-07 0.000E+00

     total cpu time spent up to now is     1023.8 secs

     total energy              =     -33.74374060 Ry
     Harris-Foulkes estimate   =     -33.74374076 Ry
     estimated scf accuracy    <       0.00000021 Ry

     iteration #  3     ecut=    60.00 Ry     beta=0.70
     Davidson diagonalization with overlap
     ethr =  2.59E-09,  avg # of iterations =  2.0

     total cpu time spent up to now is     1023.9 secs

     total energy              =     -33.74374068 Ry
     Harris-Foulkes estimate   =     -33.74374066 Ry
     estimated scf accuracy    <       0.00000002 Ry

     iteration #  4     ecut=    60.00 Ry     beta=0.70
     Davidson diagonalization with overlap
     ethr =  2.27E-10,  avg # of iterations =  2.0

     total cpu time spent up to now is     1023.9 secs

     End of self-consistent calculation

          k = 0.0000 0.0000 0.0000 ( 62669 PWs)   bands (ev):

   -25.2496 -12.6409  -9.2363  -7.0224

     highest occupied level (ev):    -7.0224

!    total energy              =     -33.74374070 Ry
     Harris-Foulkes estimate   =     -33.74374069 Ry
     estimated scf accuracy    <          2.6E-10 Ry

     convergence has been achieved in   4 iterations

     Forces acting on atoms (Ry/au):

     atom    1 type  2   force =     0.00016298   -0.00175300    0.00297029
     atom    2 type  1   force =    -0.00009066    0.00040267   -0.00185660
     atom    3 type  1   force =    -0.00007232    0.00135033   -0.00111369

     Total force =     0.004314     Total SCF correction =     0.000263

     Entering Dynamics:    iteration =   998
                           time      =   0.4828 pico-seconds


     Andersen thermostat:    3 collisions

ATOMIC_POSITIONS (angstrom)
O        0.000689902  -0.003431694   0.121722092
H        0.018610758   0.800182412  -0.452736282
H       -0.029539905  -0.745818938  -0.540329471


     kinetic energy (Ekin) =     0.00037309 Ry
     temperature           =    19.63537451 K 
     Ekin + Etot (const)   =   -33.74336761 Ry
     Message from routine dynamics:
     Total linear momentum <> 0

     Linear momentum :    0.0097332842   -0.0104380511   -0.0239150617

     Writing output data file pwscf.save

     second order wave-functions extrapolation
     Check: negative starting charge=   -0.071172
     second order charge density extrapolation
     Check: negative starting charge=   -0.071173

     negative rho (up, down):  2.034E-04 0.000E+00

     total cpu time spent up to now is     1024.5 secs

     per-process dynamical memory:    32.0 Mb

     Self-consistent Calculation

     iteration #  1     ecut=    60.00 Ry     beta=0.70
     Davidson diagonalization with overlap
     ethr =  1.00E-06,  avg # of iterations =  3.0

     Threshold (ethr) on eigenvalues was too large:
     Diagonalizing with lowered threshold

     Davidson diagonalization with overlap
     ethr =  2.44E-08,  avg # of iterations =  1.0

     negative rho (up, down):  2.928E-05 0.000E+00

     total cpu time spent up to now is     1024.7 secs

     total energy              =     -33.74370115 Ry
     Harris-Foulkes estimate   =     -33.74370596 Ry
     estimated scf accuracy    <       0.00000195 Ry

     iteration #  2     ecut=    60.00 Ry     beta=0.70
     Davidson diagonalization with overlap
     ethr =  2.43E-08,  avg # of iterations =  2.0

     negative rho (up, down):  1.913E-06 0.000E+00

     total cpu time spent up to now is     1024.7 secs

     total energy              =     -33.74370088 Ry
     Harris-Foulkes estimate   =     -33.74370150 Ry
     estimated scf accuracy    <       0.00000019 Ry

     iteration #  3     ecut=    60.00 Ry     beta=0.70
     Davidson diagonalization with overlap
     ethr =  2.36E-09,  avg # of iterations =  2.0

     negative rho (up, down):  2.911E-08 0.000E+00

     total cpu time spent up to now is     1024.8 secs

     total energy              =     -33.74370074 Ry
     Harris-Foulkes estimate   =     -33.74370094 Ry
     estimated scf accuracy    <       0.00000004 Ry

     iteration #  4     ecut=    60.00 Ry     beta=0.70
     Davidson diagonalization with overlap
     ethr =  5.37E-10,  avg # of iterations =  2.0

     total cpu time spent up to now is     1024.8 secs

     End of self-consistent calculation

          k = 0.0000 0.0000 0.0000 ( 62669 PWs)   bands (ev):

   -25.2530 -12.6440  -9.2360  -7.0226

     highest occupied level (ev):    -7.0226

!    total energy              =     -33.74370076 Ry
     Harris-Foulkes estimate   =     -33.74370075 Ry
     estimated scf accuracy    <          5.8E-09 Ry

     convergence has been achieved in   4 iterations

     Forces acting on atoms (Ry/au):

     atom    1 type  2   force =     0.00021891   -0.00996685    0.00341624
     atom    2 type  1   force =    -0.00013486    0.00516941   -0.00523583
     atom    3 type  1   force =    -0.00008405    0.00479744    0.00181959

     Total force =     0.013840     Total SCF correction =     0.000635

     Entering Dynamics:    iteration =   999
                           time      =   0.4833 pico-seconds


     Andersen thermostat:    3 collisions

ATOMIC_POSITIONS (angstrom)
O        0.000886260  -0.003531022   0.121740728
H        0.014459344   0.800253539  -0.452183392
H       -0.028499114  -0.744316562  -0.541177593


     kinetic energy (Ekin) =     0.00039036 Ry
     temperature           =    20.54455055 K 
     Ekin + Etot (const)   =   -33.74331039 Ry
     Message from routine dynamics:
     Total linear momentum <> 0

     Linear momentum :   -0.0039271828    0.0456252524   -0.0047479519

     Writing output data file pwscf.save

     second order wave-functions extrapolation
     Check: negative starting charge=   -0.071173
     second order charge density extrapolation
     Check: negative starting charge=   -0.071175

     negative rho (up, down):  7.114E-05 0.000E+00

     total cpu time spent up to now is     1025.5 secs

     per-process dynamical memory:    32.0 Mb

     Self-consistent Calculation

     iteration #  1     ecut=    60.00 Ry     beta=0.70
     Davidson diagonalization with overlap
     ethr =  1.00E-06,  avg # of iterations =  2.0

     Threshold (ethr) on eigenvalues was too large:
     Diagonalizing with lowered threshold

     Davidson diagonalization with overlap
     ethr =  4.59E-08,  avg # of iterations =  2.0

     negative rho (up, down):  7.059E-06 0.000E+00

     total cpu time spent up to now is     1025.6 secs

     total energy              =     -33.74370366 Ry
     Harris-Foulkes estimate   =     -33.74370779 Ry
     estimated scf accuracy    <       0.00000465 Ry

     iteration #  2     ecut=    60.00 Ry     beta=0.70
     Davidson diagonalization with overlap
     ethr =  5.81E-08,  avg # of iterations =  2.0

     negative rho (up, down):  2.260E-06 0.000E+00

     total cpu time spent up to now is     1025.7 secs

     total energy              =     -33.74370445 Ry
     Harris-Foulkes estimate   =     -33.74370604 Ry
     estimated scf accuracy    <       0.00000321 Ry

     iteration #  3     ecut=    60.00 Ry     beta=0.70
     Davidson diagonalization with overlap
     ethr =  4.01E-08,  avg # of iterations =  2.0

     total cpu time spent up to now is     1025.7 secs

     total energy              =     -33.74370517 Ry
     Harris-Foulkes estimate   =     -33.74370524 Ry
     estimated scf accuracy    <       0.00000011 Ry

     iteration #  4     ecut=    60.00 Ry     beta=0.70
     Davidson diagonalization with overlap
     ethr =  1.43E-09,  avg # of iterations =  2.0

     total cpu time spent up to now is     1025.8 secs

     End of self-consistent calculation

          k = 0.0000 0.0000 0.0000 ( 62669 PWs)   bands (ev):

   -25.2590 -12.6444  -9.2407  -7.0240

     highest occupied level (ev):    -7.0240

!    total energy              =     -33.74370523 Ry
     Harris-Foulkes estimate   =     -33.74370520 Ry
     estimated scf accuracy    <          1.4E-09 Ry

     convergence has been achieved in   4 iterations

     Forces acting on atoms (Ry/au):

     atom    1 type  2   force =     0.00007845   -0.00912882    0.00391484
     atom    2 type  1   force =    -0.00004804    0.00548575   -0.00525874
     atom    3 type  1   force =    -0.00003041    0.00364308    0.00134390

     Total force =     0.013096     Total SCF correction =     0.000101

     Entering Dynamics:    iteration =  1000
                           time      =   0.4838 pico-seconds


     Andersen thermostat:    3 collisions

ATOMIC_POSITIONS (angstrom)
O        0.000855187  -0.003536481   0.121816107
H        0.013383473   0.800844607  -0.452918092
H       -0.026930987  -0.744821147  -0.541637001


     kinetic energy (Ekin) =     0.00010939 Ry
     temperature           =     5.75693462 K 
     Ekin + Etot (const)   =   -33.74359584 Ry
     Message from routine dynamics:
     Total linear momentum <> 0

     Linear momentum :    0.0319169153    0.0373044222   -0.0043684255

     The maximum number of steps has been reached.

     End of molecular dynamics calculation

     diffusion coefficients :
     atom     1   D =       0.00000000 cm^2/s
     atom     2   D =       0.00000007 cm^2/s
     atom     3   D =       0.00000018 cm^2/s

     < D > =       0.00000009 cm^2/s

     Writing output data file pwscf.save
 
     init_run     :      0.51s CPU      0.95s WALL (       1 calls)
     electrons    :    334.14s CPU    495.74s WALL (    1000 calls)
     update_pot   :    290.52s CPU    384.23s WALL (     999 calls)
     forces       :     52.41s CPU     55.02s WALL (    1000 calls)

     Called by init_run:
     wfcinit      :      0.07s CPU      0.18s WALL (       1 calls)
     potinit      :      0.09s CPU      0.26s WALL (       1 calls)

     Called by electrons:
     c_bands      :     90.60s CPU     94.90s WALL (    4862 calls)
     sum_band     :     27.30s CPU     28.69s WALL (    4862 calls)
     v_of_rho     :    102.78s CPU    106.88s WALL (    4882 calls)
     mix_rho      :     64.86s CPU     92.85s WALL (    4862 calls)

     Called by c_bands:
     init_us_2    :      1.54s CPU      1.75s WALL (    9725 calls)
     cegterg      :     88.50s CPU     90.96s WALL (    4862 calls)

     Called by sum_band:

     Called by *egterg:
     h_psi        :     78.85s CPU     80.89s WALL (   15444 calls)
     g_psi        :      0.75s CPU      0.77s WALL (   10581 calls)
     cdiaghg      :      1.73s CPU      1.83s WALL (   13464 calls)

     Called by h_psi:
     h_psi:pot    :     78.27s CPU     80.30s WALL (   15444 calls)
     h_psi:calbec :      1.90s CPU      2.52s WALL (   15444 calls)
     vloc_psi     :     76.06s CPU     77.46s WALL (   15444 calls)
     add_vuspsi   :      0.24s CPU      0.24s WALL (   15444 calls)

     General routines
     calbec       :     16.24s CPU     21.26s WALL (   20442 calls)
     fft          :     74.79s CPU     79.39s WALL (   57661 calls)
     fftw         :     79.59s CPU     81.33s WALL (  131856 calls)
     davcio       :      3.80s CPU     24.36s WALL (   20103 calls)
 
     Parallel routines
     fft_scatter  :     66.54s CPU     71.34s WALL (  189517 calls)
 
     PWSCF        : 11m51.43s CPU    17m 6.13s WALL

 
   This run was terminated on:  21:11:36  13Apr2018            

=------------------------------------------------------------------------------=
   JOB DONE.
=------------------------------------------------------------------------------=
