
     Program PWSCF v.6.0 (svn rev. 13079) starts on 12Apr2018 at 18:38:49 

     This program is part of the open-source Quantum ESPRESSO suite
     for quantum simulation of materials; please cite
         "P. Giannozzi et al., J. Phys.:Condens. Matter 21 395502 (2009);
          URL http://www.quantum-espresso.org", 
     in publications or presentations arising from this work. More details at
     http://www.quantum-espresso.org/quote

     Parallel version (MPI), running on    10 processors
     R & G space division:  proc/nbgrp/npool/nimage =      10
     Reading input from H2O-1000x.in

     Current dimensions of program PWSCF are:
     Max number of different atomic species (ntypx) = 10
     Max number of k-points (npk) =  40000
     Max angular momentum in pseudopotentials (lmaxx) =  3

     Subspace diagonalization in iterative solution of the eigenvalue problem:
     a serial algorithm will be used

 
     Parallelization info
     --------------------
     sticks:   dense  smooth     PW     G-vecs:    dense   smooth      PW
     Min         764     764    190                50246    50246    6266
     Max         765     765    191                50251    50251    6269
     Sum        7645    7645   1901               502479   502479   62669
 


     bravais-lattice index     =            1
     lattice parameter (alat)  =      20.0000  a.u.
     unit-cell volume          =    8000.0000 (a.u.)^3
     number of atoms/cell      =            3
     number of atomic types    =            2
     number of electrons       =         8.00
     number of Kohn-Sham states=            4
     kinetic-energy cutoff     =      60.0000  Ry
     charge density cutoff     =     240.0000  Ry
     convergence threshold     =      1.0E-08
     mixing beta               =       0.7000
     number of iterations used =            8  plain     mixing
     Exchange-correlation      = BLYP ( 1  3  1  3 0 0)
     nstep                     =          100


     celldm(1)=  20.000000  celldm(2)=   0.000000  celldm(3)=   0.000000
     celldm(4)=   0.000000  celldm(5)=   0.000000  celldm(6)=   0.000000

     crystal axes: (cart. coord. in units of alat)
               a(1) = (   1.000000   0.000000   0.000000 )  
               a(2) = (   0.000000   1.000000   0.000000 )  
               a(3) = (   0.000000   0.000000   1.000000 )  

     reciprocal axes: (cart. coord. in units 2 pi/alat)
               b(1) = (  1.000000  0.000000  0.000000 )  
               b(2) = (  0.000000  1.000000  0.000000 )  
               b(3) = (  0.000000  0.000000  1.000000 )  


     PseudoPot. # 1 for  H read from file:
     ./H.blyp-hgh.UPF
     MD5 check sum: c576e69559cde411e611be972c763230
     Pseudo is Norm-conserving, Zval =  1.0
     Generated in analytical, separable form
     Using radial grid of  929 points,  0 beta functions with: 

     PseudoPot. # 2 for  O read from file:
     ./O.blyp-hgh.UPF
     MD5 check sum: d0b7156309aa9befef28faac7bc56342
     Pseudo is Norm-conserving, Zval =  6.0
     Generated in analytical, separable form
     Using radial grid of 1095 points,  1 beta functions with: 
                l(1) =   0

     atomic species   valence    mass     pseudopotential
        H              1.00     1.01000      H( 1.00)
        O              6.00    16.00000      O( 1.00)

     No symmetry found



   Cartesian axes

     site n.     atom                  positions (alat units)
         1           O   tau(   1) = (   0.0000000   0.0000000   0.0112686  )
         2           H   tau(   2) = (   0.0000000   0.0721156  -0.0450744  )
         3           H   tau(   3) = (   0.0000000  -0.0721156  -0.0450744  )

     number of k points=     1
                       cart. coord. in units 2pi/alat
        k(    1) = (   0.0000000   0.0000000   0.0000000), wk =   2.0000000

     Dense  grid:   502479 G-vectors     FFT dimensions: ( 100, 100, 100)

     Estimated max dynamical RAM per process >      17.51Mb

     Estimated total allocated dynamical RAM >     175.12Mb

     Initial potential from superposition of free atoms
     Check: negative starting charge=   -0.071145

     starting charge    7.99998, renormalised to    8.00000

     negative rho (up, down):  7.115E-02 0.000E+00
     Starting wfc are    6 randomized atomic wfcs

     total cpu time spent up to now is        3.6 secs

     per-process dynamical memory:    44.1 Mb

     Self-consistent Calculation

     iteration #  1     ecut=    60.00 Ry     beta=0.70
     Davidson diagonalization with overlap
     ethr =  1.00E-02,  avg # of iterations =  2.0

     negative rho (up, down):  2.060E-02 0.000E+00

     total cpu time spent up to now is        5.0 secs

     total energy              =     -33.64315529 Ry
     Harris-Foulkes estimate   =     -33.72910557 Ry
     estimated scf accuracy    <       0.22794765 Ry

     iteration #  2     ecut=    60.00 Ry     beta=0.70
     Davidson diagonalization with overlap
     ethr =  2.85E-03,  avg # of iterations =  2.0

     negative rho (up, down):  1.214E-02 0.000E+00

     total cpu time spent up to now is        6.3 secs

     total energy              =     -33.68605343 Ry
     Harris-Foulkes estimate   =     -33.76847014 Ry
     estimated scf accuracy    <       0.18781245 Ry

     iteration #  3     ecut=    60.00 Ry     beta=0.70
     Davidson diagonalization with overlap
     ethr =  2.35E-03,  avg # of iterations =  2.0

     negative rho (up, down):  1.506E-06 0.000E+00

     total cpu time spent up to now is        7.5 secs

     total energy              =     -33.74058047 Ry
     Harris-Foulkes estimate   =     -33.72920614 Ry
     estimated scf accuracy    <       0.00536405 Ry

     iteration #  4     ecut=    60.00 Ry     beta=0.70
     Davidson diagonalization with overlap
     ethr =  6.71E-05,  avg # of iterations =  2.0

     negative rho (up, down):  2.383E-04 0.000E+00

     total cpu time spent up to now is        8.8 secs

     total energy              =     -33.74204406 Ry
     Harris-Foulkes estimate   =     -33.74213781 Ry
     estimated scf accuracy    <       0.00025711 Ry

     iteration #  5     ecut=    60.00 Ry     beta=0.70
     Davidson diagonalization with overlap
     ethr =  3.21E-06,  avg # of iterations =  2.0

     negative rho (up, down):  2.458E-05 0.000E+00

     total cpu time spent up to now is       10.0 secs

     total energy              =     -33.74205308 Ry
     Harris-Foulkes estimate   =     -33.74206574 Ry
     estimated scf accuracy    <       0.00002845 Ry

     iteration #  6     ecut=    60.00 Ry     beta=0.70
     Davidson diagonalization with overlap
     ethr =  3.56E-07,  avg # of iterations =  2.0

     negative rho (up, down):  2.895E-08 0.000E+00

     total cpu time spent up to now is       11.3 secs

     total energy              =     -33.74205625 Ry
     Harris-Foulkes estimate   =     -33.74205761 Ry
     estimated scf accuracy    <       0.00000158 Ry

     iteration #  7     ecut=    60.00 Ry     beta=0.70
     Davidson diagonalization with overlap
     ethr =  1.97E-08,  avg # of iterations =  2.0

     total cpu time spent up to now is       12.7 secs

     total energy              =     -33.74205625 Ry
     Harris-Foulkes estimate   =     -33.74205647 Ry
     estimated scf accuracy    <       0.00000004 Ry

     iteration #  8     ecut=    60.00 Ry     beta=0.70
     Davidson diagonalization with overlap
     ethr =  5.15E-10,  avg # of iterations =  2.0

     total cpu time spent up to now is       14.0 secs

     total energy              =     -33.74205615 Ry
     Harris-Foulkes estimate   =     -33.74205626 Ry
     estimated scf accuracy    <       0.00000002 Ry

     iteration #  9     ecut=    60.00 Ry     beta=0.70
     Davidson diagonalization with overlap
     ethr =  2.11E-10,  avg # of iterations =  2.0

     total cpu time spent up to now is       14.8 secs

     End of self-consistent calculation

          k = 0.0000 0.0000 0.0000 ( 62669 PWs)   bands (ev):

   -25.4809 -12.9152  -9.2076  -7.0606

     highest occupied level (ev):    -7.0606

!    total energy              =     -33.74205614 Ry
     Harris-Foulkes estimate   =     -33.74205615 Ry
     estimated scf accuracy    <          1.2E-09 Ry

     convergence has been achieved in   9 iterations

     Forces acting on atoms (Ry/au):

     atom    1 type  2   force =    -0.00000003    0.00000007    0.05215867
     atom    2 type  1   force =     0.00000001    0.02845857   -0.02607932
     atom    3 type  1   force =     0.00000001   -0.02845864   -0.02607935

     Total force =     0.075502     Total SCF correction =     0.000067

     Molecular Dynamics Calculation

     Starting temperature  =    10.00 K

     temperature is controlled by Andersen thermostat
     Collision frequency = 1.0000/timestep
     mass H                =     1.01
     mass O                =    16.00
     Time step             =    10.00 a.u.,  0.4838 femto-seconds

     Entering Dynamics:    iteration =     1
                           time      =   0.0005 pico-seconds


     Andersen thermostat:    3 collisions

ATOMIC_POSITIONS (angstrom)
O       -0.000066196  -0.000039319   0.119241637
H        0.000008111   0.765011878  -0.478311651
H        0.001040538  -0.764388997  -0.475459771


     kinetic energy (Ekin) =     0.00013370 Ry
     temperature           =     7.03661245 K 
     Ekin + Etot (const)   =   -33.74192244 Ry

     Linear momentum :    0.0000000000   -0.0000000000    0.0000000000

     Writing output data file pwscf.save
     Check: negative starting charge=   -0.071145
     NEW-OLD atomic charge density approx. for the potential
     Check: negative starting charge=   -0.071144

     negative rho (up, down):  4.374E-05 0.000E+00

     total cpu time spent up to now is       18.4 secs

     per-process dynamical memory:    47.4 Mb

     Self-consistent Calculation

     iteration #  1     ecut=    60.00 Ry     beta=0.70
     Davidson diagonalization with overlap
     ethr =  1.00E-06,  avg # of iterations =  2.0

     Threshold (ethr) on eigenvalues was too large:
     Diagonalizing with lowered threshold

     Davidson diagonalization with overlap
     ethr =  2.97E-08,  avg # of iterations =  2.0

     negative rho (up, down):  3.632E-06 0.000E+00

     total cpu time spent up to now is       20.2 secs

     total energy              =     -33.74218684 Ry
     Harris-Foulkes estimate   =     -33.74218912 Ry
     estimated scf accuracy    <       0.00000308 Ry

     iteration #  2     ecut=    60.00 Ry     beta=0.70
     Davidson diagonalization with overlap
     ethr =  3.84E-08,  avg # of iterations =  2.0

     negative rho (up, down):  9.280E-07 0.000E+00

     total cpu time spent up to now is       21.4 secs

     total energy              =     -33.74218703 Ry
     Harris-Foulkes estimate   =     -33.74218809 Ry
     estimated scf accuracy    <       0.00000154 Ry

     iteration #  3     ecut=    60.00 Ry     beta=0.70
     Davidson diagonalization with overlap
     ethr =  1.93E-08,  avg # of iterations =  2.0

     total cpu time spent up to now is       22.7 secs

     total energy              =     -33.74218721 Ry
     Harris-Foulkes estimate   =     -33.74218745 Ry
     estimated scf accuracy    <       0.00000010 Ry

     iteration #  4     ecut=    60.00 Ry     beta=0.70
     Davidson diagonalization with overlap
     ethr =  1.29E-09,  avg # of iterations =  2.0

     total cpu time spent up to now is       23.7 secs

     End of self-consistent calculation

          k = 0.0000 0.0000 0.0000 ( 62669 PWs)   bands (ev):

   -25.4674 -12.9117  -9.1999  -7.0582

     highest occupied level (ev):    -7.0582

!    total energy              =     -33.74218713 Ry
     Harris-Foulkes estimate   =     -33.74218723 Ry
     estimated scf accuracy    <          1.2E-09 Ry

     convergence has been achieved in   4 iterations

     Forces acting on atoms (Ry/au):

     atom    1 type  2   force =     0.00003176    0.00345040    0.05048750
     atom    2 type  1   force =    -0.00003340    0.02486116   -0.02394891
     atom    3 type  1   force =     0.00000164   -0.02831156   -0.02653859

     Total force =     0.072515     Total SCF correction =     0.000279

     Entering Dynamics:    iteration =     2
                           time      =   0.0010 pico-seconds


     Andersen thermostat:    3 collisions

ATOMIC_POSITIONS (angstrom)
O       -0.000052801  -0.000109766   0.119403159
H        0.000237950   0.765776651  -0.478925634
H        0.000598494  -0.764037783  -0.477404551


     kinetic energy (Ekin) =     0.00007279 Ry
     temperature           =     3.83103669 K 
     Ekin + Etot (const)   =   -33.74211434 Ry
     Message from routine dynamics:
     Total linear momentum <> 0

     Linear momentum :    0.0031640920    0.0367678347    0.0178187929

     Writing output data file pwscf.save

     first order wave-functions extrapolation
     Check: negative starting charge=   -0.071144
     first order charge density extrapolation
     Check: negative starting charge=   -0.071147

     negative rho (up, down):  1.270E-04 0.000E+00

     total cpu time spent up to now is       28.0 secs

     per-process dynamical memory:    47.4 Mb

     Self-consistent Calculation

     iteration #  1     ecut=    60.00 Ry     beta=0.70
     Davidson diagonalization with overlap
     ethr =  1.00E-06,  avg # of iterations =  2.0

     Threshold (ethr) on eigenvalues was too large:
     Diagonalizing with lowered threshold

     Davidson diagonalization with overlap
     ethr =  2.13E-08,  avg # of iterations =  3.0

     negative rho (up, down):  1.569E-05 0.000E+00

     total cpu time spent up to now is       29.8 secs

     total energy              =     -33.74233248 Ry
     Harris-Foulkes estimate   =     -33.74233416 Ry
     estimated scf accuracy    <       0.00000179 Ry

     iteration #  2     ecut=    60.00 Ry     beta=0.70
     Davidson diagonalization with overlap
     ethr =  2.24E-08,  avg # of iterations =  2.0

     negative rho (up, down):  8.675E-07 0.000E+00

     total cpu time spent up to now is       31.0 secs

     total energy              =     -33.74233293 Ry
     Harris-Foulkes estimate   =     -33.74233270 Ry
     estimated scf accuracy    <       0.00000025 Ry

     iteration #  3     ecut=    60.00 Ry     beta=0.70
     Davidson diagonalization with overlap
     ethr =  3.14E-09,  avg # of iterations =  2.0

     total cpu time spent up to now is       32.2 secs

     total energy              =     -33.74233329 Ry
     Harris-Foulkes estimate   =     -33.74233304 Ry
     estimated scf accuracy    <       0.00000013 Ry

     iteration #  4     ecut=    60.00 Ry     beta=0.70
     Davidson diagonalization with overlap
     ethr =  1.62E-09,  avg # of iterations =  2.0

     total cpu time spent up to now is       33.2 secs

     End of self-consistent calculation

          k = 0.0000 0.0000 0.0000 ( 62669 PWs)   bands (ev):

   -25.4579 -12.8961  -9.2043  -7.0568

     highest occupied level (ev):    -7.0568

!    total energy              =     -33.74233335 Ry
     Harris-Foulkes estimate   =     -33.74233332 Ry
     estimated scf accuracy    <          1.4E-09 Ry

     convergence has been achieved in   4 iterations

     Forces acting on atoms (Ry/au):

     atom    1 type  2   force =    -0.00013935    0.00355665    0.04771167
     atom    2 type  1   force =     0.00006120    0.02354359   -0.02245696
     atom    3 type  1   force =     0.00007814   -0.02710024   -0.02525471

     Total force =     0.068702     Total SCF correction =     0.000259

     Entering Dynamics:    iteration =     3
                           time      =   0.0015 pico-seconds


     Andersen thermostat:    3 collisions

ATOMIC_POSITIONS (angstrom)
O       -0.000134173  -0.000062953   0.119565081
H        0.000918664   0.767585988  -0.478683855
H        0.001206857  -0.766588707  -0.480211423


     kinetic energy (Ekin) =     0.00021112 Ry
     temperature           =    11.11122736 K 
     Ekin + Etot (const)   =   -33.74212222 Ry
     Message from routine dynamics:
     Total linear momentum <> 0

     Linear momentum :    0.0367942434   -0.0405924037    0.0065539017

     Writing output data file pwscf.save

     second order wave-functions extrapolation
     Check: negative starting charge=   -0.071147
     second order charge density extrapolation
     Check: negative starting charge=   -0.071147

     negative rho (up, down):  8.909E-05 0.000E+00

     total cpu time spent up to now is       38.0 secs

     per-process dynamical memory:    47.4 Mb

     Self-consistent Calculation

     iteration #  1     ecut=    60.00 Ry     beta=0.70
     Davidson diagonalization with overlap
     ethr =  1.00E-06,  avg # of iterations =  3.0

     negative rho (up, down):  9.562E-06 0.000E+00

     total cpu time spent up to now is       39.4 secs

     total energy              =     -33.74264449 Ry
     Harris-Foulkes estimate   =     -33.74265243 Ry
     estimated scf accuracy    <       0.00001168 Ry

     iteration #  2     ecut=    60.00 Ry     beta=0.70
     Davidson diagonalization with overlap
     ethr =  1.46E-07,  avg # of iterations =  2.0

     negative rho (up, down):  3.171E-06 0.000E+00

     total cpu time spent up to now is       40.6 secs

     total energy              =     -33.74264638 Ry
     Harris-Foulkes estimate   =     -33.74265107 Ry
     estimated scf accuracy    <       0.00000804 Ry

     iteration #  3     ecut=    60.00 Ry     beta=0.70
     Davidson diagonalization with overlap
     ethr =  1.01E-07,  avg # of iterations =  2.0

     negative rho (up, down):  3.179E-08 0.000E+00

     total cpu time spent up to now is       41.9 secs

     total energy              =     -33.74264834 Ry
     Harris-Foulkes estimate   =     -33.74264827 Ry
     estimated scf accuracy    <       0.00000015 Ry

     iteration #  4     ecut=    60.00 Ry     beta=0.70
     Davidson diagonalization with overlap
     ethr =  1.90E-09,  avg # of iterations =  2.0

     total cpu time spent up to now is       42.8 secs

     End of self-consistent calculation

          k = 0.0000 0.0000 0.0000 ( 62669 PWs)   bands (ev):

   -25.4288 -12.8731  -9.1991  -7.0516

     highest occupied level (ev):    -7.0516

!    total energy              =     -33.74264850 Ry
     Harris-Foulkes estimate   =     -33.74264839 Ry
     estimated scf accuracy    <          2.8E-09 Ry

     convergence has been achieved in   4 iterations

     Forces acting on atoms (Ry/au):

     atom    1 type  2   force =     0.00002020   -0.00030368    0.04242387
     atom    2 type  1   force =    -0.00001365    0.02157416   -0.02122696
     atom    3 type  1   force =    -0.00000655   -0.02127048   -0.02119691

     Total force =     0.060147     Total SCF correction =     0.000519

     Entering Dynamics:    iteration =     4
                           time      =   0.0019 pico-seconds


     Andersen thermostat:    3 collisions

ATOMIC_POSITIONS (angstrom)
O       -0.000305977  -0.000166474   0.119838752
H        0.000355265   0.767569559  -0.480986305
H        0.004491894  -0.764932341  -0.482244358


     kinetic energy (Ekin) =     0.00039342 Ry
     temperature           =    20.70517477 K 
     Ekin + Etot (const)   =   -33.74225508 Ry
     Message from routine dynamics:
     Total linear momentum <> 0

     Linear momentum :    0.0286873754    0.0052705005   -0.0261793953

     Writing output data file pwscf.save

     second order wave-functions extrapolation
     Check: negative starting charge=   -0.071147
     second order charge density extrapolation
     Check: negative starting charge=   -0.071153

     negative rho (up, down):  1.527E-04 0.000E+00

     total cpu time spent up to now is       47.6 secs

     per-process dynamical memory:    47.4 Mb

     Self-consistent Calculation

     iteration #  1     ecut=    60.00 Ry     beta=0.70
     Davidson diagonalization with overlap
     ethr =  1.00E-06,  avg # of iterations =  2.0

     Threshold (ethr) on eigenvalues was too large:
     Diagonalizing with lowered threshold

     Davidson diagonalization with overlap
     ethr =  1.71E-08,  avg # of iterations =  4.0

     negative rho (up, down):  2.003E-05 0.000E+00

     total cpu time spent up to now is       49.4 secs

     total energy              =     -33.74275879 Ry
     Harris-Foulkes estimate   =     -33.74276078 Ry
     estimated scf accuracy    <       0.00000160 Ry

     iteration #  2     ecut=    60.00 Ry     beta=0.70
     Davidson diagonalization with overlap
     ethr =  2.00E-08,  avg # of iterations =  2.0

     negative rho (up, down):  2.799E-06 0.000E+00

     total cpu time spent up to now is       50.7 secs

     total energy              =     -33.74275904 Ry
     Harris-Foulkes estimate   =     -33.74275911 Ry
     estimated scf accuracy    <       0.00000038 Ry

     iteration #  3     ecut=    60.00 Ry     beta=0.70
     Davidson diagonalization with overlap
     ethr =  4.78E-09,  avg # of iterations =  2.0

     total cpu time spent up to now is       52.0 secs

     total energy              =     -33.74275938 Ry
     Harris-Foulkes estimate   =     -33.74275919 Ry
     estimated scf accuracy    <       0.00000014 Ry

     iteration #  4     ecut=    60.00 Ry     beta=0.70
     Davidson diagonalization with overlap
     ethr =  1.74E-09,  avg # of iterations =  2.0

     total cpu time spent up to now is       52.9 secs

     End of self-consistent calculation

          k = 0.0000 0.0000 0.0000 ( 62669 PWs)   bands (ev):

   -25.4242 -12.8510  -9.2121  -7.0512

     highest occupied level (ev):    -7.0512

!    total energy              =     -33.74275940 Ry
     Harris-Foulkes estimate   =     -33.74275941 Ry
     estimated scf accuracy    <          6.4E-10 Ry

     convergence has been achieved in   4 iterations

     Forces acting on atoms (Ry/au):

     atom    1 type  2   force =    -0.00027770    0.00206864    0.03999326
     atom    2 type  1   force =     0.00007886    0.01988305   -0.01911143
     atom    3 type  1   force =     0.00019884   -0.02195168   -0.02088183

     Total force =     0.057292     Total SCF correction =     0.000156

     Entering Dynamics:    iteration =     5
                           time      =   0.0024 pico-seconds


     Andersen thermostat:    3 collisions

ATOMIC_POSITIONS (angstrom)
O       -0.000311892  -0.000154213   0.120163775
H       -0.001984039   0.769506225  -0.483933393
H        0.006924901  -0.767063246  -0.484446149


     kinetic energy (Ekin) =     0.00042354 Ry
     temperature           =    22.29077772 K 
     Ekin + Etot (const)   =   -33.74233586 Ry
     Message from routine dynamics:
     Total linear momentum <> 0

     Linear momentum :   -0.0121090047    0.0309070967    0.0136243577

     Writing output data file pwscf.save

     second order wave-functions extrapolation
     Check: negative starting charge=   -0.071153
     second order charge density extrapolation
     Check: negative starting charge=   -0.071157

     negative rho (up, down):  9.625E-05 0.000E+00

     total cpu time spent up to now is       57.4 secs

     per-process dynamical memory:    47.4 Mb

     Self-consistent Calculation

     iteration #  1     ecut=    60.00 Ry     beta=0.70
     Davidson diagonalization with overlap
     ethr =  1.00E-06,  avg # of iterations =  2.0

     Threshold (ethr) on eigenvalues was too large:
     Diagonalizing with lowered threshold

     Davidson diagonalization with overlap
     ethr =  2.58E-08,  avg # of iterations =  2.0

     negative rho (up, down):  1.069E-05 0.000E+00

     total cpu time spent up to now is       59.0 secs

     total energy              =     -33.74308924 Ry
     Harris-Foulkes estimate   =     -33.74309209 Ry
     estimated scf accuracy    <       0.00000296 Ry

     iteration #  2     ecut=    60.00 Ry     beta=0.70
     Davidson diagonalization with overlap
     ethr =  3.70E-08,  avg # of iterations =  2.0

     negative rho (up, down):  3.445E-06 0.000E+00

     total cpu time spent up to now is       60.1 secs

     total energy              =     -33.74308949 Ry
     Harris-Foulkes estimate   =     -33.74309067 Ry
     estimated scf accuracy    <       0.00000189 Ry

     iteration #  3     ecut=    60.00 Ry     beta=0.70
     Davidson diagonalization with overlap
     ethr =  2.36E-08,  avg # of iterations =  2.0

     total cpu time spent up to now is       61.3 secs

     total energy              =     -33.74308990 Ry
     Harris-Foulkes estimate   =     -33.74308996 Ry
     estimated scf accuracy    <       0.00000008 Ry

     iteration #  4     ecut=    60.00 Ry     beta=0.70
     Davidson diagonalization with overlap
     ethr =  9.73E-10,  avg # of iterations =  2.0

     total cpu time spent up to now is       62.1 secs

     End of self-consistent calculation

          k = 0.0000 0.0000 0.0000 ( 62669 PWs)   bands (ev):

   -25.3892 -12.8140  -9.2130  -7.0452

     highest occupied level (ev):    -7.0452

!    total energy              =     -33.74308996 Ry
     Harris-Foulkes estimate   =     -33.74308992 Ry
     estimated scf accuracy    <          1.4E-09 Ry

     convergence has been achieved in   4 iterations

     Forces acting on atoms (Ry/au):

     atom    1 type  2   force =    -0.00050927    0.00233800    0.03293172
     atom    2 type  1   force =     0.00015537    0.01521563   -0.01546521
     atom    3 type  1   force =     0.00035390   -0.01755363   -0.01746651

     Total force =     0.046629     Total SCF correction =     0.000275

     Entering Dynamics:    iteration =     6
                           time      =   0.0029 pico-seconds


     Andersen thermostat:    3 collisions

ATOMIC_POSITIONS (angstrom)
O       -0.000246767  -0.000205462   0.120248010
H       -0.003788987   0.769883473  -0.483051944
H        0.007698166  -0.766628635  -0.486662021


     kinetic energy (Ekin) =     0.00020115 Ry
     temperature           =    10.58652067 K 
     Ekin + Etot (const)   =   -33.74288880 Ry
     Message from routine dynamics:
     Total linear momentum <> 0

     Linear momentum :   -0.0071386751   -0.0577689788   -0.0148378974

     Writing output data file pwscf.save

     second order wave-functions extrapolation
     Check: negative starting charge=   -0.071157
     second order charge density extrapolation
     Check: negative starting charge=   -0.071158

     negative rho (up, down):  4.921E-05 0.000E+00

     total cpu time spent up to now is       66.5 secs

     per-process dynamical memory:    47.4 Mb

     Self-consistent Calculation

     iteration #  1     ecut=    60.00 Ry     beta=0.70
     Davidson diagonalization with overlap
     ethr =  1.00E-06,  avg # of iterations =  2.0

     Threshold (ethr) on eigenvalues was too large:
     Diagonalizing with lowered threshold

     Davidson diagonalization with overlap
     ethr =  1.01E-08,  avg # of iterations =  3.0

     negative rho (up, down):  4.261E-06 0.000E+00

     total cpu time spent up to now is       68.1 secs

     total energy              =     -33.74313398 Ry
     Harris-Foulkes estimate   =     -33.74313481 Ry
     estimated scf accuracy    <       0.00000085 Ry

     iteration #  2     ecut=    60.00 Ry     beta=0.70
     Davidson diagonalization with overlap
     ethr =  1.06E-08,  avg # of iterations =  2.0

     negative rho (up, down):  4.452E-07 0.000E+00

     total cpu time spent up to now is       69.2 secs

     total energy              =     -33.74313392 Ry
     Harris-Foulkes estimate   =     -33.74313413 Ry
     estimated scf accuracy    <       0.00000018 Ry

     iteration #  3     ecut=    60.00 Ry     beta=0.70
     Davidson diagonalization with overlap
     ethr =  2.29E-09,  avg # of iterations =  2.0

     total cpu time spent up to now is       70.4 secs

     total energy              =     -33.74313395 Ry
     Harris-Foulkes estimate   =     -33.74313399 Ry
     estimated scf accuracy    <       0.00000007 Ry

     iteration #  4     ecut=    60.00 Ry     beta=0.70
     Davidson diagonalization with overlap
     ethr =  8.65E-10,  avg # of iterations =  2.0

     total cpu time spent up to now is       71.3 secs

     End of self-consistent calculation

          k = 0.0000 0.0000 0.0000 ( 62669 PWs)   bands (ev):

   -25.3853 -12.8062  -9.2157  -7.0446

     highest occupied level (ev):    -7.0446

!    total energy              =     -33.74313392 Ry
     Harris-Foulkes estimate   =     -33.74313396 Ry
     estimated scf accuracy    <          4.1E-10 Ry

     convergence has been achieved in   4 iterations

     Forces acting on atoms (Ry/au):

     atom    1 type  2   force =    -0.00034111    0.00074882    0.03190158
     atom    2 type  1   force =     0.00004951    0.01555853   -0.01557890
     atom    3 type  1   force =     0.00029161   -0.01630734   -0.01632268

     Total force =     0.045118     Total SCF correction =     0.000145

     Entering Dynamics:    iteration =     7
                           time      =   0.0034 pico-seconds


     Andersen thermostat:    3 collisions

ATOMIC_POSITIONS (angstrom)
O       -0.000300237  -0.000147906   0.120263154
H       -0.003850525   0.769886207  -0.482310361
H        0.008606759  -0.767543141  -0.487643503


     kinetic energy (Ekin) =     0.00008543 Ry
     temperature           =     4.49624343 K 
     Ekin + Etot (const)   =   -33.74304849 Ry
     Message from routine dynamics:
     Total linear momentum <> 0

     Linear momentum :    0.0033627790   -0.0011931947    0.0542122174

     Writing output data file pwscf.save

     second order wave-functions extrapolation
     Check: negative starting charge=   -0.071158
     second order charge density extrapolation
     Check: negative starting charge=   -0.071158

     negative rho (up, down):  3.594E-05 0.000E+00

     total cpu time spent up to now is       75.7 secs

     per-process dynamical memory:    47.4 Mb

     Self-consistent Calculation

     iteration #  1     ecut=    60.00 Ry     beta=0.70
     Davidson diagonalization with overlap
     ethr =  1.00E-06,  avg # of iterations =  2.0

     Threshold (ethr) on eigenvalues was too large:
     Diagonalizing with lowered threshold

     Davidson diagonalization with overlap
     ethr =  3.62E-09,  avg # of iterations =  3.0

     negative rho (up, down):  2.782E-06 0.000E+00

     total cpu time spent up to now is       77.3 secs

     total energy              =     -33.74316804 Ry
     Harris-Foulkes estimate   =     -33.74316876 Ry
     estimated scf accuracy    <       0.00000037 Ry

     iteration #  2     ecut=    60.00 Ry     beta=0.70
     Davidson diagonalization with overlap
     ethr =  4.67E-09,  avg # of iterations =  2.0

     negative rho (up, down):  1.434E-07 0.000E+00

     total cpu time spent up to now is       78.4 secs

     total energy              =     -33.74316794 Ry
     Harris-Foulkes estimate   =     -33.74316810 Ry
     estimated scf accuracy    <       0.00000004 Ry

     iteration #  3     ecut=    60.00 Ry     beta=0.70
     Davidson diagonalization with overlap
     ethr =  5.01E-10,  avg # of iterations =  2.0

     total cpu time spent up to now is       79.6 secs

     total energy              =     -33.74316789 Ry
     Harris-Foulkes estimate   =     -33.74316795 Ry
     estimated scf accuracy    <       0.00000001 Ry

     iteration #  4     ecut=    60.00 Ry     beta=0.70
     Davidson diagonalization with overlap
     ethr =  1.72E-10,  avg # of iterations =  2.0

     total cpu time spent up to now is       80.4 secs

     End of self-consistent calculation

          k = 0.0000 0.0000 0.0000 ( 62669 PWs)   bands (ev):

   -25.3803 -12.8033  -9.2142  -7.0438

     highest occupied level (ev):    -7.0438

!    total energy              =     -33.74316792 Ry
     Harris-Foulkes estimate   =     -33.74316790 Ry
     estimated scf accuracy    <          8.7E-10 Ry

     convergence has been achieved in   4 iterations

     Forces acting on atoms (Ry/au):

     atom    1 type  2   force =    -0.00016200   -0.00199804    0.03110309
     atom    2 type  1   force =    -0.00004063    0.01624214   -0.01618425
     atom    3 type  1   force =     0.00020263   -0.01424410   -0.01491884

     Total force =     0.043848     Total SCF correction =     0.000305

     Entering Dynamics:    iteration =     8
                           time      =   0.0039 pico-seconds


     Andersen thermostat:    3 collisions

ATOMIC_POSITIONS (angstrom)
O       -0.000322268  -0.000141602   0.120509261
H       -0.004473287   0.771788801  -0.485395114
H        0.009578527  -0.769545594  -0.488457477


     kinetic energy (Ekin) =     0.00026543 Ry
     temperature           =    13.96932563 K 
     Ekin + Etot (const)   =   -33.74290249 Ry
     Message from routine dynamics:
     Total linear momentum <> 0

     Linear momentum :    0.0247480131   -0.0324590273   -0.0435635997

     Writing output data file pwscf.save

     second order wave-functions extrapolation
     Check: negative starting charge=   -0.071158
     second order charge density extrapolation
     Check: negative starting charge=   -0.071159

     negative rho (up, down):  1.523E-04 0.000E+00

     total cpu time spent up to now is       84.9 secs

     per-process dynamical memory:    47.4 Mb

     Self-consistent Calculation

     iteration #  1     ecut=    60.00 Ry     beta=0.70
     Davidson diagonalization with overlap
     ethr =  1.00E-06,  avg # of iterations =  3.0

     negative rho (up, down):  2.016E-05 0.000E+00

     total cpu time spent up to now is       86.1 secs

     total energy              =     -33.74336889 Ry
     Harris-Foulkes estimate   =     -33.74338377 Ry
     estimated scf accuracy    <       0.00001707 Ry

     iteration #  2     ecut=    60.00 Ry     beta=0.70
     Davidson diagonalization with overlap
     ethr =  2.13E-07,  avg # of iterations =  2.0

     negative rho (up, down):  7.796E-06 0.000E+00

     total cpu time spent up to now is       87.3 secs

     total energy              =     -33.74337198 Ry
     Harris-Foulkes estimate   =     -33.74337964 Ry
     estimated scf accuracy    <       0.00001403 Ry

     iteration #  3     ecut=    60.00 Ry     beta=0.70
     Davidson diagonalization with overlap
     ethr =  1.75E-07,  avg # of iterations =  2.0

     negative rho (up, down):  5.870E-08 0.000E+00

     total cpu time spent up to now is       88.4 secs

     total energy              =     -33.74337556 Ry
     Harris-Foulkes estimate   =     -33.74337504 Ry
     estimated scf accuracy    <       0.00000014 Ry

     iteration #  4     ecut=    60.00 Ry     beta=0.70
     Davidson diagonalization with overlap
     ethr =  1.74E-09,  avg # of iterations =  2.0

     total cpu time spent up to now is       89.4 secs

     End of self-consistent calculation

          k = 0.0000 0.0000 0.0000 ( 62669 PWs)   bands (ev):

   -25.3500 -12.7742  -9.2128  -7.0386

     highest occupied level (ev):    -7.0386

!    total energy              =     -33.74337579 Ry
     Harris-Foulkes estimate   =     -33.74337564 Ry
     estimated scf accuracy    <          9.2E-09 Ry

     convergence has been achieved in   4 iterations

     Forces acting on atoms (Ry/au):

     atom    1 type  2   force =    -0.00028678    0.00004053    0.02484519
     atom    2 type  1   force =     0.00004013    0.01137080   -0.01236970
     atom    3 type  1   force =     0.00024666   -0.01141133   -0.01247549

     Total force =     0.034432     Total SCF correction =     0.000660

     Entering Dynamics:    iteration =     9
                           time      =   0.0044 pico-seconds


     Andersen thermostat:    3 collisions

ATOMIC_POSITIONS (angstrom)
O       -0.000167359  -0.000198707   0.120538125
H       -0.005280864   0.773579005  -0.486448366
H        0.007932097  -0.770431164  -0.487861473


     kinetic energy (Ekin) =     0.00018282 Ry
     temperature           =     9.62158383 K 
     Ekin + Etot (const)   =   -33.74319298 Ry
     Message from routine dynamics:
     Total linear momentum <> 0

     Linear momentum :    0.0386907805   -0.0192623412   -0.0527483944

     Writing output data file pwscf.save

     second order wave-functions extrapolation
     Check: negative starting charge=   -0.071159
     second order charge density extrapolation
     Check: negative starting charge=   -0.071158

     negative rho (up, down):  5.920E-05 0.000E+00

     total cpu time spent up to now is       94.2 secs

     per-process dynamical memory:    47.4 Mb

     Self-consistent Calculation

     iteration #  1     ecut=    60.00 Ry     beta=0.70
     Davidson diagonalization with overlap
     ethr =  1.00E-06,  avg # of iterations =  2.0

     Threshold (ethr) on eigenvalues was too large:
     Diagonalizing with lowered threshold

     Davidson diagonalization with overlap
     ethr =  5.30E-09,  avg # of iterations =  3.0

     negative rho (up, down):  5.432E-06 0.000E+00

     total cpu time spent up to now is       96.0 secs

     total energy              =     -33.74343686 Ry
     Harris-Foulkes estimate   =     -33.74343846 Ry
     estimated scf accuracy    <       0.00000044 Ry

     iteration #  2     ecut=    60.00 Ry     beta=0.70
     Davidson diagonalization with overlap
     ethr =  5.55E-09,  avg # of iterations =  2.0

     negative rho (up, down):  4.193E-07 0.000E+00

     total cpu time spent up to now is       97.2 secs

     total energy              =     -33.74343670 Ry
     Harris-Foulkes estimate   =     -33.74343694 Ry
     estimated scf accuracy    <       0.00000006 Ry

     iteration #  3     ecut=    60.00 Ry     beta=0.70
     Davidson diagonalization with overlap
     ethr =  7.85E-10,  avg # of iterations =  2.0

     total cpu time spent up to now is       98.4 secs

     total energy              =     -33.74343664 Ry
     Harris-Foulkes estimate   =     -33.74343673 Ry
     estimated scf accuracy    <       0.00000003 Ry

     iteration #  4     ecut=    60.00 Ry     beta=0.70
     Davidson diagonalization with overlap
     ethr =  3.39E-10,  avg # of iterations =  2.0

     total cpu time spent up to now is       99.4 secs

     End of self-consistent calculation

          k = 0.0000 0.0000 0.0000 ( 62669 PWs)   bands (ev):

   -25.3357 -12.7665  -9.2073  -7.0360

     highest occupied level (ev):    -7.0360

!    total energy              =     -33.74343661 Ry
     Harris-Foulkes estimate   =     -33.74343665 Ry
     estimated scf accuracy    <          5.0E-10 Ry

     convergence has been achieved in   4 iterations

     Forces acting on atoms (Ry/au):

     atom    1 type  2   force =    -0.00027826    0.00242548    0.02344421
     atom    2 type  1   force =     0.00005232    0.00836007   -0.01072323
     atom    3 type  1   force =     0.00022593   -0.01078555   -0.01272098

     Total force =     0.031917     Total SCF correction =     0.000200

     Entering Dynamics:    iteration =    10
                           time      =   0.0048 pico-seconds


     Andersen thermostat:    3 collisions

ATOMIC_POSITIONS (angstrom)
O       -0.000245147  -0.000333927   0.120502016
H       -0.005309303   0.775753125  -0.486192160
H        0.009192827  -0.770463198  -0.487545650


     kinetic energy (Ekin) =     0.00014004 Ry
     temperature           =     7.36997776 K 
     Ekin + Etot (const)   =   -33.74329658 Ry
     Message from routine dynamics:
     Total linear momentum <> 0

     Linear momentum :    0.0391544945    0.0221982247   -0.0215321044

     Writing output data file pwscf.save

     second order wave-functions extrapolation
     Check: negative starting charge=   -0.071158
     second order charge density extrapolation
     Check: negative starting charge=   -0.071155

     negative rho (up, down):  9.060E-05 0.000E+00

     total cpu time spent up to now is      104.2 secs

     per-process dynamical memory:    47.4 Mb

     Self-consistent Calculation

     iteration #  1     ecut=    60.00 Ry     beta=0.70
     Davidson diagonalization with overlap
     ethr =  1.00E-06,  avg # of iterations =  2.0

     Threshold (ethr) on eigenvalues was too large:
     Diagonalizing with lowered threshold

     Davidson diagonalization with overlap
     ethr =  6.62E-09,  avg # of iterations =  3.0

     negative rho (up, down):  9.628E-06 0.000E+00

     total cpu time spent up to now is      106.0 secs

     total energy              =     -33.74345367 Ry
     Harris-Foulkes estimate   =     -33.74345535 Ry
     estimated scf accuracy    <       0.00000058 Ry

     iteration #  2     ecut=    60.00 Ry     beta=0.70
     Davidson diagonalization with overlap
     ethr =  7.21E-09,  avg # of iterations =  2.0

     negative rho (up, down):  3.621E-07 0.000E+00

     total cpu time spent up to now is      107.1 secs

     total energy              =     -33.74345346 Ry
     Harris-Foulkes estimate   =     -33.74345376 Ry
     estimated scf accuracy    <       0.00000006 Ry

     iteration #  3     ecut=    60.00 Ry     beta=0.70
     Davidson diagonalization with overlap
     ethr =  6.91E-10,  avg # of iterations =  2.0

     total cpu time spent up to now is      108.3 secs

     total energy              =     -33.74345340 Ry
     Harris-Foulkes estimate   =     -33.74345348 Ry
     estimated scf accuracy    <       0.00000002 Ry

     iteration #  4     ecut=    60.00 Ry     beta=0.70
     Davidson diagonalization with overlap
     ethr =  2.12E-10,  avg # of iterations =  2.0

     total cpu time spent up to now is      109.3 secs

     End of self-consistent calculation

          k = 0.0000 0.0000 0.0000 ( 62669 PWs)   bands (ev):

   -25.3264 -12.7654  -9.2004  -7.0339

     highest occupied level (ev):    -7.0339

!    total energy              =     -33.74345346 Ry
     Harris-Foulkes estimate   =     -33.74345340 Ry
     estimated scf accuracy    <          2.0E-09 Ry

     convergence has been achieved in   4 iterations

     Forces acting on atoms (Ry/au):

     atom    1 type  2   force =    -0.00014101    0.00504651    0.02269316
     atom    2 type  1   force =    -0.00001709    0.00588203   -0.00935339
     atom    3 type  1   force =     0.00015810   -0.01092855   -0.01333977

     Total force =     0.030983     Total SCF correction =     0.000361

     Entering Dynamics:    iteration =    11
                           time      =   0.0053 pico-seconds


     Andersen thermostat:    3 collisions

ATOMIC_POSITIONS (angstrom)
O       -0.000298973  -0.000322537   0.120500484
H       -0.004397447   0.777433787  -0.485466562
H        0.009133654  -0.772324284  -0.488246995


     kinetic energy (Ekin) =     0.00016054 Ry
     temperature           =     8.44903645 K 
     Ekin + Etot (const)   =   -33.74329292 Ry
     Message from routine dynamics:
     Total linear momentum <> 0

     Linear momentum :   -0.0450541762    0.0203881231   -0.0415067389

     Writing output data file pwscf.save

     second order wave-functions extrapolation
     Check: negative starting charge=   -0.071155
     second order charge density extrapolation
     Check: negative starting charge=   -0.071153

     negative rho (up, down):  4.380E-05 0.000E+00

     total cpu time spent up to now is      114.0 secs

     per-process dynamical memory:    47.4 Mb

     Self-consistent Calculation

     iteration #  1     ecut=    60.00 Ry     beta=0.70
     Davidson diagonalization with overlap
     ethr =  1.00E-06,  avg # of iterations =  2.0

     Threshold (ethr) on eigenvalues was too large:
     Diagonalizing with lowered threshold

     Davidson diagonalization with overlap
     ethr =  1.77E-08,  avg # of iterations =  3.0

     negative rho (up, down):  3.678E-06 0.000E+00

     total cpu time spent up to now is      115.6 secs

     total energy              =     -33.74350728 Ry
     Harris-Foulkes estimate   =     -33.74350861 Ry
     estimated scf accuracy    <       0.00000185 Ry

     iteration #  2     ecut=    60.00 Ry     beta=0.70
     Davidson diagonalization with overlap
     ethr =  2.31E-08,  avg # of iterations =  2.0

     negative rho (up, down):  9.300E-07 0.000E+00

     total cpu time spent up to now is      116.8 secs

     total energy              =     -33.74350731 Ry
     Harris-Foulkes estimate   =     -33.74350802 Ry
     estimated scf accuracy    <       0.00000091 Ry

     iteration #  3     ecut=    60.00 Ry     beta=0.70
     Davidson diagonalization with overlap
     ethr =  1.14E-08,  avg # of iterations =  2.0

     total cpu time spent up to now is      117.9 secs

     total energy              =     -33.74350762 Ry
     Harris-Foulkes estimate   =     -33.74350757 Ry
     estimated scf accuracy    <       0.00000007 Ry

     iteration #  4     ecut=    60.00 Ry     beta=0.70
     Davidson diagonalization with overlap
     ethr =  8.40E-10,  avg # of iterations =  2.0

     total cpu time spent up to now is      118.8 secs

     End of self-consistent calculation

          k = 0.0000 0.0000 0.0000 ( 62669 PWs)   bands (ev):

   -25.3098 -12.7593  -9.1921  -7.0310

     highest occupied level (ev):    -7.0310

!    total energy              =     -33.74350758 Ry
     Harris-Foulkes estimate   =     -33.74350764 Ry
     estimated scf accuracy    <          9.3E-10 Ry

     convergence has been achieved in   4 iterations

     Forces acting on atoms (Ry/au):

     atom    1 type  2   force =    -0.00016594    0.00327507    0.02045453
     atom    2 type  1   force =     0.00001791    0.00456712   -0.00879166
     atom    3 type  1   force =     0.00014803   -0.00784219   -0.01166287

     Total force =     0.026923     Total SCF correction =     0.000367

     Entering Dynamics:    iteration =    12
                           time      =   0.0058 pico-seconds


     Andersen thermostat:    3 collisions

ATOMIC_POSITIONS (angstrom)
O       -0.000323608  -0.000195984   0.120738760
H       -0.004126036   0.776447727  -0.487612194
H        0.009252493  -0.773343026  -0.489876030


     kinetic energy (Ekin) =     0.00015188 Ry
     temperature           =     7.99330043 K 
     Ekin + Etot (const)   =   -33.74335570 Ry
     Message from routine dynamics:
     Total linear momentum <> 0

     Linear momentum :   -0.0306928970   -0.0139916622   -0.0199492383

     Writing output data file pwscf.save

     second order wave-functions extrapolation
     Check: negative starting charge=   -0.071153
     second order charge density extrapolation
     Check: negative starting charge=   -0.071156

     negative rho (up, down):  1.243E-04 0.000E+00

     total cpu time spent up to now is      123.3 secs

     per-process dynamical memory:    47.4 Mb

     Self-consistent Calculation

     iteration #  1     ecut=    60.00 Ry     beta=0.70
     Davidson diagonalization with overlap
     ethr =  1.00E-06,  avg # of iterations =  2.0

     Threshold (ethr) on eigenvalues was too large:
     Diagonalizing with lowered threshold

     Davidson diagonalization with overlap
     ethr =  4.14E-08,  avg # of iterations =  2.0

     negative rho (up, down):  1.524E-05 0.000E+00

     total cpu time spent up to now is      124.8 secs

     total energy              =     -33.74357753 Ry
     Harris-Foulkes estimate   =     -33.74358369 Ry
     estimated scf accuracy    <       0.00000446 Ry

     iteration #  2     ecut=    60.00 Ry     beta=0.70
     Davidson diagonalization with overlap
     ethr =  5.58E-08,  avg # of iterations =  3.0

     negative rho (up, down):  5.876E-06 0.000E+00

     total cpu time spent up to now is      126.0 secs

     total energy              =     -33.74357812 Ry
     Harris-Foulkes estimate   =     -33.74358046 Ry
     estimated scf accuracy    <       0.00000401 Ry

     iteration #  3     ecut=    60.00 Ry     beta=0.70
     Davidson diagonalization with overlap
     ethr =  5.01E-08,  avg # of iterations =  2.0

     total cpu time spent up to now is      127.1 secs

     total energy              =     -33.74357939 Ry
     Harris-Foulkes estimate   =     -33.74357899 Ry
     estimated scf accuracy    <       0.00000005 Ry

     iteration #  4     ecut=    60.00 Ry     beta=0.70
     Davidson diagonalization with overlap
     ethr =  5.72E-10,  avg # of iterations =  2.0

     total cpu time spent up to now is      128.0 secs

     End of self-consistent calculation

          k = 0.0000 0.0000 0.0000 ( 62669 PWs)   bands (ev):

   -25.2988 -12.7381  -9.2000  -7.0294

     highest occupied level (ev):    -7.0294

!    total energy              =     -33.74357942 Ry
     Harris-Foulkes estimate   =     -33.74357941 Ry
     estimated scf accuracy    <          1.3E-09 Ry

     convergence has been achieved in   4 iterations

     Forces acting on atoms (Ry/au):

     atom    1 type  2   force =    -0.00016986    0.00154839    0.01705674
     atom    2 type  1   force =     0.00003817    0.00416496   -0.00785267
     atom    3 type  1   force =     0.00013168   -0.00571335   -0.00920407

     Total force =     0.022130     Total SCF correction =     0.000443

     Entering Dynamics:    iteration =    13
                           time      =   0.0063 pico-seconds


     Andersen thermostat:    3 collisions

ATOMIC_POSITIONS (angstrom)
O       -0.000370306  -0.000188923   0.120806802
H       -0.004894387   0.777917344  -0.488914247
H        0.010760629  -0.774924506  -0.489651861


     kinetic energy (Ekin) =     0.00016932 Ry
     temperature           =     8.91095657 K 
     Ekin + Etot (const)   =   -33.74341010 Ry
     Message from routine dynamics:
     Total linear momentum <> 0

     Linear momentum :   -0.0086992849    0.0372279384    0.0381566743

     Writing output data file pwscf.save

     second order wave-functions extrapolation
     Check: negative starting charge=   -0.071156
     second order charge density extrapolation
     Check: negative starting charge=   -0.071154

     negative rho (up, down):  2.339E-05 0.000E+00

     total cpu time spent up to now is      132.4 secs

     per-process dynamical memory:    47.4 Mb

     Self-consistent Calculation

     iteration #  1     ecut=    60.00 Ry     beta=0.70
     Davidson diagonalization with overlap
     ethr =  1.00E-06,  avg # of iterations =  2.0

     Threshold (ethr) on eigenvalues was too large:
     Diagonalizing with lowered threshold

     Davidson diagonalization with overlap
     ethr =  1.38E-08,  avg # of iterations =  3.0

     negative rho (up, down):  1.624E-06 0.000E+00

     total cpu time spent up to now is      134.1 secs

     total energy              =     -33.74361565 Ry
     Harris-Foulkes estimate   =     -33.74361648 Ry
     estimated scf accuracy    <       0.00000145 Ry

     iteration #  2     ecut=    60.00 Ry     beta=0.70
     Davidson diagonalization with overlap
     ethr =  1.81E-08,  avg # of iterations =  2.0

     negative rho (up, down):  3.934E-07 0.000E+00

     total cpu time spent up to now is      135.2 secs

     total energy              =     -33.74361564 Ry
     Harris-Foulkes estimate   =     -33.74361622 Ry
     estimated scf accuracy    <       0.00000076 Ry

     iteration #  3     ecut=    60.00 Ry     beta=0.70
     Davidson diagonalization with overlap
     ethr =  9.53E-09,  avg # of iterations =  2.0

     total cpu time spent up to now is      136.3 secs

     total energy              =     -33.74361578 Ry
     Harris-Foulkes estimate   =     -33.74361585 Ry
     estimated scf accuracy    <       0.00000006 Ry

     iteration #  4     ecut=    60.00 Ry     beta=0.70
     Davidson diagonalization with overlap
     ethr =  7.28E-10,  avg # of iterations =  2.0

     total cpu time spent up to now is      137.2 secs

     End of self-consistent calculation

          k = 0.0000 0.0000 0.0000 ( 62669 PWs)   bands (ev):

   -25.2810 -12.7264  -9.1947  -7.0262

     highest occupied level (ev):    -7.0262

!    total energy              =     -33.74361576 Ry
     Harris-Foulkes estimate   =     -33.74361580 Ry
     estimated scf accuracy    <          7.6E-10 Ry

     convergence has been achieved in   4 iterations

     Forces acting on atoms (Ry/au):

     atom    1 type  2   force =    -0.00025796    0.00271036    0.01469764
     atom    2 type  1   force =     0.00009694    0.00136842   -0.00626866
     atom    3 type  1   force =     0.00016102   -0.00407878   -0.00842898

     Total force =     0.018770     Total SCF correction =     0.000123

     Entering Dynamics:    iteration =    14
                           time      =   0.0068 pico-seconds


     Andersen thermostat:    3 collisions

ATOMIC_POSITIONS (angstrom)
O       -0.000399797  -0.000155832   0.120859350
H       -0.004637347   0.778494532  -0.489797672
H        0.010970768  -0.776025905  -0.489600880


     kinetic energy (Ekin) =     0.00003784 Ry
     temperature           =     1.99135998 K 
     Ekin + Etot (const)   =   -33.74357793 Ry
     Message from routine dynamics:
     Total linear momentum <> 0

     Linear momentum :   -0.0164445641    0.0110117945   -0.0063616847

     Writing output data file pwscf.save

     second order wave-functions extrapolation
     Check: negative starting charge=   -0.071154
     second order charge density extrapolation
     Check: negative starting charge=   -0.071153

     negative rho (up, down):  2.061E-06 0.000E+00

     total cpu time spent up to now is      141.7 secs

     per-process dynamical memory:    47.4 Mb

     Self-consistent Calculation

     iteration #  1     ecut=    60.00 Ry     beta=0.70
     Davidson diagonalization with overlap
     ethr =  1.00E-06,  avg # of iterations =  2.0

     Threshold (ethr) on eigenvalues was too large:
     Diagonalizing with lowered threshold

     Davidson diagonalization with overlap
     ethr =  4.61E-10,  avg # of iterations =  3.0

     negative rho (up, down):  8.973E-08 0.000E+00

     total cpu time spent up to now is      143.3 secs

     total energy              =     -33.74363279 Ry
     Harris-Foulkes estimate   =     -33.74363306 Ry
     estimated scf accuracy    <       0.00000007 Ry

     iteration #  2     ecut=    60.00 Ry     beta=0.70
     Davidson diagonalization with overlap
     ethr =  8.13E-10,  avg # of iterations =  2.0

     negative rho (up, down):  1.267E-08 0.000E+00

     total cpu time spent up to now is      144.4 secs

     total energy              =     -33.74363267 Ry
     Harris-Foulkes estimate   =     -33.74363281 Ry
     estimated scf accuracy    <       0.00000002 Ry

     iteration #  3     ecut=    60.00 Ry     beta=0.70
     Davidson diagonalization with overlap
     ethr =  2.63E-10,  avg # of iterations =  2.0

     total cpu time spent up to now is      145.3 secs

     End of self-consistent calculation

          k = 0.0000 0.0000 0.0000 ( 62669 PWs)   bands (ev):

   -25.2703 -12.7183  -9.1921  -7.0240

     highest occupied level (ev):    -7.0240

!    total energy              =     -33.74363262 Ry
     Harris-Foulkes estimate   =     -33.74363268 Ry
     estimated scf accuracy    <          4.3E-09 Ry

     convergence has been achieved in   3 iterations

     Forces acting on atoms (Ry/au):

     atom    1 type  2   force =    -0.00019791    0.00266726    0.01325238
     atom    2 type  1   force =     0.00006668    0.00012016   -0.00550146
     atom    3 type  1   force =     0.00013122   -0.00278742   -0.00775092

     Total force =     0.016761     Total SCF correction =     0.000296

     Entering Dynamics:    iteration =    15
                           time      =   0.0073 pico-seconds


     Andersen thermostat:    3 collisions

ATOMIC_POSITIONS (angstrom)
O       -0.000264489  -0.000277054   0.120768871
H       -0.005262980   0.778933678  -0.489342074
H        0.009452904  -0.774544705  -0.488623144


     kinetic energy (Ekin) =     0.00014251 Ry
     temperature           =     7.49996255 K 
     Ekin + Etot (const)   =   -33.74349012 Ry
     Message from routine dynamics:
     Total linear momentum <> 0

     Linear momentum :    0.0279705447    0.0157675835   -0.0007276610

     Writing output data file pwscf.save

     second order wave-functions extrapolation
     Check: negative starting charge=   -0.071153
     second order charge density extrapolation
     Check: negative starting charge=   -0.071153

     negative rho (up, down):  6.788E-05 0.000E+00

     total cpu time spent up to now is      149.7 secs

     per-process dynamical memory:    47.4 Mb

     Self-consistent Calculation

     iteration #  1     ecut=    60.00 Ry     beta=0.70
     Davidson diagonalization with overlap
     ethr =  1.00E-06,  avg # of iterations =  2.0

     Threshold (ethr) on eigenvalues was too large:
     Diagonalizing with lowered threshold

     Davidson diagonalization with overlap
     ethr =  8.24E-09,  avg # of iterations =  3.0

     negative rho (up, down):  6.536E-06 0.000E+00

     total cpu time spent up to now is      151.4 secs

     total energy              =     -33.74360024 Ry
     Harris-Foulkes estimate   =     -33.74360188 Ry
     estimated scf accuracy    <       0.00000072 Ry

     iteration #  2     ecut=    60.00 Ry     beta=0.70
     Davidson diagonalization with overlap
     ethr =  8.96E-09,  avg # of iterations =  2.0

     negative rho (up, down):  3.354E-07 0.000E+00

     total cpu time spent up to now is      152.6 secs

     total energy              =     -33.74360026 Ry
     Harris-Foulkes estimate   =     -33.74360035 Ry
     estimated scf accuracy    <       0.00000007 Ry

     iteration #  3     ecut=    60.00 Ry     beta=0.70
     Davidson diagonalization with overlap
     ethr =  9.25E-10,  avg # of iterations =  2.0

     total cpu time spent up to now is      153.7 secs

     total energy              =     -33.74360024 Ry
     Harris-Foulkes estimate   =     -33.74360029 Ry
     estimated scf accuracy    <       0.00000003 Ry

     iteration #  4     ecut=    60.00 Ry     beta=0.70
     Davidson diagonalization with overlap
     ethr =  3.42E-10,  avg # of iterations =  2.0

     total cpu time spent up to now is      154.6 secs

     End of self-consistent calculation

          k = 0.0000 0.0000 0.0000 ( 62669 PWs)   bands (ev):

   -25.2796 -12.7284  -9.1917  -7.0256

     highest occupied level (ev):    -7.0256

!    total energy              =     -33.74360029 Ry
     Harris-Foulkes estimate   =     -33.74360025 Ry
     estimated scf accuracy    <          1.9E-09 Ry

     convergence has been achieved in   4 iterations

     Forces acting on atoms (Ry/au):

     atom    1 type  2   force =    -0.00038915    0.00554544    0.01497803
     atom    2 type  1   force =     0.00015820   -0.00020721   -0.00533049
     atom    3 type  1   force =     0.00023094   -0.00533824   -0.00964754

     Total force =     0.020133     Total SCF correction =     0.000380

     Entering Dynamics:    iteration =    16
                           time      =   0.0077 pico-seconds


     Andersen thermostat:    3 collisions

ATOMIC_POSITIONS (angstrom)
O       -0.000217152  -0.000298307   0.120832431
H       -0.005777813   0.780667588  -0.489090313
H        0.009217848  -0.775941933  -0.489881802


     kinetic energy (Ekin) =     0.00012662 Ry
     temperature           =     6.66368506 K 
     Ekin + Etot (const)   =   -33.74347367 Ry
     Message from routine dynamics:
     Total linear momentum <> 0

     Linear momentum :   -0.0062109132   -0.0374888041    0.0267700994

     Writing output data file pwscf.save

     second order wave-functions extrapolation
     Check: negative starting charge=   -0.071153
     second order charge density extrapolation
     Check: negative starting charge=   -0.071151

     negative rho (up, down):  3.505E-05 0.000E+00

     total cpu time spent up to now is      159.0 secs

     per-process dynamical memory:    47.4 Mb

     Self-consistent Calculation

     iteration #  1     ecut=    60.00 Ry     beta=0.70
     Davidson diagonalization with overlap
     ethr =  1.00E-06,  avg # of iterations =  2.0

     Threshold (ethr) on eigenvalues was too large:
     Diagonalizing with lowered threshold

     Davidson diagonalization with overlap
     ethr =  1.05E-08,  avg # of iterations =  3.0

     negative rho (up, down):  2.724E-06 0.000E+00

     total cpu time spent up to now is      160.6 secs

     total energy              =     -33.74362509 Ry
     Harris-Foulkes estimate   =     -33.74362592 Ry
     estimated scf accuracy    <       0.00000126 Ry

     iteration #  2     ecut=    60.00 Ry     beta=0.70
     Davidson diagonalization with overlap
     ethr =  1.58E-08,  avg # of iterations =  2.0

     negative rho (up, down):  7.699E-07 0.000E+00

     total cpu time spent up to now is      161.7 secs

     total energy              =     -33.74362509 Ry
     Harris-Foulkes estimate   =     -33.74362569 Ry
     estimated scf accuracy    <       0.00000080 Ry

     iteration #  3     ecut=    60.00 Ry     beta=0.70
     Davidson diagonalization with overlap
     ethr =  9.98E-09,  avg # of iterations =  2.0

     total cpu time spent up to now is      162.9 secs

     total energy              =     -33.74362523 Ry
     Harris-Foulkes estimate   =     -33.74362530 Ry
     estimated scf accuracy    <       0.00000003 Ry

     iteration #  4     ecut=    60.00 Ry     beta=0.70
     Davidson diagonalization with overlap
     ethr =  4.31E-10,  avg # of iterations =  2.0

     total cpu time spent up to now is      163.8 secs

     End of self-consistent calculation

          k = 0.0000 0.0000 0.0000 ( 62669 PWs)   bands (ev):

   -25.2621 -12.7173  -9.1865  -7.0226

     highest occupied level (ev):    -7.0226

!    total energy              =     -33.74362525 Ry
     Harris-Foulkes estimate   =     -33.74362524 Ry
     estimated scf accuracy    <          6.5E-10 Ry

     convergence has been achieved in   4 iterations

     Forces acting on atoms (Ry/au):

     atom    1 type  2   force =    -0.00026990    0.00457216    0.01224389
     atom    2 type  1   force =     0.00012401   -0.00194585   -0.00430875
     atom    3 type  1   force =     0.00014589   -0.00262631   -0.00793514

     Total force =     0.016222     Total SCF correction =     0.000152

     Entering Dynamics:    iteration =    17
                           time      =   0.0082 pico-seconds


     Andersen thermostat:    3 collisions

ATOMIC_POSITIONS (angstrom)
O       -0.000099015  -0.000383733   0.120798139
H       -0.004875959   0.780221047  -0.488875838
H        0.006444511  -0.774142112  -0.489553046


     kinetic energy (Ekin) =     0.00022021 Ry
     temperature           =    11.58942841 K 
     Ekin + Etot (const)   =   -33.74340505 Ry
     Message from routine dynamics:
     Total linear momentum <> 0

     Linear momentum :    0.0185509258    0.0094704493    0.0080286138

     Writing output data file pwscf.save

     second order wave-functions extrapolation
     Check: negative starting charge=   -0.071151
     second order charge density extrapolation
     Check: negative starting charge=   -0.071152

     negative rho (up, down):  2.960E-05 0.000E+00

     total cpu time spent up to now is      168.2 secs

     per-process dynamical memory:    47.4 Mb

     Self-consistent Calculation

     iteration #  1     ecut=    60.00 Ry     beta=0.70
     Davidson diagonalization with overlap
     ethr =  1.00E-06,  avg # of iterations =  2.0

     Threshold (ethr) on eigenvalues was too large:
     Diagonalizing with lowered threshold

     Davidson diagonalization with overlap
     ethr =  5.40E-09,  avg # of iterations =  2.0

     negative rho (up, down):  2.197E-06 0.000E+00

     total cpu time spent up to now is      169.8 secs

     total energy              =     -33.74360490 Ry
     Harris-Foulkes estimate   =     -33.74360496 Ry
     estimated scf accuracy    <       0.00000048 Ry

     iteration #  2     ecut=    60.00 Ry     beta=0.70
     Davidson diagonalization with overlap
     ethr =  5.99E-09,  avg # of iterations =  2.0

     negative rho (up, down):  3.541E-07 0.000E+00

     total cpu time spent up to now is      170.9 secs

     total energy              =     -33.74360507 Ry
     Harris-Foulkes estimate   =     -33.74360502 Ry
     estimated scf accuracy    <       0.00000016 Ry

     iteration #  3     ecut=    60.00 Ry     beta=0.70
     Davidson diagonalization with overlap
     ethr =  2.00E-09,  avg # of iterations =  2.0

     total cpu time spent up to now is      172.1 secs

     total energy              =     -33.74360538 Ry
     Harris-Foulkes estimate   =     -33.74360512 Ry
     estimated scf accuracy    <       0.00000004 Ry

     iteration #  4     ecut=    60.00 Ry     beta=0.70
     Davidson diagonalization with overlap
     ethr =  4.93E-10,  avg # of iterations =  2.0

     total cpu time spent up to now is      173.0 secs

     End of self-consistent calculation

          k = 0.0000 0.0000 0.0000 ( 62669 PWs)   bands (ev):

   -25.2745 -12.7244  -9.1909  -7.0249

     highest occupied level (ev):    -7.0249

!    total energy              =     -33.74360543 Ry
     Harris-Foulkes estimate   =     -33.74360538 Ry
     estimated scf accuracy    <          2.7E-10 Ry

     convergence has been achieved in   4 iterations

     Forces acting on atoms (Ry/au):

     atom    1 type  2   force =    -0.00010851    0.00613832    0.01400719
     atom    2 type  1   force =     0.00003496   -0.00117536   -0.00452518
     atom    3 type  1   force =     0.00007355   -0.00496296   -0.00948201

     Total force =     0.019243     Total SCF correction =     0.000046

     Entering Dynamics:    iteration =    18
                           time      =   0.0087 pico-seconds


     Andersen thermostat:    3 collisions

ATOMIC_POSITIONS (angstrom)
O       -0.000101690  -0.000136570   0.120893329
H       -0.004130310   0.777364686  -0.489904516
H        0.005741244  -0.775201203  -0.490032321


     kinetic energy (Ekin) =     0.00021314 Ry
     temperature           =    11.21728476 K 
     Ekin + Etot (const)   =   -33.74339229 Ry
     Message from routine dynamics:
     Total linear momentum <> 0

     Linear momentum :   -0.0138755208   -0.0205310505    0.0337389611

     Writing output data file pwscf.save

     second order wave-functions extrapolation
     Check: negative starting charge=   -0.071152
     second order charge density extrapolation
     Check: negative starting charge=   -0.071156

     negative rho (up, down):  1.600E-04 0.000E+00

     total cpu time spent up to now is      177.6 secs

     per-process dynamical memory:    47.4 Mb

     Self-consistent Calculation

     iteration #  1     ecut=    60.00 Ry     beta=0.70
     Davidson diagonalization with overlap
     ethr =  1.00E-06,  avg # of iterations =  3.0

     Threshold (ethr) on eigenvalues was too large:
     Diagonalizing with lowered threshold

     Davidson diagonalization with overlap
     ethr =  2.88E-08,  avg # of iterations =  1.0

     negative rho (up, down):  2.123E-05 0.000E+00

     total cpu time spent up to now is      179.2 secs

     total energy              =     -33.74363180 Ry
     Harris-Foulkes estimate   =     -33.74363582 Ry
     estimated scf accuracy    <       0.00000234 Ry

     iteration #  2     ecut=    60.00 Ry     beta=0.70
     Davidson diagonalization with overlap
     ethr =  2.93E-08,  avg # of iterations =  2.0

     negative rho (up, down):  5.755E-06 0.000E+00

     total cpu time spent up to now is      180.3 secs

     total energy              =     -33.74363173 Ry
     Harris-Foulkes estimate   =     -33.74363266 Ry
     estimated scf accuracy    <       0.00000094 Ry

     iteration #  3     ecut=    60.00 Ry     beta=0.70
     Davidson diagonalization with overlap
     ethr =  1.17E-08,  avg # of iterations =  2.0

     negative rho (up, down):  6.169E-08 0.000E+00

     total cpu time spent up to now is      181.5 secs

     total energy              =     -33.74363244 Ry
     Harris-Foulkes estimate   =     -33.74363201 Ry
     estimated scf accuracy    <       0.00000011 Ry

     iteration #  4     ecut=    60.00 Ry     beta=0.70
     Davidson diagonalization with overlap
     ethr =  1.39E-09,  avg # of iterations =  2.0

     total cpu time spent up to now is      182.3 secs

     End of self-consistent calculation

          k = 0.0000 0.0000 0.0000 ( 62669 PWs)   bands (ev):

   -25.2789 -12.7195  -9.1985  -7.0260

     highest occupied level (ev):    -7.0260

!    total energy              =     -33.74363249 Ry
     Harris-Foulkes estimate   =     -33.74363248 Ry
     estimated scf accuracy    <          1.9E-09 Ry

     convergence has been achieved in   4 iterations

     Forces acting on atoms (Ry/au):

     atom    1 type  2   force =    -0.00012160    0.00177244    0.01354694
     atom    2 type  1   force =     0.00004155    0.00159561   -0.00585763
     atom    3 type  1   force =     0.00008005   -0.00336806   -0.00768931

     Total force =     0.017147     Total SCF correction =     0.000896

     Entering Dynamics:    iteration =    19
                           time      =   0.0092 pico-seconds


     Andersen thermostat:    3 collisions

ATOMIC_POSITIONS (angstrom)
O       -0.000056348   0.000039958   0.120819116
H       -0.005281741   0.777375141  -0.489519627
H        0.006174386  -0.778008136  -0.489241552


     kinetic energy (Ekin) =     0.00019492 Ry
     temperature           =    10.25852289 K 
     Ekin + Etot (const)   =   -33.74343757 Ry
     Message from routine dynamics:
     Total linear momentum <> 0

     Linear momentum :   -0.0349937045   -0.0113850531    0.0017277109

     Writing output data file pwscf.save

     second order wave-functions extrapolation
     Check: negative starting charge=   -0.071156
     second order charge density extrapolation
     Check: negative starting charge=   -0.071152

     negative rho (up, down):  9.155E-05 0.000E+00

     total cpu time spent up to now is      186.7 secs

     per-process dynamical memory:    47.4 Mb

     Self-consistent Calculation

     iteration #  1     ecut=    60.00 Ry     beta=0.70
     Davidson diagonalization with overlap
     ethr =  1.00E-06,  avg # of iterations =  2.0

     Threshold (ethr) on eigenvalues was too large:
     Diagonalizing with lowered threshold

     Davidson diagonalization with overlap
     ethr =  5.56E-09,  avg # of iterations =  3.0

     negative rho (up, down):  9.735E-06 0.000E+00

     total cpu time spent up to now is      188.4 secs

     total energy              =     -33.74363127 Ry
     Harris-Foulkes estimate   =     -33.74363343 Ry
     estimated scf accuracy    <       0.00000047 Ry

     iteration #  2     ecut=    60.00 Ry     beta=0.70
     Davidson diagonalization with overlap
     ethr =  5.91E-09,  avg # of iterations =  2.0

     negative rho (up, down):  1.287E-07 0.000E+00

     total cpu time spent up to now is      189.5 secs

     total energy              =     -33.74363093 Ry
     Harris-Foulkes estimate   =     -33.74363134 Ry
     estimated scf accuracy    <       0.00000004 Ry

     iteration #  3     ecut=    60.00 Ry     beta=0.70
     Davidson diagonalization with overlap
     ethr =  4.63E-10,  avg # of iterations =  2.0

     total cpu time spent up to now is      190.4 secs

     End of self-consistent calculation

          k = 0.0000 0.0000 0.0000 ( 62669 PWs)   bands (ev):

   -25.2688 -12.7209  -9.1893  -7.0241

     highest occupied level (ev):    -7.0241

!    total energy              =     -33.74363081 Ry
     Harris-Foulkes estimate   =     -33.74363094 Ry
     estimated scf accuracy    <          4.2E-09 Ry

     convergence has been achieved in   3 iterations

     Forces acting on atoms (Ry/au):

     atom    1 type  2   force =    -0.00038334   -0.00080194    0.01355863
     atom    2 type  1   force =     0.00018188    0.00154182   -0.00697333
     atom    3 type  1   force =     0.00020146   -0.00073988   -0.00658530

     Total force =     0.016722     Total SCF correction =     0.000954

     Entering Dynamics:    iteration =    20
                           time      =   0.0097 pico-seconds


     Andersen thermostat:    3 collisions

ATOMIC_POSITIONS (angstrom)
O       -0.000247507   0.000134285   0.120962999
H       -0.005972988   0.776564159  -0.489942390
H        0.009893890  -0.778691450  -0.491098124


     kinetic energy (Ekin) =     0.00033075 Ry
     temperature           =    17.40723070 K 
     Ekin + Etot (const)   =   -33.74330006 Ry
     Message from routine dynamics:
     Total linear momentum <> 0

     Linear momentum :   -0.0300811898   -0.0165387386   -0.0061804444

     Writing output data file pwscf.save

     second order wave-functions extrapolation
     Check: negative starting charge=   -0.071152
     second order charge density extrapolation
     Check: negative starting charge=   -0.071154

     negative rho (up, down):  1.604E-04 0.000E+00

     total cpu time spent up to now is      194.9 secs

     per-process dynamical memory:    47.4 Mb

     Self-consistent Calculation

     iteration #  1     ecut=    60.00 Ry     beta=0.70
     Davidson diagonalization with overlap
     ethr =  1.00E-06,  avg # of iterations =  2.0

     Threshold (ethr) on eigenvalues was too large:
     Diagonalizing with lowered threshold

     Davidson diagonalization with overlap
     ethr =  2.53E-08,  avg # of iterations =  3.0

     negative rho (up, down):  2.142E-05 0.000E+00

     total cpu time spent up to now is      196.5 secs

     total energy              =     -33.74364959 Ry
     Harris-Foulkes estimate   =     -33.74365283 Ry
     estimated scf accuracy    <       0.00000251 Ry

     iteration #  2     ecut=    60.00 Ry     beta=0.70
     Davidson diagonalization with overlap
     ethr =  3.13E-08,  avg # of iterations =  2.0

     negative rho (up, down):  7.155E-06 0.000E+00

     total cpu time spent up to now is      197.6 secs

     total energy              =     -33.74364957 Ry
     Harris-Foulkes estimate   =     -33.74365067 Ry
     estimated scf accuracy    <       0.00000150 Ry

     iteration #  3     ecut=    60.00 Ry     beta=0.70
     Davidson diagonalization with overlap
     ethr =  1.88E-08,  avg # of iterations =  2.0

     total cpu time spent up to now is      198.8 secs

     total energy              =     -33.74365010 Ry
     Harris-Foulkes estimate   =     -33.74364998 Ry
     estimated scf accuracy    <       0.00000010 Ry

     iteration #  4     ecut=    60.00 Ry     beta=0.70
     Davidson diagonalization with overlap
     ethr =  1.27E-09,  avg # of iterations =  2.0

     total cpu time spent up to now is      199.7 secs

     End of self-consistent calculation

          k = 0.0000 0.0000 0.0000 ( 62669 PWs)   bands (ev):

   -25.2626 -12.7082  -9.1940  -7.0230

     highest occupied level (ev):    -7.0230

!    total energy              =     -33.74365017 Ry
     Harris-Foulkes estimate   =     -33.74365013 Ry
     estimated scf accuracy    <          1.9E-09 Ry

     convergence has been achieved in   4 iterations

     Forces acting on atoms (Ry/au):

     atom    1 type  2   force =    -0.00000911   -0.00327923    0.01126516
     atom    2 type  1   force =     0.00000460    0.00213203   -0.00693657
     atom    3 type  1   force =     0.00000452    0.00114720   -0.00432859

     Total force =     0.014504     Total SCF correction =     0.000180

     Entering Dynamics:    iteration =    21
                           time      =   0.0102 pico-seconds


     Andersen thermostat:    3 collisions

ATOMIC_POSITIONS (angstrom)
O       -0.000397895   0.000265331   0.121269294
H       -0.005936782   0.775843452  -0.489919019
H        0.012240067  -0.780046721  -0.495973693


     kinetic energy (Ekin) =     0.00053981 Ry
     temperature           =    28.40955521 K 
     Ekin + Etot (const)   =   -33.74311036 Ry
     Message from routine dynamics:
     Total linear momentum <> 0

     Linear momentum :    0.0102318477   -0.0092599341    0.0105899456

     Writing output data file pwscf.save

     second order wave-functions extrapolation
     Check: negative starting charge=   -0.071154
     second order charge density extrapolation
     Check: negative starting charge=   -0.071156

     negative rho (up, down):  9.041E-05 0.000E+00

     total cpu time spent up to now is      204.1 secs

     per-process dynamical memory:    47.4 Mb

     Self-consistent Calculation

     iteration #  1     ecut=    60.00 Ry     beta=0.70
     Davidson diagonalization with overlap
     ethr =  1.00E-06,  avg # of iterations =  3.0

     Threshold (ethr) on eigenvalues was too large:
     Diagonalizing with lowered threshold

     Davidson diagonalization with overlap
     ethr =  5.06E-08,  avg # of iterations =  1.0

     negative rho (up, down):  9.873E-06 0.000E+00

     total cpu time spent up to now is      205.6 secs

     total energy              =     -33.74364843 Ry
     Harris-Foulkes estimate   =     -33.74365177 Ry
     estimated scf accuracy    <       0.00000396 Ry

     iteration #  2     ecut=    60.00 Ry     beta=0.70
     Davidson diagonalization with overlap
     ethr =  4.95E-08,  avg # of iterations =  2.0

     negative rho (up, down):  3.153E-06 0.000E+00

     total cpu time spent up to now is      206.8 secs

     total energy              =     -33.74364881 Ry
     Harris-Foulkes estimate   =     -33.74365035 Ry
     estimated scf accuracy    <       0.00000252 Ry

     iteration #  3     ecut=    60.00 Ry     beta=0.70
     Davidson diagonalization with overlap
     ethr =  3.16E-08,  avg # of iterations =  2.0

     negative rho (up, down):  1.050E-08 0.000E+00

     total cpu time spent up to now is      207.9 secs

     total energy              =     -33.74364965 Ry
     Harris-Foulkes estimate   =     -33.74364945 Ry
     estimated scf accuracy    <       0.00000011 Ry

     iteration #  4     ecut=    60.00 Ry     beta=0.70
     Davidson diagonalization with overlap
     ethr =  1.41E-09,  avg # of iterations =  2.0

     total cpu time spent up to now is      208.8 secs

     End of self-consistent calculation

          k = 0.0000 0.0000 0.0000 ( 62669 PWs)   bands (ev):

   -25.2460 -12.6801  -9.2026  -7.0205

     highest occupied level (ev):    -7.0205

!    total energy              =     -33.74364966 Ry
     Harris-Foulkes estimate   =     -33.74364968 Ry
     estimated scf accuracy    <          2.0E-09 Ry

     convergence has been achieved in   4 iterations

     Forces acting on atoms (Ry/au):

     atom    1 type  2   force =    -0.00017653   -0.00934942    0.00691456
     atom    2 type  1   force =     0.00011951    0.00330376   -0.00714814
     atom    3 type  1   force =     0.00005702    0.00604566    0.00023358

     Total force =     0.015293     Total SCF correction =     0.000425

     Entering Dynamics:    iteration =    22
                           time      =   0.0106 pico-seconds


     Andersen thermostat:    3 collisions

ATOMIC_POSITIONS (angstrom)
O       -0.000496191   0.000226194   0.121160117
H       -0.005485677   0.775859748  -0.490066701
H        0.013346133  -0.779443021  -0.494096481


     kinetic energy (Ekin) =     0.00010111 Ry
     temperature           =     5.32107736 K 
     Ekin + Etot (const)   =   -33.74354855 Ry
     Message from routine dynamics:
     Total linear momentum <> 0

     Linear momentum :    0.0184567548    0.0055542941    0.0222882744

     Writing output data file pwscf.save

     second order wave-functions extrapolation
     Check: negative starting charge=   -0.071156
     second order charge density extrapolation
     Check: negative starting charge=   -0.071156

     negative rho (up, down):  1.905E-05 0.000E+00

     total cpu time spent up to now is      213.2 secs

     per-process dynamical memory:    47.4 Mb

     Self-consistent Calculation

[...]
     mass O                =    16.00
     Time step             =    10.00 a.u.,  0.4838 femto-seconds

     Entering Dynamics:    iteration =     1
                           time      =   0.0005 pico-seconds


     Andersen thermostat:    3 collisions

ATOMIC_POSITIONS (angstrom)
O       -0.001519326  -0.000017560   0.122718487
H       -0.005333060   0.772189647  -0.502611801
H        0.029401591  -0.771911470  -0.506238436


     kinetic energy (Ekin) =     0.00011656 Ry
     temperature           =     6.13454493 K 
     Ekin + Etot (const)   =   -33.74359035 Ry

     Linear momentum :   -0.0000000000   -0.0000000000    0.0000000000

     Writing output data file pwscf.save
     Check: negative starting charge=   -0.071186
     NEW-OLD atomic charge density approx. for the potential
     Check: negative starting charge=   -0.071186

     negative rho (up, down):  1.109E-04 0.000E+00

     total cpu time spent up to now is      844.2 secs

     per-process dynamical memory:    47.4 Mb

     Self-consistent Calculation

     iteration #  1     ecut=    60.00 Ry     beta=0.70
     Davidson diagonalization with overlap
     ethr =  1.00E-06,  avg # of iterations =  2.0

     Threshold (ethr) on eigenvalues was too large:
     Diagonalizing with lowered threshold

     Davidson diagonalization with overlap
     ethr =  1.59E-08,  avg # of iterations =  3.0

     negative rho (up, down):  1.294E-05 0.000E+00

     total cpu time spent up to now is      845.8 secs

     total energy              =     -33.74370200 Ry
     Harris-Foulkes estimate   =     -33.74370426 Ry
     estimated scf accuracy    <       0.00000119 Ry

     iteration #  2     ecut=    60.00 Ry     beta=0.70
     Davidson diagonalization with overlap
     ethr =  1.48E-08,  avg # of iterations =  2.0

     negative rho (up, down):  8.910E-07 0.000E+00

     total cpu time spent up to now is      846.9 secs

     total energy              =     -33.74370205 Ry
     Harris-Foulkes estimate   =     -33.74370222 Ry
     estimated scf accuracy    <       0.00000013 Ry

     iteration #  3     ecut=    60.00 Ry     beta=0.70
     Davidson diagonalization with overlap
     ethr =  1.62E-09,  avg # of iterations =  2.0

     negative rho (up, down):  4.672E-08 0.000E+00

     total cpu time spent up to now is      848.2 secs

     total energy              =     -33.74370213 Ry
     Harris-Foulkes estimate   =     -33.74370210 Ry
     estimated scf accuracy    <       0.00000004 Ry

     iteration #  4     ecut=    60.00 Ry     beta=0.70
     Davidson diagonalization with overlap
     ethr =  4.85E-10,  avg # of iterations =  2.0

     total cpu time spent up to now is      849.0 secs

     End of self-consistent calculation

          k = 0.0000 0.0000 0.0000 ( 62669 PWs)   bands (ev):

   -25.2334 -12.5710  -9.2780  -7.0213

     highest occupied level (ev):    -7.0213

!    total energy              =     -33.74370205 Ry
     Harris-Foulkes estimate   =     -33.74370214 Ry
     estimated scf accuracy    <          2.1E-09 Ry

     convergence has been achieved in   4 iterations

     Forces acting on atoms (Ry/au):

     atom    1 type  2   force =    -0.00035126   -0.00336486   -0.00520238
     atom    2 type  1   force =     0.00023792   -0.00011129    0.00138421
     atom    3 type  1   force =     0.00011334    0.00347615    0.00381817

     Total force =     0.008196     Total SCF correction =     0.000459

     Entering Dynamics:    iteration =     2
                           time      =   0.0010 pico-seconds


     Andersen thermostat:    3 collisions

ATOMIC_POSITIONS (angstrom)
O       -0.001639356   0.000061080   0.122503033
H       -0.002960406   0.771449561  -0.501085048
H        0.028930407  -0.772417167  -0.504352045


     kinetic energy (Ekin) =     0.00023517 Ry
     temperature           =    12.37674361 K 
     Ekin + Etot (const)   =   -33.74346688 Ry
     Message from routine dynamics:
     Total linear momentum <> 0

     Linear momentum :   -0.0303706061   -0.0221013127    0.0142653995

     Writing output data file pwscf.save

     first order wave-functions extrapolation
     Check: negative starting charge=   -0.071186
     first order charge density extrapolation
     Check: negative starting charge=   -0.071184

     negative rho (up, down):  2.067E-04 0.000E+00

     total cpu time spent up to now is      853.1 secs

     per-process dynamical memory:    47.4 Mb

     Self-consistent Calculation

     iteration #  1     ecut=    60.00 Ry     beta=0.70
     Davidson diagonalization with overlap
     ethr =  1.00E-06,  avg # of iterations =  2.0

     Threshold (ethr) on eigenvalues was too large:
     Diagonalizing with lowered threshold

     Davidson diagonalization with overlap
     ethr =  5.37E-08,  avg # of iterations =  2.0

     negative rho (up, down):  2.978E-05 0.000E+00

     total cpu time spent up to now is      854.7 secs

     total energy              =     -33.74371701 Ry
     Harris-Foulkes estimate   =     -33.74372519 Ry
     estimated scf accuracy    <       0.00000564 Ry

     iteration #  2     ecut=    60.00 Ry     beta=0.70
     Davidson diagonalization with overlap
     ethr =  7.05E-08,  avg # of iterations =  3.0

     negative rho (up, down):  1.153E-05 0.000E+00

     total cpu time spent up to now is      855.9 secs

     total energy              =     -33.74371779 Ry
     Harris-Foulkes estimate   =     -33.74372008 Ry
     estimated scf accuracy    <       0.00000428 Ry

     iteration #  3     ecut=    60.00 Ry     beta=0.70
     Davidson diagonalization with overlap
     ethr =  5.35E-08,  avg # of iterations =  2.0

     negative rho (up, down):  1.373E-08 0.000E+00

     total cpu time spent up to now is      857.0 secs

     total energy              =     -33.74371822 Ry
     Harris-Foulkes estimate   =     -33.74371881 Ry
     estimated scf accuracy    <       0.00000012 Ry

     iteration #  4     ecut=    60.00 Ry     beta=0.70
     Davidson diagonalization with overlap
     ethr =  1.51E-09,  avg # of iterations =  2.0

     total cpu time spent up to now is      857.9 secs

     End of self-consistent calculation

          k = 0.0000 0.0000 0.0000 ( 62669 PWs)   bands (ev):

   -25.2441 -12.5898  -9.2716  -7.0227

     highest occupied level (ev):    -7.0227

!    total energy              =     -33.74371821 Ry
     Harris-Foulkes estimate   =     -33.74371826 Ry
     estimated scf accuracy    <          3.2E-09 Ry

     convergence has been achieved in   4 iterations

     Forces acting on atoms (Ry/au):

     atom    1 type  2   force =    -0.00016233   -0.00391511   -0.00205327
     atom    2 type  1   force =     0.00012293    0.00137098   -0.00061155
     atom    3 type  1   force =     0.00003940    0.00254413    0.00266483

     Total force =     0.005951     Total SCF correction =     0.000477

     Entering Dynamics:    iteration =     3
                           time      =   0.0015 pico-seconds


     Andersen thermostat:    3 collisions

ATOMIC_POSITIONS (angstrom)
O       -0.001637381  -0.000039118   0.122358653
H       -0.001769324   0.771625779  -0.502972613
H        0.027708031  -0.771006080  -0.500177271


     kinetic energy (Ekin) =     0.00042773 Ry
     temperature           =    22.51115121 K 
     Ekin + Etot (const)   =   -33.74329048 Ry
     Message from routine dynamics:
     Total linear momentum <> 0

     Linear momentum :   -0.0127011343   -0.0094968497   -0.0225746568

     Writing output data file pwscf.save

     second order wave-functions extrapolation
     Check: negative starting charge=   -0.071184
     second order charge density extrapolation
     Check: negative starting charge=   -0.071184

     negative rho (up, down):  1.006E-04 0.000E+00

     total cpu time spent up to now is      862.3 secs

     per-process dynamical memory:    47.4 Mb

     Self-consistent Calculation

     iteration #  1     ecut=    60.00 Ry     beta=0.70
     Davidson diagonalization with overlap
     ethr =  1.00E-06,  avg # of iterations =  3.0

     Threshold (ethr) on eigenvalues was too large:
     Diagonalizing with lowered threshold

     Davidson diagonalization with overlap
     ethr =  5.78E-08,  avg # of iterations =  2.0

     negative rho (up, down):  1.133E-05 0.000E+00

     total cpu time spent up to now is      863.8 secs

     total energy              =     -33.74372934 Ry
     Harris-Foulkes estimate   =     -33.74373280 Ry
     estimated scf accuracy    <       0.00000472 Ry

     iteration #  2     ecut=    60.00 Ry     beta=0.70
     Davidson diagonalization with overlap
     ethr =  5.90E-08,  avg # of iterations =  2.0

     negative rho (up, down):  1.631E-06 0.000E+00

     total cpu time spent up to now is      864.9 secs

     total energy              =     -33.74372992 Ry
     Harris-Foulkes estimate   =     -33.74373038 Ry
     estimated scf accuracy    <       0.00000102 Ry

     iteration #  3     ecut=    60.00 Ry     beta=0.70
     Davidson diagonalization with overlap
     ethr =  1.27E-08,  avg # of iterations =  2.0

     negative rho (up, down):  2.527E-08 0.000E+00

     total cpu time spent up to now is      866.1 secs

     total energy              =     -33.74373011 Ry
     Harris-Foulkes estimate   =     -33.74373030 Ry
     estimated scf accuracy    <       0.00000033 Ry

     iteration #  4     ecut=    60.00 Ry     beta=0.70
     Davidson diagonalization with overlap
     ethr =  4.10E-09,  avg # of iterations =  2.0

     total cpu time spent up to now is      867.0 secs

     End of self-consistent calculation

          k = 0.0000 0.0000 0.0000 ( 62669 PWs)   bands (ev):

   -25.2564 -12.6045  -9.2697  -7.0244

     highest occupied level (ev):    -7.0244

!    total energy              =     -33.74373017 Ry
     Harris-Foulkes estimate   =     -33.74373019 Ry
     estimated scf accuracy    <          9.5E-09 Ry

     convergence has been achieved in   4 iterations

     Forces acting on atoms (Ry/au):

     atom    1 type  2   force =    -0.00065698    0.00254657    0.00035263
     atom    2 type  1   force =     0.00028351   -0.00040087    0.00075145
     atom    3 type  1   force =     0.00037347   -0.00214571   -0.00110408

     Total force =     0.003716     Total SCF correction =     0.000636
     SCF correction compared to forces is large: reduce conv_thr to get better values

     Entering Dynamics:    iteration =     4
                           time      =   0.0019 pico-seconds


     Andersen thermostat:    3 collisions

ATOMIC_POSITIONS (angstrom)
O       -0.001609993   0.000093802   0.122448308
H       -0.002060797   0.770633505  -0.502889739
H        0.027565642  -0.772119485  -0.501680422


     kinetic energy (Ekin) =     0.00009663 Ry
     temperature           =     5.08548775 K 
     Ekin + Etot (const)   =   -33.74363355 Ry
     Message from routine dynamics:
     Total linear momentum <> 0

     Linear momentum :    0.0172676355    0.0315421006    0.0152159762

     Writing output data file pwscf.save

     second order wave-functions extrapolation
     Check: negative starting charge=   -0.071184
     second order charge density extrapolation
     Check: negative starting charge=   -0.071185

     negative rho (up, down):  4.076E-05 0.000E+00

     total cpu time spent up to now is      871.4 secs

     per-process dynamical memory:    47.4 Mb

     Self-consistent Calculation

     iteration #  1     ecut=    60.00 Ry     beta=0.70
     Davidson diagonalization with overlap
     ethr =  1.00E-06,  avg # of iterations =  2.0

     Threshold (ethr) on eigenvalues was too large:
     Diagonalizing with lowered threshold

     Davidson diagonalization with overlap
     ethr =  2.64E-09,  avg # of iterations =  3.0

     negative rho (up, down):  3.319E-06 0.000E+00

     total cpu time spent up to now is      873.1 secs

     total energy              =     -33.74372872 Ry
     Harris-Foulkes estimate   =     -33.74372921 Ry
     estimated scf accuracy    <       0.00000025 Ry

     iteration #  2     ecut=    60.00 Ry     beta=0.70
     Davidson diagonalization with overlap
     ethr =  3.12E-09,  avg # of iterations =  2.0

     negative rho (up, down):  4.405E-07 0.000E+00

     total cpu time spent up to now is      874.3 secs

     total energy              =     -33.74372896 Ry
     Harris-Foulkes estimate   =     -33.74372879 Ry
     estimated scf accuracy    <       0.00000006 Ry

     iteration #  3     ecut=    60.00 Ry     beta=0.70
     Davidson diagonalization with overlap
     ethr =  7.09E-10,  avg # of iterations =  2.0

     total cpu time spent up to now is      875.4 secs

     total energy              =     -33.74372905 Ry
     Harris-Foulkes estimate   =     -33.74372898 Ry
     estimated scf accuracy    <       0.00000001 Ry

     iteration #  4     ecut=    60.00 Ry     beta=0.70
     Davidson diagonalization with overlap
     ethr =  1.80E-10,  avg # of iterations =  2.0

     total cpu time spent up to now is      876.3 secs

     End of self-consistent calculation

          k = 0.0000 0.0000 0.0000 ( 62669 PWs)   bands (ev):

   -25.2523 -12.5969  -9.2728  -7.0242

     highest occupied level (ev):    -7.0242

!    total energy              =     -33.74372907 Ry
     Harris-Foulkes estimate   =     -33.74372906 Ry
     estimated scf accuracy    <          2.7E-10 Ry

     convergence has been achieved in   4 iterations

     Forces acting on atoms (Ry/au):

     atom    1 type  2   force =    -0.00045295   -0.00130955   -0.00109992
     atom    2 type  1   force =     0.00022539    0.00099383    0.00007859
     atom    3 type  1   force =     0.00022756    0.00031572    0.00102133

     Total force =     0.002317     Total SCF correction =     0.000266
     SCF correction compared to forces is large: reduce conv_thr to get better values

     Entering Dynamics:    iteration =     5
                           time      =   0.0024 pico-seconds


     Andersen thermostat:    3 collisions

ATOMIC_POSITIONS (angstrom)
O       -0.001742577   0.000223577   0.122503391
H       -0.000232052   0.769158166  -0.503783024
H        0.027837225  -0.772699980  -0.501659740


     kinetic energy (Ekin) =     0.00013449 Ry
     temperature           =     7.07793675 K 
     Ekin + Etot (const)   =   -33.74359458 Ry
     Message from routine dynamics:
     Total linear momentum <> 0

     Linear momentum :    0.0271312398    0.0175319921   -0.0021410892

     Writing output data file pwscf.save

     second order wave-functions extrapolation
     Check: negative starting charge=   -0.071185
     second order charge density extrapolation
     Check: negative starting charge=   -0.071186

     negative rho (up, down):  7.626E-05 0.000E+00

     total cpu time spent up to now is      880.7 secs

     per-process dynamical memory:    47.4 Mb

     Self-consistent Calculation

     iteration #  1     ecut=    60.00 Ry     beta=0.70
     Davidson diagonalization with overlap
     ethr =  1.00E-06,  avg # of iterations =  2.0

     Threshold (ethr) on eigenvalues was too large:
     Diagonalizing with lowered threshold

     Davidson diagonalization with overlap
     ethr =  3.09E-09,  avg # of iterations =  3.0

     negative rho (up, down):  7.873E-06 0.000E+00

     total cpu time spent up to now is      882.4 secs

     total energy              =     -33.74372252 Ry
     Harris-Foulkes estimate   =     -33.74372391 Ry
     estimated scf accuracy    <       0.00000027 Ry

     iteration #  2     ecut=    60.00 Ry     beta=0.70
     Davidson diagonalization with overlap
     ethr =  3.42E-09,  avg # of iterations =  2.0

     negative rho (up, down):  4.818E-08 0.000E+00

     total cpu time spent up to now is      883.4 secs

     total energy              =     -33.74372266 Ry
     Harris-Foulkes estimate   =     -33.74372257 Ry
     estimated scf accuracy    <       0.00000003 Ry

     iteration #  3     ecut=    60.00 Ry     beta=0.70
     Davidson diagonalization with overlap
     ethr =  3.14E-10,  avg # of iterations =  2.0

     total cpu time spent up to now is      884.3 secs

     End of self-consistent calculation

          k = 0.0000 0.0000 0.0000 ( 62669 PWs)   bands (ev):

   -25.2536 -12.5929  -9.2765  -7.0242

     highest occupied level (ev):    -7.0242

!    total energy              =     -33.74372272 Ry
     Harris-Foulkes estimate   =     -33.74372267 Ry
     estimated scf accuracy    <          4.4E-09 Ry

     convergence has been achieved in   3 iterations

     Forces acting on atoms (Ry/au):

     atom    1 type  2   force =    -0.00003928   -0.00268035   -0.00131321
     atom    2 type  1   force =     0.00002908    0.00194807   -0.00042021
     atom    3 type  1   force =     0.00001020    0.00073228    0.00173343

     Total force =     0.004053     Total SCF correction =     0.000593
     SCF correction compared to forces is large: reduce conv_thr to get better values

     Entering Dynamics:    iteration =     6
                           time      =   0.0029 pico-seconds


     Andersen thermostat:    3 collisions

ATOMIC_POSITIONS (angstrom)
O       -0.001753008   0.000261022   0.122559730
H        0.001619216   0.767083301  -0.504107122
H        0.026151201  -0.771218304  -0.502228149


     kinetic energy (Ekin) =     0.00024477 Ry
     temperature           =    12.88210462 K 
     Ekin + Etot (const)   =   -33.74347794 Ry
     Message from routine dynamics:
     Total linear momentum <> 0

     Linear momentum :    0.0106435165    0.0187626952   -0.0374832323

     Writing output data file pwscf.save

     second order wave-functions extrapolation
     Check: negative starting charge=   -0.071186
     second order charge density extrapolation
     Check: negative starting charge=   -0.071191

     negative rho (up, down):  5.916E-05 0.000E+00

     total cpu time spent up to now is      888.6 secs

     per-process dynamical memory:    47.4 Mb

     Self-consistent Calculation

     iteration #  1     ecut=    60.00 Ry     beta=0.70
     Davidson diagonalization with overlap
     ethr =  1.00E-06,  avg # of iterations =  2.0

     Threshold (ethr) on eigenvalues was too large:
     Diagonalizing with lowered threshold

     Davidson diagonalization with overlap
     ethr =  2.76E-08,  avg # of iterations =  2.0

     negative rho (up, down):  5.491E-06 0.000E+00

     total cpu time spent up to now is      890.2 secs

     total energy              =     -33.74370624 Ry
     Harris-Foulkes estimate   =     -33.74370891 Ry
     estimated scf accuracy    <       0.00000296 Ry

     iteration #  2     ecut=    60.00 Ry     beta=0.70
     Davidson diagonalization with overlap
     ethr =  3.70E-08,  avg # of iterations =  2.0

     negative rho (up, down):  1.778E-06 0.000E+00

     total cpu time spent up to now is      891.3 secs

     total energy              =     -33.74370690 Ry
     Harris-Foulkes estimate   =     -33.74370788 Ry
     estimated scf accuracy    <       0.00000222 Ry

     iteration #  3     ecut=    60.00 Ry     beta=0.70
     Davidson diagonalization with overlap
     ethr =  2.78E-08,  avg # of iterations =  2.0

     total cpu time spent up to now is      892.5 secs

     total energy              =     -33.74370742 Ry
     Harris-Foulkes estimate   =     -33.74370743 Ry
     estimated scf accuracy    <       0.00000005 Ry

     iteration #  4     ecut=    60.00 Ry     beta=0.70
     Davidson diagonalization with overlap
     ethr =  6.66E-10,  avg # of iterations =  2.0

     total cpu time spent up to now is      893.3 secs

     End of self-consistent calculation

          k = 0.0000 0.0000 0.0000 ( 62669 PWs)   bands (ev):

   -25.2682 -12.5939  -9.2874  -7.0273

     highest occupied level (ev):    -7.0273

!    total energy              =     -33.74370745 Ry
     Harris-Foulkes estimate   =     -33.74370744 Ry
     estimated scf accuracy    <          1.3E-09 Ry

     convergence has been achieved in   4 iterations
