
     Program PWSCF v.6.0 (svn rev. 13079) starts on 12Apr2018 at 19:40:13 

     This program is part of the open-source Quantum ESPRESSO suite
     for quantum simulation of materials; please cite
         "P. Giannozzi et al., J. Phys.:Condens. Matter 21 395502 (2009);
          URL http://www.quantum-espresso.org", 
     in publications or presentations arising from this work. More details at
     http://www.quantum-espresso.org/quote

     Parallel version (MPI), running on    10 processors
     R & G space division:  proc/nbgrp/npool/nimage =      10
     Reading input from H2O-1000xv3.in

     Current dimensions of program PWSCF are:
     Max number of different atomic species (ntypx) = 10
     Max number of k-points (npk) =  40000
     Max angular momentum in pseudopotentials (lmaxx) =  3

     Subspace diagonalization in iterative solution of the eigenvalue problem:
     a serial algorithm will be used

 
     Parallelization info
     --------------------
     sticks:   dense  smooth     PW     G-vecs:    dense   smooth      PW
     Min         764     764    190                50246    50246    6266
     Max         765     765    191                50251    50251    6269
     Sum        7645    7645   1901               502479   502479   62669
 


     bravais-lattice index     =            1
     lattice parameter (alat)  =      20.0000  a.u.
     unit-cell volume          =    8000.0000 (a.u.)^3
     number of atoms/cell      =            3
     number of atomic types    =            2
     number of electrons       =         8.00
     number of Kohn-Sham states=            8
     kinetic-energy cutoff     =      60.0000  Ry
     charge density cutoff     =     240.0000  Ry
     convergence threshold     =      1.0E-08
     mixing beta               =       0.7000
     number of iterations used =            8  plain     mixing
     Exchange-correlation      = BLYP ( 1  3  1  3 0 0)
     nstep                     =          100


     celldm(1)=  20.000000  celldm(2)=   0.000000  celldm(3)=   0.000000
     celldm(4)=   0.000000  celldm(5)=   0.000000  celldm(6)=   0.000000

     crystal axes: (cart. coord. in units of alat)
               a(1) = (   1.000000   0.000000   0.000000 )  
               a(2) = (   0.000000   1.000000   0.000000 )  
               a(3) = (   0.000000   0.000000   1.000000 )  

     reciprocal axes: (cart. coord. in units 2 pi/alat)
               b(1) = (  1.000000  0.000000  0.000000 )  
               b(2) = (  0.000000  1.000000  0.000000 )  
               b(3) = (  0.000000  0.000000  1.000000 )  


     PseudoPot. # 1 for  H read from file:
     ./H.blyp-hgh.UPF
     MD5 check sum: c576e69559cde411e611be972c763230
     Pseudo is Norm-conserving, Zval =  1.0
     Generated in analytical, separable form
     Using radial grid of  929 points,  0 beta functions with: 

     PseudoPot. # 2 for  O read from file:
     ./O.blyp-hgh.UPF
     MD5 check sum: d0b7156309aa9befef28faac7bc56342
     Pseudo is Norm-conserving, Zval =  6.0
     Generated in analytical, separable form
     Using radial grid of 1095 points,  1 beta functions with: 
                l(1) =   0

     atomic species   valence    mass     pseudopotential
        H              1.00     1.01000      H( 1.00)
        O              6.00    16.00000      O( 1.00)

     No symmetry found



   Cartesian axes

     site n.     atom                  positions (alat units)
         1           O   tau(   1) = (   0.0000000   0.0000000   0.0112686  )
         2           H   tau(   2) = (   0.0000000   0.0721156  -0.0450744  )
         3           H   tau(   3) = (   0.0000000  -0.0721156  -0.0450744  )

     number of k points=     1  Marzari-Vanderbilt smearing, width (Ry)=  0.0250
                       cart. coord. in units 2pi/alat
        k(    1) = (   0.0000000   0.0000000   0.0000000), wk =   2.0000000

     Dense  grid:   502479 G-vectors     FFT dimensions: ( 100, 100, 100)

     Estimated max dynamical RAM per process >      19.45Mb

     Estimated total allocated dynamical RAM >     194.52Mb

     Initial potential from superposition of free atoms
     Check: negative starting charge=   -0.071145

     starting charge    7.99998, renormalised to    8.00000

     negative rho (up, down):  7.115E-02 0.000E+00
     Starting wfc are    6 randomized atomic wfcs +    2 random wfc

     total cpu time spent up to now is        3.9 secs

     per-process dynamical memory:    45.0 Mb

     Self-consistent Calculation

     iteration #  1     ecut=    60.00 Ry     beta=0.70
     Davidson diagonalization with overlap
     ethr =  1.00E-02,  avg # of iterations =  7.0

     negative rho (up, down):  2.060E-02 0.000E+00

     total cpu time spent up to now is        6.7 secs

     total energy              =     -33.66076519 Ry
     Harris-Foulkes estimate   =     -33.73036976 Ry
     estimated scf accuracy    <       0.20754623 Ry

     iteration #  2     ecut=    60.00 Ry     beta=0.70
     Davidson diagonalization with overlap
     ethr =  2.59E-03,  avg # of iterations =  2.0

     negative rho (up, down):  1.166E-02 0.000E+00

     total cpu time spent up to now is        8.5 secs

     total energy              =     -33.69147204 Ry
     Harris-Foulkes estimate   =     -33.75074173 Ry
     estimated scf accuracy    <       0.13695704 Ry

     iteration #  3     ecut=    60.00 Ry     beta=0.70
     Davidson diagonalization with overlap
     ethr =  1.71E-03,  avg # of iterations =  2.0

     negative rho (up, down):  2.455E-04 0.000E+00

     total cpu time spent up to now is       10.2 secs

     total energy              =     -33.73646437 Ry
     Harris-Foulkes estimate   =     -33.72661054 Ry
     estimated scf accuracy    <       0.00675669 Ry

     iteration #  4     ecut=    60.00 Ry     beta=0.70
     Davidson diagonalization with overlap
     ethr =  8.45E-05,  avg # of iterations =  6.0

     negative rho (up, down):  2.465E-04 0.000E+00

     total cpu time spent up to now is       12.7 secs

     total energy              =     -33.73796929 Ry
     Harris-Foulkes estimate   =     -33.73799197 Ry
     estimated scf accuracy    <       0.00005600 Ry

     iteration #  5     ecut=    60.00 Ry     beta=0.70
     Davidson diagonalization with overlap
     ethr =  7.00E-07,  avg # of iterations = 17.0

     negative rho (up, down):  1.604E-05 0.000E+00

     total cpu time spent up to now is       15.7 secs

     total energy              =     -33.73797921 Ry
     Harris-Foulkes estimate   =     -33.73798358 Ry
     estimated scf accuracy    <       0.00000514 Ry

     iteration #  6     ecut=    60.00 Ry     beta=0.70
     Davidson diagonalization with overlap
     ethr =  6.43E-08,  avg # of iterations =  2.0

     total cpu time spent up to now is       17.4 secs

     total energy              =     -33.74205622 Ry
     Harris-Foulkes estimate   =     -33.74205727 Ry
     estimated scf accuracy    <       0.00000018 Ry

     iteration #  7     ecut=    60.00 Ry     beta=0.70
     Davidson diagonalization with overlap
     ethr =  2.28E-09,  avg # of iterations =  3.0

     total cpu time spent up to now is       19.4 secs

     total energy              =     -33.74205620 Ry
     Harris-Foulkes estimate   =     -33.74205629 Ry
     estimated scf accuracy    <       0.00000003 Ry

     iteration #  8     ecut=    60.00 Ry     beta=0.70
     Davidson diagonalization with overlap
     ethr =  4.34E-10,  avg # of iterations =  2.0

     total cpu time spent up to now is       20.8 secs

     End of self-consistent calculation

          k = 0.0000 0.0000 0.0000 ( 62669 PWs)   bands (ev):

   -25.4810 -12.9154  -9.2077  -7.0607  -0.9109   0.4221   0.7969   1.1287

     the Fermi energy is    -5.1836 ev

!    total energy              =     -33.74205614 Ry
     Harris-Foulkes estimate   =     -33.74205621 Ry
     estimated scf accuracy    <          2.4E-09 Ry

     convergence has been achieved in   8 iterations

     Forces acting on atoms (Ry/au):

     atom    1 type  2   force =     0.00000156   -0.00000018    0.05215700
     atom    2 type  1   force =    -0.00000081    0.02845724   -0.02607844
     atom    3 type  1   force =    -0.00000076   -0.02845706   -0.02607855

     Total force =     0.075499     Total SCF correction =     0.000061

     Molecular Dynamics Calculation

     Starting temperature  =   300.00 K

     temperature is controlled by Andersen thermostat
     Collision frequency = 1.0000/timestep
     mass H                =     1.01
     mass O                =    16.00
     Time step             =    10.00 a.u.,  0.4838 femto-seconds

     Entering Dynamics:    iteration =     1
                           time      =   0.0005 pico-seconds


     Andersen thermostat:    3 collisions

ATOMIC_POSITIONS (angstrom)
O       -0.000362567  -0.000215362   0.118726767
H        0.000044401   0.769287219  -0.480617731
H        0.005699238  -0.765875541  -0.464997336


     kinetic energy (Ekin) =     0.00401106 Ry
     temperature           =   211.09837338 K 
     Ekin + Etot (const)   =   -33.73804508 Ry

     Linear momentum :    0.0000000000   -0.0000000000   -0.0000000000

     Writing output data file pwscf.save
     Check: negative starting charge=   -0.071145
     NEW-OLD atomic charge density approx. for the potential
     Check: negative starting charge=   -0.071131

     negative rho (up, down):  6.620E-04 0.000E+00

     total cpu time spent up to now is       24.9 secs

     per-process dynamical memory:    48.3 Mb

     Self-consistent Calculation

     iteration #  1     ecut=    60.00 Ry     beta=0.70
     Davidson diagonalization with overlap
     ethr =  1.00E-06,  avg # of iterations =  3.0

     negative rho (up, down):  1.331E-04 0.000E+00

     total cpu time spent up to now is       27.0 secs

     total energy              =     -33.73783757 Ry
     Harris-Foulkes estimate   =     -33.73783772 Ry
     estimated scf accuracy    <       0.00003208 Ry

     iteration #  2     ecut=    60.00 Ry     beta=0.70
     Davidson diagonalization with overlap
     ethr =  4.01E-07,  avg # of iterations =  2.0

     negative rho (up, down):  6.904E-06 0.000E+00

     total cpu time spent up to now is       28.8 secs

     total energy              =     -33.74191460 Ry
     Harris-Foulkes estimate   =     -33.74191834 Ry
     estimated scf accuracy    <       0.00000231 Ry

     iteration #  3     ecut=    60.00 Ry     beta=0.70
     Davidson diagonalization with overlap
     ethr =  2.89E-08,  avg # of iterations =  2.0

     negative rho (up, down):  1.126E-07 0.000E+00

     total cpu time spent up to now is       30.5 secs

     total energy              =     -33.74191423 Ry
     Harris-Foulkes estimate   =     -33.74191493 Ry
     estimated scf accuracy    <       0.00000022 Ry

     iteration #  4     ecut=    60.00 Ry     beta=0.70
     Davidson diagonalization with overlap
     ethr =  2.69E-09,  avg # of iterations =  2.0

     total cpu time spent up to now is       32.3 secs

     total energy              =     -33.74191415 Ry
     Harris-Foulkes estimate   =     -33.74191431 Ry
     estimated scf accuracy    <       0.00000007 Ry

     iteration #  5     ecut=    60.00 Ry     beta=0.70
     Davidson diagonalization with overlap
     ethr =  9.34E-10,  avg # of iterations =  2.0

     total cpu time spent up to now is       33.7 secs

     End of self-consistent calculation

          k = 0.0000 0.0000 0.0000 ( 62669 PWs)   bands (ev):

   -25.4630 -12.9478  -9.1684  -7.0564  -0.9114   0.4221   0.7939   1.1279

     the Fermi energy is    -5.1797 ev

!    total energy              =     -33.74191404 Ry
     Harris-Foulkes estimate   =     -33.74191417 Ry
     estimated scf accuracy    <          1.5E-09 Ry

     convergence has been achieved in   5 iterations

     Forces acting on atoms (Ry/au):

     atom    1 type  2   force =    -0.00055107    0.01871549    0.05393543
     atom    2 type  1   force =     0.00014042    0.01666474   -0.01994466
     atom    3 type  1   force =     0.00041065   -0.03538022   -0.03399077

     Total force =     0.079639     Total SCF correction =     0.000249

     Entering Dynamics:    iteration =     2
                           time      =   0.0010 pico-seconds


     Andersen thermostat:    3 collisions

ATOMIC_POSITIONS (angstrom)
O       -0.000291828  -0.000601879   0.118803726
H        0.001321869   0.766606361  -0.477586732
H        0.003301152  -0.757071642  -0.469247475


     kinetic energy (Ekin) =     0.00292215 Ry
     temperature           =   153.79037829 K 
     Ekin + Etot (const)   =   -33.73899189 Ry
     Message from routine dynamics:
     Total linear momentum <> 0

     Linear momentum :    0.0173304458    0.2013857247    0.0975975481

     Writing output data file pwscf.save

     first order wave-functions extrapolation
     Check: negative starting charge=   -0.071131
     first order charge density extrapolation
     Check: negative starting charge=   -0.071138

     negative rho (up, down):  9.169E-04 0.000E+00

     total cpu time spent up to now is       39.5 secs

     per-process dynamical memory:    48.3 Mb

     Self-consistent Calculation

     iteration #  1     ecut=    60.00 Ry     beta=0.70
     Davidson diagonalization with overlap
     ethr =  1.00E-06,  avg # of iterations =  5.0

     negative rho (up, down):  1.950E-04 0.000E+00

     total cpu time spent up to now is       42.0 secs

     total energy              =     -33.73721502 Ry
     Harris-Foulkes estimate   =     -33.73721030 Ry
     estimated scf accuracy    <       0.00009089 Ry

     iteration #  2     ecut=    60.00 Ry     beta=0.70
     Davidson diagonalization with overlap
     ethr =  1.14E-06,  avg # of iterations =  3.0

     negative rho (up, down):  6.975E-05 0.000E+00

     total cpu time spent up to now is       43.9 secs

     total energy              =     -33.73722446 Ry
     Harris-Foulkes estimate   =     -33.73723968 Ry
     estimated scf accuracy    <       0.00002973 Ry

     iteration #  3     ecut=    60.00 Ry     beta=0.70
     Davidson diagonalization with overlap
     ethr =  3.72E-07,  avg # of iterations =  2.0

     negative rho (up, down):  1.179E-06 0.000E+00

     total cpu time spent up to now is       45.7 secs

     total energy              =     -33.74131017 Ry
     Harris-Foulkes estimate   =     -33.74131210 Ry
     estimated scf accuracy    <       0.00000591 Ry

     iteration #  4     ecut=    60.00 Ry     beta=0.70
     Davidson diagonalization with overlap
     ethr =  7.39E-08,  avg # of iterations =  2.0

     total cpu time spent up to now is       47.4 secs

     total energy              =     -33.74131164 Ry
     Harris-Foulkes estimate   =     -33.74131132 Ry
     estimated scf accuracy    <       0.00000005 Ry

     iteration #  5     ecut=    60.00 Ry     beta=0.70
     Davidson diagonalization with overlap
     ethr =  6.06E-10,  avg # of iterations =  2.0

     total cpu time spent up to now is       48.9 secs

     End of self-consistent calculation

          k = 0.0000 0.0000 0.0000 ( 62669 PWs)   bands (ev):

   -25.5173 -12.9630  -9.1992  -7.0665  -0.9012   0.4254   0.8029   1.1293

     the Fermi energy is    -5.1922 ev

!    total energy              =     -33.74131169 Ry
     Harris-Foulkes estimate   =     -33.74131166 Ry
     estimated scf accuracy    <          2.7E-09 Ry

     convergence has been achieved in   5 iterations

     Forces acting on atoms (Ry/au):

     atom    1 type  2   force =    -0.00059222    0.02033810    0.06088338
     atom    2 type  1   force =     0.00021421    0.02338171   -0.02243802
     atom    3 type  1   force =     0.00037802   -0.04371981   -0.03844536

     Total force =     0.092524     Total SCF correction =     0.000196

     Entering Dynamics:    iteration =     3
                           time      =   0.0015 pico-seconds


     Andersen thermostat:    3 collisions

ATOMIC_POSITIONS (angstrom)
O       -0.000736906  -0.000342364   0.118963254
H        0.005043334   0.770447775  -0.470481606
H        0.006630418  -0.765024194  -0.478879785


     kinetic energy (Ekin) =     0.00466948 Ry
     temperature           =   245.75038027 K 
     Ekin + Etot (const)   =   -33.73664221 Ry
     Message from routine dynamics:
     Total linear momentum <> 0

     Linear momentum :    0.2015303708   -0.2223337519    0.0358971979

     Writing output data file pwscf.save

     second order wave-functions extrapolation
     Check: negative starting charge=   -0.071138
     second order charge density extrapolation
     Check: negative starting charge=   -0.071136

     negative rho (up, down):  6.483E-04 0.000E+00

     total cpu time spent up to now is       54.5 secs

     per-process dynamical memory:    48.3 Mb

     Self-consistent Calculation

     iteration #  1     ecut=    60.00 Ry     beta=0.70
     Davidson diagonalization with overlap
     ethr =  1.00E-06,  avg # of iterations =  3.0

     negative rho (up, down):  1.303E-04 0.000E+00

     total cpu time spent up to now is       56.9 secs

     total energy              =     -33.73814346 Ry
     Harris-Foulkes estimate   =     -33.73822646 Ry
     estimated scf accuracy    <       0.00014901 Ry

     iteration #  2     ecut=    60.00 Ry     beta=0.70
     Davidson diagonalization with overlap
     ethr =  1.86E-06,  avg # of iterations =  3.0

     negative rho (up, down):  5.927E-05 0.000E+00

     total cpu time spent up to now is       58.8 secs

     total energy              =     -33.74224336 Ry
     Harris-Foulkes estimate   =     -33.74229692 Ry
     estimated scf accuracy    <       0.00009759 Ry

     iteration #  3     ecut=    60.00 Ry     beta=0.70
     Davidson diagonalization with overlap
     ethr =  1.22E-06,  avg # of iterations =  2.0

     negative rho (up, down):  1.757E-06 0.000E+00

     total cpu time spent up to now is       60.5 secs

     total energy              =     -33.74226508 Ry
     Harris-Foulkes estimate   =     -33.74226726 Ry
     estimated scf accuracy    <       0.00000317 Ry

     iteration #  4     ecut=    60.00 Ry     beta=0.70
     Davidson diagonalization with overlap
     ethr =  3.96E-08,  avg # of iterations =  2.0

     negative rho (up, down):  2.156E-08 0.000E+00

     total cpu time spent up to now is       62.2 secs

     total energy              =     -33.74226576 Ry
     Harris-Foulkes estimate   =     -33.74226574 Ry
     estimated scf accuracy    <       0.00000004 Ry

     iteration #  5     ecut=    60.00 Ry     beta=0.70
     Davidson diagonalization with overlap
     ethr =  5.21E-10,  avg # of iterations =  2.0

     total cpu time spent up to now is       63.6 secs

     End of self-consistent calculation

          k = 0.0000 0.0000 0.0000 ( 62669 PWs)   bands (ev):

   -25.4495 -12.9250  -9.1759  -7.0544  -0.9151   0.4210   0.7917   1.1277

     the Fermi energy is    -5.1765 ev

!    total energy              =     -33.74226571 Ry
     Harris-Foulkes estimate   =     -33.74226578 Ry
     estimated scf accuracy    <          2.4E-09 Ry

     convergence has been achieved in   5 iterations

     Forces acting on atoms (Ry/au):

     atom    1 type  2   force =    -0.00086502   -0.00106741    0.04992619
     atom    2 type  1   force =     0.00040962    0.02464900   -0.02502599
     atom    3 type  1   force =     0.00045540   -0.02358159   -0.02490020

     Total force =     0.070035     Total SCF correction =     0.000420

     Entering Dynamics:    iteration =     4
                           time      =   0.0019 pico-seconds


     Andersen thermostat:    3 collisions

ATOMIC_POSITIONS (angstrom)
O       -0.001681452  -0.000907209   0.119800197
H        0.001985317   0.764981996  -0.477847840
H        0.024651551  -0.750610366  -0.484772052


     kinetic energy (Ekin) =     0.01204233 Ry
     temperature           =   633.77701555 K 
     Ekin + Etot (const)   =   -33.73022338 Ry
     Message from routine dynamics:
     Total linear momentum <> 0

     Linear momentum :    0.1571272260    0.0288677199   -0.1433904533

     Writing output data file pwscf.save

     second order wave-functions extrapolation
     Check: negative starting charge=   -0.071136
     second order charge density extrapolation
     Check: negative starting charge=   -0.071160

     negative rho (up, down):  1.410E-03 0.000E+00

     total cpu time spent up to now is       69.3 secs

     per-process dynamical memory:    48.3 Mb

     Self-consistent Calculation

     iteration #  1     ecut=    60.00 Ry     beta=0.70
     Davidson diagonalization with overlap
     ethr =  1.00E-06,  avg # of iterations = 20.0

     negative rho (up, down):  3.202E-04 0.000E+00

     total cpu time spent up to now is       72.7 secs

     total energy              =     -33.73777212 Ry
     Harris-Foulkes estimate   =     -33.73762529 Ry
     estimated scf accuracy    <       0.00004863 Ry

     iteration #  2     ecut=    60.00 Ry     beta=0.70
     Davidson diagonalization with overlap
     ethr =  6.08E-07,  avg # of iterations =  5.0

     negative rho (up, down):  1.027E-04 0.000E+00

     total cpu time spent up to now is       75.0 secs

     total energy              =     -33.73777384 Ry
     Harris-Foulkes estimate   =     -33.73778203 Ry
     estimated scf accuracy    <       0.00001387 Ry

     iteration #  3     ecut=    60.00 Ry     beta=0.70
     Davidson diagonalization with overlap
     ethr =  1.73E-07,  avg # of iterations = 10.0

     total cpu time spent up to now is       77.2 secs

     total energy              =     -33.73777699 Ry
     Harris-Foulkes estimate   =     -33.73777917 Ry
     estimated scf accuracy    <       0.00000470 Ry

     iteration #  4     ecut=    60.00 Ry     beta=0.70
     Davidson diagonalization with overlap
     ethr =  5.87E-08,  avg # of iterations =  2.0

     total cpu time spent up to now is       78.9 secs

     total energy              =     -33.74185544 Ry
     Harris-Foulkes estimate   =     -33.74185539 Ry
     estimated scf accuracy    <       0.00000001 Ry

     iteration #  5     ecut=    60.00 Ry     beta=0.70
     Davidson diagonalization with overlap
     ethr =  1.48E-10,  avg # of iterations =  3.0

     total cpu time spent up to now is       80.5 secs

     End of self-consistent calculation

          k = 0.0000 0.0000 0.0000 ( 62669 PWs)   bands (ev):

   -25.5083 -12.8827  -9.2528  -7.0666  -0.9096   0.4221   0.8013   1.1115

     the Fermi energy is    -5.2033 ev

!    total energy              =     -33.74185545 Ry
     Harris-Foulkes estimate   =     -33.74185545 Ry
     estimated scf accuracy    <          2.2E-09 Ry

     convergence has been achieved in   5 iterations

     Forces acting on atoms (Ry/au):

     atom    1 type  2   force =    -0.00231624    0.01113346    0.05161230
     atom    2 type  1   force =     0.00055088    0.02675365   -0.02087112
     atom    3 type  1   force =     0.00176536   -0.03788711   -0.03074118

     Total force =     0.079551     Total SCF correction =     0.000194

     Entering Dynamics:    iteration =     5
                           time      =   0.0024 pico-seconds


     Andersen thermostat:    3 collisions

ATOMIC_POSITIONS (angstrom)
O       -0.001716736  -0.000840766   0.120972832
H       -0.010820740   0.770867199  -0.489172145
H        0.038016556  -0.757548135  -0.492024151


     kinetic energy (Ekin) =     0.00993994 Ry
     temperature           =   523.12992080 K 
     Ekin + Etot (const)   =   -33.73191551 Ry
     Message from routine dynamics:
     Total linear momentum <> 0

     Linear momentum :   -0.0663237503    0.1692851406    0.0746236805

     Writing output data file pwscf.save

     second order wave-functions extrapolation
     Check: negative starting charge=   -0.071160
     second order charge density extrapolation
     Check: negative starting charge=   -0.071175

     negative rho (up, down):  9.816E-04 0.000E+00

     total cpu time spent up to now is       86.1 secs

     per-process dynamical memory:    48.3 Mb

     Self-consistent Calculation

     iteration #  1     ecut=    60.00 Ry     beta=0.70
     Davidson diagonalization with overlap
     ethr =  1.00E-06,  avg # of iterations = 19.0

     negative rho (up, down):  2.123E-04 0.000E+00

     total cpu time spent up to now is       89.2 secs

     total energy              =     -33.73899846 Ry
     Harris-Foulkes estimate   =     -33.73915318 Ry
     estimated scf accuracy    <       0.00028790 Ry

     iteration #  2     ecut=    60.00 Ry     beta=0.70
     Davidson diagonalization with overlap
     ethr =  3.60E-06,  avg # of iterations =  3.0

     negative rho (up, down):  1.112E-04 0.000E+00

     total cpu time spent up to now is       91.1 secs

     total energy              =     -33.74312884 Ry
     Harris-Foulkes estimate   =     -33.74325947 Ry
     estimated scf accuracy    <       0.00025541 Ry

     iteration #  3     ecut=    60.00 Ry     beta=0.70
     Davidson diagonalization with overlap
     ethr =  3.19E-06,  avg # of iterations =  2.0

     negative rho (up, down):  2.388E-06 0.000E+00

     total cpu time spent up to now is       92.8 secs

     total energy              =     -33.73910403 Ry
     Harris-Foulkes estimate   =     -33.73910628 Ry
     estimated scf accuracy    <       0.00000275 Ry

     iteration #  4     ecut=    60.00 Ry     beta=0.70
     Davidson diagonalization with overlap
     ethr =  3.43E-08,  avg # of iterations =  2.0

     negative rho (up, down):  2.189E-08 0.000E+00

     total cpu time spent up to now is       94.6 secs

     total energy              =     -33.74318218 Ry
     Harris-Foulkes estimate   =     -33.74318219 Ry
     estimated scf accuracy    <       0.00000005 Ry

     iteration #  5     ecut=    60.00 Ry     beta=0.70
     Davidson diagonalization with overlap
     ethr =  6.28E-10,  avg # of iterations =  2.0

     total cpu time spent up to now is       96.0 secs

     End of self-consistent calculation

          k = 0.0000 0.0000 0.0000 ( 62669 PWs)   bands (ev):

   -25.3870 -12.7516  -9.2587  -7.0464  -0.9426   0.4108   0.7801   1.1108

     the Fermi energy is    -5.1735 ev

!    total energy              =     -33.74318219 Ry
     Harris-Foulkes estimate   =     -33.74318219 Ry
     estimated scf accuracy    <          2.4E-09 Ry

     convergence has been achieved in   5 iterations

     Forces acting on atoms (Ry/au):

     atom    1 type  2   force =    -0.00194230    0.01185738    0.02622512
     atom    2 type  1   force =     0.00031456    0.01057530   -0.00810341
     atom    3 type  1   force =     0.00162774   -0.02243268   -0.01812171

     Total force =     0.042942     Total SCF correction =     0.000573

     Entering Dynamics:    iteration =     6
                           time      =   0.0029 pico-seconds


     Andersen thermostat:    3 collisions

ATOMIC_POSITIONS (angstrom)
O       -0.001356958  -0.001124907   0.120874847
H       -0.020737684   0.768750667  -0.479940771
H        0.042234042  -0.750930356  -0.499703283


     kinetic energy (Ekin) =     0.00656555 Ry
     temperature           =   345.53927910 K 
     Ekin + Etot (const)   =   -33.73661663 Ry
     Message from routine dynamics:
     Total linear momentum <> 0

     Linear momentum :   -0.0391001340   -0.3164137281   -0.0812705114

     Writing output data file pwscf.save

     second order wave-functions extrapolation
     Check: negative starting charge=   -0.071175
     second order charge density extrapolation
     Check: negative starting charge=   -0.071179

     negative rho (up, down):  7.133E-04 0.000E+00

     total cpu time spent up to now is      101.5 secs

     per-process dynamical memory:    48.3 Mb

     Self-consistent Calculation

     iteration #  1     ecut=    60.00 Ry     beta=0.70
     Davidson diagonalization with overlap
     c_bands:  1 eigenvalues not converged
     ethr =  1.00E-06,  avg # of iterations = 20.0

     negative rho (up, down):  1.455E-04 0.000E+00

     total cpu time spent up to now is      104.6 secs

     total energy              =     -33.73881965 Ry
     Harris-Foulkes estimate   =     -33.73882062 Ry
     estimated scf accuracy    <       0.00004108 Ry

     iteration #  2     ecut=    60.00 Ry     beta=0.70
     Davidson diagonalization with overlap
     ethr =  5.13E-07,  avg # of iterations =  4.0

     negative rho (up, down):  5.788E-05 0.000E+00

     total cpu time spent up to now is      106.6 secs

     total energy              =     -33.73882170 Ry
     Harris-Foulkes estimate   =     -33.73883373 Ry
     estimated scf accuracy    <       0.00001909 Ry

     iteration #  3     ecut=    60.00 Ry     beta=0.70
     Davidson diagonalization with overlap
     ethr =  2.39E-07,  avg # of iterations =  2.0

     negative rho (up, down):  2.208E-07 0.000E+00

     total cpu time spent up to now is      108.3 secs

     total energy              =     -33.74290255 Ry
     Harris-Foulkes estimate   =     -33.74290489 Ry
     estimated scf accuracy    <       0.00000225 Ry

     iteration #  4     ecut=    60.00 Ry     beta=0.70
     Davidson diagonalization with overlap
     ethr =  2.81E-08,  avg # of iterations =  2.0

     total cpu time spent up to now is      110.0 secs

     total energy              =     -33.74290283 Ry
     Harris-Foulkes estimate   =     -33.74290297 Ry
     estimated scf accuracy    <       0.00000001 Ry

     iteration #  5     ecut=    60.00 Ry     beta=0.70
     Davidson diagonalization with overlap
     ethr =  1.55E-10,  avg # of iterations =  3.0

     total cpu time spent up to now is      111.5 secs

     End of self-consistent calculation

          k = 0.0000 0.0000 0.0000 ( 62669 PWs)   bands (ev):

   -25.4308 -12.7747  -9.2750  -7.0543  -0.9325   0.4141   0.7879   1.1089

     the Fermi energy is    -5.1859 ev

!    total energy              =     -33.74290277 Ry
     Harris-Foulkes estimate   =     -33.74290284 Ry
     estimated scf accuracy    <          1.4E-09 Ry

     convergence has been achieved in   5 iterations

     Forces acting on atoms (Ry/au):

     atom    1 type  2   force =    -0.00150754    0.00268344    0.03294145
     atom    2 type  1   force =    -0.00020490    0.02084722   -0.01479833
     atom    3 type  1   force =     0.00171244   -0.02353066   -0.01814312

     Total force =     0.051323     Total SCF correction =     0.000306

     Entering Dynamics:    iteration =     7
                           time      =   0.0034 pico-seconds


     Andersen thermostat:    3 collisions

ATOMIC_POSITIONS (angstrom)
O       -0.001648517  -0.000814808   0.120443276
H       -0.021102107   0.765065355  -0.471824535
H        0.047217234  -0.752157510  -0.500982752


     kinetic energy (Ekin) =     0.00310476 Ry
     temperature           =   163.40087856 K 
     Ekin + Etot (const)   =   -33.73979801 Ry
     Message from routine dynamics:
     Total linear momentum <> 0

     Linear momentum :    0.0184186993   -0.0065353965    0.2969325437

     Writing output data file pwscf.save

     second order wave-functions extrapolation
     Check: negative starting charge=   -0.071179
     second order charge density extrapolation
     Check: negative starting charge=   -0.071173

     negative rho (up, down):  5.525E-04 0.000E+00

     total cpu time spent up to now is      117.1 secs

     per-process dynamical memory:    48.3 Mb

     Self-consistent Calculation

     iteration #  1     ecut=    60.00 Ry     beta=0.70
     Davidson diagonalization with overlap
     c_bands:  1 eigenvalues not converged
     ethr =  1.00E-06,  avg # of iterations = 20.0

     negative rho (up, down):  1.065E-04 0.000E+00

     total cpu time spent up to now is      120.2 secs

     total energy              =     -33.73843296 Ry
     Harris-Foulkes estimate   =     -33.73843959 Ry
     estimated scf accuracy    <       0.00001226 Ry

     iteration #  2     ecut=    60.00 Ry     beta=0.70
     Davidson diagonalization with overlap
     ethr =  1.53E-07,  avg # of iterations =  5.0

     negative rho (up, down):  2.895E-05 0.000E+00

     total cpu time spent up to now is      122.1 secs

     total energy              =     -33.73843299 Ry
     Harris-Foulkes estimate   =     -33.73843612 Ry
     estimated scf accuracy    <       0.00000319 Ry

     iteration #  3     ecut=    60.00 Ry     beta=0.70
     Davidson diagonalization with overlap
     ethr =  3.98E-08,  avg # of iterations =  2.0

     negative rho (up, down):  6.834E-07 0.000E+00

     total cpu time spent up to now is      123.9 secs

     total energy              =     -33.74251051 Ry
     Harris-Foulkes estimate   =     -33.74251164 Ry
     estimated scf accuracy    <       0.00000085 Ry

     iteration #  4     ecut=    60.00 Ry     beta=0.70
     Davidson diagonalization with overlap
     ethr =  1.07E-08,  avg # of iterations =  2.0

     total cpu time spent up to now is      125.6 secs

     total energy              =     -33.74251065 Ry
     Harris-Foulkes estimate   =     -33.74251070 Ry
     estimated scf accuracy    <       0.00000002 Ry

     iteration #  5     ecut=    60.00 Ry     beta=0.70
     Davidson diagonalization with overlap
     ethr =  1.90E-10,  avg # of iterations =  2.0

     total cpu time spent up to now is      127.0 secs

     End of self-consistent calculation

          k = 0.0000 0.0000 0.0000 ( 62669 PWs)   bands (ev):

   -25.4618 -12.8179  -9.2660  -7.0592  -0.9234   0.4172   0.7932   1.1071

     the Fermi energy is    -5.1949 ev

!    total energy              =     -33.74251063 Ry
     Harris-Foulkes estimate   =     -33.74251066 Ry
     estimated scf accuracy    <          4.5E-10 Ry

     convergence has been achieved in   5 iterations

     Forces acting on atoms (Ry/au):

     atom    1 type  2   force =    -0.00109073   -0.01222979    0.04018580
     atom    2 type  1   force =    -0.00053647    0.03236906   -0.02413108
     atom    3 type  1   force =     0.00162721   -0.02013927   -0.01605472

     Total force =     0.063734     Total SCF correction =     0.000393

     Entering Dynamics:    iteration =     8
                           time      =   0.0039 pico-seconds


     Andersen thermostat:    3 collisions

ATOMIC_POSITIONS (angstrom)
O       -0.001769924  -0.000784948   0.121318903
H       -0.024531164   0.772233091  -0.485011897
H        0.052569570  -0.759798272  -0.501666700


     kinetic energy (Ekin) =     0.00615405 Ry
     temperature           =   323.88233383 K 
     Ekin + Etot (const)   =   -33.73635657 Ry
     Message from routine dynamics:
     Total linear momentum <> 0

     Linear momentum :    0.1355504501   -0.1777854144   -0.2386076624

     Writing output data file pwscf.save

     second order wave-functions extrapolation
     Check: negative starting charge=   -0.071173
     second order charge density extrapolation
     Check: negative starting charge=   -0.071179

     negative rho (up, down):  6.214E-04 0.000E+00

     total cpu time spent up to now is      132.6 secs

     per-process dynamical memory:    48.3 Mb

     Self-consistent Calculation

     iteration #  1     ecut=    60.00 Ry     beta=0.70
     Davidson diagonalization with overlap
     ethr =  1.00E-06,  avg # of iterations =  3.0

     negative rho (up, down):  1.235E-04 0.000E+00

     total cpu time spent up to now is      134.7 secs

     total energy              =     -33.73936821 Ry
     Harris-Foulkes estimate   =     -33.73945924 Ry
     estimated scf accuracy    <       0.00014643 Ry

     iteration #  2     ecut=    60.00 Ry     beta=0.70
     Davidson diagonalization with overlap
     ethr =  1.83E-06,  avg # of iterations =  3.0

     negative rho (up, down):  6.111E-05 0.000E+00

     total cpu time spent up to now is      136.6 secs

     total energy              =     -33.74347182 Ry
     Harris-Foulkes estimate   =     -33.74354054 Ry
     estimated scf accuracy    <       0.00013204 Ry

     iteration #  3     ecut=    60.00 Ry     beta=0.70
     Davidson diagonalization with overlap
     ethr =  1.65E-06,  avg # of iterations =  2.0

     negative rho (up, down):  9.266E-07 0.000E+00

     total cpu time spent up to now is      138.3 secs

     total energy              =     -33.74349906 Ry
     Harris-Foulkes estimate   =     -33.74350004 Ry
     estimated scf accuracy    <       0.00000139 Ry

     iteration #  4     ecut=    60.00 Ry     beta=0.70
     Davidson diagonalization with overlap
     ethr =  1.74E-08,  avg # of iterations =  2.0

     total cpu time spent up to now is      140.1 secs

     total energy              =     -33.74349949 Ry
     Harris-Foulkes estimate   =     -33.74349944 Ry
     estimated scf accuracy    <       0.00000003 Ry

     iteration #  5     ecut=    60.00 Ry     beta=0.70
     Davidson diagonalization with overlap
     ethr =  3.57E-10,  avg # of iterations =  2.0

     total cpu time spent up to now is      141.4 secs

     End of self-consistent calculation

          k = 0.0000 0.0000 0.0000 ( 62669 PWs)   bands (ev):

   -25.3468 -12.7118  -9.2581  -7.0396  -0.9533   0.4072   0.7724   1.1057

     the Fermi energy is    -5.1673 ev

!    total energy              =     -33.74349951 Ry
     Harris-Foulkes estimate   =     -33.74349950 Ry
     estimated scf accuracy    <          1.3E-09 Ry

     convergence has been achieved in   5 iterations

     Forces acting on atoms (Ry/au):

     atom    1 type  2   force =    -0.00101256   -0.00145770    0.01835907
     atom    2 type  1   force =    -0.00006789    0.01218813   -0.00944228
     atom    3 type  1   force =     0.00108045   -0.01073042   -0.00891679

     Total force =     0.027816     Total SCF correction =     0.000469

     Entering Dynamics:    iteration =     9
                           time      =   0.0044 pico-seconds


     Andersen thermostat:    3 collisions

ATOMIC_POSITIONS (angstrom)
O       -0.000919426  -0.001103820   0.121049812
H       -0.028970979   0.779158920  -0.487428920
H        0.043536147  -0.761672658  -0.494986861


     kinetic energy (Ekin) =     0.00522956 Ry
     temperature           =   275.22733239 K 
     Ekin + Etot (const)   =   -33.73826995 Ry
     Message from routine dynamics:
     Total linear momentum <> 0

     Linear momentum :    0.2119181323   -0.1055041878   -0.2889148549

     Writing output data file pwscf.save

     second order wave-functions extrapolation
     Check: negative starting charge=   -0.071179
     second order charge density extrapolation
     Check: negative starting charge=   -0.071167

     negative rho (up, down):  7.092E-04 0.000E+00

     total cpu time spent up to now is      147.0 secs

     per-process dynamical memory:    48.3 Mb

     Self-consistent Calculation

     iteration #  1     ecut=    60.00 Ry     beta=0.70
     Davidson diagonalization with overlap
     ethr =  1.00E-06,  avg # of iterations =  4.0

     negative rho (up, down):  1.444E-04 0.000E+00

     total cpu time spent up to now is      149.2 secs

     total energy              =     -33.73942360 Ry
     Harris-Foulkes estimate   =     -33.73941876 Ry
     estimated scf accuracy    <       0.00000941 Ry

     iteration #  2     ecut=    60.00 Ry     beta=0.70
     Davidson diagonalization with overlap
     ethr =  1.18E-07,  avg # of iterations =  3.0

     negative rho (up, down):  4.109E-05 0.000E+00

     total cpu time spent up to now is      151.1 secs

     total energy              =     -33.73942135 Ry
     Harris-Foulkes estimate   =     -33.73942600 Ry
     estimated scf accuracy    <       0.00000281 Ry

     iteration #  3     ecut=    60.00 Ry     beta=0.70
     Davidson diagonalization with overlap
     ethr =  3.51E-08,  avg # of iterations =  2.0

     negative rho (up, down):  6.686E-08 0.000E+00

     total cpu time spent up to now is      152.8 secs

     total energy              =     -33.74349788 Ry
     Harris-Foulkes estimate   =     -33.74349990 Ry
     estimated scf accuracy    <       0.00000090 Ry

     iteration #  4     ecut=    60.00 Ry     beta=0.70
     Davidson diagonalization with overlap
     ethr =  1.12E-08,  avg # of iterations =  2.0

     total cpu time spent up to now is      154.2 secs

     End of self-consistent calculation

          k = 0.0000 0.0000 0.0000 ( 62669 PWs)   bands (ev):

   -25.3193 -12.7221  -9.2280  -7.0337  -0.9576   0.4061   0.7676   1.1098

     the Fermi energy is    -5.1574 ev

!    total energy              =     -33.74349796 Ry
     Harris-Foulkes estimate   =     -33.74349807 Ry
     estimated scf accuracy    <          3.6E-09 Ry

     convergence has been achieved in   4 iterations

     Forces acting on atoms (Ry/au):

     atom    1 type  2   force =    -0.00160362    0.01263319    0.01810507
     atom    2 type  1   force =     0.00034903    0.00148202   -0.00379343
     atom    3 type  1   force =     0.00125459   -0.01411521   -0.01431164

     Total force =     0.030204     Total SCF correction =     0.000712

     Entering Dynamics:    iteration =    10
                           time      =   0.0048 pico-seconds


     Andersen thermostat:    3 collisions

ATOMIC_POSITIONS (angstrom)
O       -0.001345779  -0.001846811   0.120451773
H       -0.029123160   0.788520049  -0.482867426
H        0.050442433  -0.759263640  -0.490074459


     kinetic energy (Ekin) =     0.00437070 Ry
     temperature           =   230.02580887 K 
     Ekin + Etot (const)   =   -33.73912727 Ry
     Message from routine dynamics:
     Total linear momentum <> 0

     Linear momentum :    0.2144579986    0.1215846839   -0.1179361931

     Writing output data file pwscf.save

     second order wave-functions extrapolation
     Check: negative starting charge=   -0.071167
     second order charge density extrapolation
     Check: negative starting charge=   -0.071149

     negative rho (up, down):  9.777E-04 0.000E+00

     total cpu time spent up to now is      159.8 secs

     per-process dynamical memory:    48.3 Mb

     Self-consistent Calculation

     iteration #  1     ecut=    60.00 Ry     beta=0.70
     Davidson diagonalization with overlap
     c_bands:  1 eigenvalues not converged
     ethr =  1.00E-06,  avg # of iterations = 20.0

     negative rho (up, down):  2.113E-04 0.000E+00

     total cpu time spent up to now is      163.0 secs

     total energy              =     -33.73910524 Ry
     Harris-Foulkes estimate   =     -33.73908660 Ry
     estimated scf accuracy    <       0.00002387 Ry

     iteration #  2     ecut=    60.00 Ry     beta=0.70
     Davidson diagonalization with overlap
     ethr =  2.98E-07,  avg # of iterations =  3.0

     negative rho (up, down):  7.653E-05 0.000E+00

     total cpu time spent up to now is      164.9 secs

     total energy              =     -33.73910568 Ry
     Harris-Foulkes estimate   =     -33.73911235 Ry
     estimated scf accuracy    <       0.00000835 Ry

     iteration #  3     ecut=    60.00 Ry     beta=0.70
     Davidson diagonalization with overlap
     ethr =  1.04E-07,  avg # of iterations =  2.0

     negative rho (up, down):  1.028E-06 0.000E+00

     total cpu time spent up to now is      166.6 secs

     total energy              =     -33.74318359 Ry
     Harris-Foulkes estimate   =     -33.74318596 Ry
     estimated scf accuracy    <       0.00000163 Ry

     iteration #  4     ecut=    60.00 Ry     beta=0.70
     Davidson diagonalization with overlap
     ethr =  2.03E-08,  avg # of iterations =  2.0

     total cpu time spent up to now is      168.4 secs

     total energy              =     -33.74318370 Ry
     Harris-Foulkes estimate   =     -33.74318395 Ry
     estimated scf accuracy    <       0.00000002 Ry

     iteration #  5     ecut=    60.00 Ry     beta=0.70
     Davidson diagonalization with overlap
     ethr =  2.24E-10,  avg # of iterations =  2.0

     total cpu time spent up to now is      169.8 secs

     End of self-consistent calculation

          k = 0.0000 0.0000 0.0000 ( 62669 PWs)   bands (ev):

   -25.3128 -12.7609  -9.1915  -7.0312  -0.9565   0.4062   0.7667   1.1087

     the Fermi energy is    -5.1565 ev

!    total energy              =     -33.74318366 Ry
     Harris-Foulkes estimate   =     -33.74318371 Ry
     estimated scf accuracy    <          6.9E-10 Ry

     convergence has been achieved in   5 iterations

     Forces acting on atoms (Ry/au):

     atom    1 type  2   force =    -0.00238408    0.02602545    0.02180200
     atom    2 type  1   force =     0.00061756   -0.00637082   -0.00031737
     atom    3 type  1   force =     0.00176652   -0.01965463   -0.02148463

     Total force =     0.045282     Total SCF correction =     0.000365

     Entering Dynamics:    iteration =    11
                           time      =   0.0053 pico-seconds


     Andersen thermostat:    3 collisions

ATOMIC_POSITIONS (angstrom)
O       -0.001646443  -0.001790291   0.120071468
H       -0.024087835   0.795507206  -0.475966442
H        0.050170102  -0.767146154  -0.490950821


     kinetic energy (Ekin) =     0.00451825 Ry
     temperature           =   237.79160138 K 
     Ekin + Etot (const)   =   -33.73866541 Ry
     Message from routine dynamics:
     Total linear momentum <> 0

     Linear momentum :   -0.2467718860    0.1116703491   -0.2273417718

     Writing output data file pwscf.save

     second order wave-functions extrapolation
     Check: negative starting charge=   -0.071149
     second order charge density extrapolation
     Check: negative starting charge=   -0.071132

     negative rho (up, down):  4.154E-04 0.000E+00

     total cpu time spent up to now is      175.3 secs

     per-process dynamical memory:    48.3 Mb

     Self-consistent Calculation

     iteration #  1     ecut=    60.00 Ry     beta=0.70
     Davidson diagonalization with overlap
     ethr =  1.00E-06,  avg # of iterations =  6.0

     negative rho (up, down):  7.484E-05 0.000E+00

     total cpu time spent up to now is      177.5 secs

     total energy              =     -33.73922844 Ry
     Harris-Foulkes estimate   =     -33.73925468 Ry
     estimated scf accuracy    <       0.00004661 Ry

     iteration #  2     ecut=    60.00 Ry     beta=0.70
     Davidson diagonalization with overlap
     ethr =  5.83E-07,  avg # of iterations =  3.0

     negative rho (up, down):  2.942E-05 0.000E+00

     total cpu time spent up to now is      179.4 secs

     total energy              =     -33.74331027 Ry
     Harris-Foulkes estimate   =     -33.74332591 Ry
     estimated scf accuracy    <       0.00002582 Ry

     iteration #  3     ecut=    60.00 Ry     beta=0.70
     Davidson diagonalization with overlap
     ethr =  3.23E-07,  avg # of iterations =  2.0

     negative rho (up, down):  5.508E-07 0.000E+00

     total cpu time spent up to now is      181.1 secs

     total energy              =     -33.74331646 Ry
     Harris-Foulkes estimate   =     -33.74331728 Ry
     estimated scf accuracy    <       0.00000175 Ry

     iteration #  4     ecut=    60.00 Ry     beta=0.70
     Davidson diagonalization with overlap
     ethr =  2.18E-08,  avg # of iterations =  2.0

     total cpu time spent up to now is      182.8 secs

     total energy              =     -33.74331668 Ry
     Harris-Foulkes estimate   =     -33.74331681 Ry
     estimated scf accuracy    <       0.00000002 Ry

     iteration #  5     ecut=    60.00 Ry     beta=0.70
     Davidson diagonalization with overlap
     ethr =  2.60E-10,  avg # of iterations =  2.0

     total cpu time spent up to now is      184.3 secs

     End of self-consistent calculation

          k = 0.0000 0.0000 0.0000 ( 62669 PWs)   bands (ev):

   -25.2583 -12.7662  -9.1442  -7.0203  -0.9659   0.4037   0.7564   1.1110

     the Fermi energy is    -5.1412 ev

!    total energy              =     -33.74331660 Ry
     Harris-Foulkes estimate   =     -33.74331669 Ry
     estimated scf accuracy    <          1.1E-09 Ry

     convergence has been achieved in   5 iterations

     Forces acting on atoms (Ry/au):

     atom    1 type  2   force =    -0.00209246    0.01811477    0.01750430
     atom    2 type  1   force =     0.00087346   -0.00965451   -0.00134056
     atom    3 type  1   force =     0.00121901   -0.00846027   -0.01616374

     Total force =     0.032696     Total SCF correction =     0.000236

     Entering Dynamics:    iteration =    12
                           time      =   0.0058 pico-seconds


     Andersen thermostat:    3 collisions

ATOMIC_POSITIONS (angstrom)
O       -0.001785666  -0.001096491   0.121033539
H       -0.022556688   0.788113370  -0.485027521
H        0.050844472  -0.770743216  -0.497130464


     kinetic energy (Ekin) =     0.00384115 Ry
     temperature           =   202.15614100 K 
     Ekin + Etot (const)   =   -33.73947545 Ry
     Message from routine dynamics:
     Total linear momentum <> 0

     Linear momentum :   -0.1681119205   -0.0766354898   -0.1092664785

     Writing output data file pwscf.save

     second order wave-functions extrapolation
     Check: negative starting charge=   -0.071132
     second order charge density extrapolation
     Check: negative starting charge=   -0.071150

     negative rho (up, down):  5.698E-04 0.000E+00

     total cpu time spent up to now is      189.8 secs

     per-process dynamical memory:    48.3 Mb

     Self-consistent Calculation

     iteration #  1     ecut=    60.00 Ry     beta=0.70
     Davidson diagonalization with overlap
     ethr =  1.00E-06,  avg # of iterations =  4.0

     negative rho (up, down):  1.110E-04 0.000E+00

     total cpu time spent up to now is      191.9 secs

     total energy              =     -33.73953474 Ry
     Harris-Foulkes estimate   =     -33.73955795 Ry
     estimated scf accuracy    <       0.00003720 Ry

     iteration #  2     ecut=    60.00 Ry     beta=0.70
     Davidson diagonalization with overlap
     ethr =  4.65E-07,  avg # of iterations =  3.0

     negative rho (up, down):  5.507E-05 0.000E+00

     total cpu time spent up to now is      193.8 secs

     total energy              =     -33.74361748 Ry
     Harris-Foulkes estimate   =     -33.74363742 Ry
     estimated scf accuracy    <       0.00003581 Ry

     iteration #  3     ecut=    60.00 Ry     beta=0.70
     Davidson diagonalization with overlap
     ethr =  4.48E-07,  avg # of iterations =  2.0

     negative rho (up, down):  1.601E-07 0.000E+00

     total cpu time spent up to now is      195.5 secs

     total energy              =     -33.74362442 Ry
     Harris-Foulkes estimate   =     -33.74362501 Ry
     estimated scf accuracy    <       0.00000035 Ry

     iteration #  4     ecut=    60.00 Ry     beta=0.70
     Davidson diagonalization with overlap
     ethr =  4.35E-09,  avg # of iterations =  2.0

     total cpu time spent up to now is      196.9 secs

     End of self-consistent calculation

          k = 0.0000 0.0000 0.0000 ( 62669 PWs)   bands (ev):

   -25.2335 -12.6900  -9.1850  -7.0178  -0.9778   0.4000   0.7504   1.1051

     the Fermi energy is    -5.1394 ev

!    total energy              =     -33.74362450 Ry
     Harris-Foulkes estimate   =     -33.74362457 Ry
     estimated scf accuracy    <          8.9E-09 Ry

     convergence has been achieved in   4 iterations

     Forces acting on atoms (Ry/au):

     atom    1 type  2   force =    -0.00081073    0.00773683    0.00653379
     atom    2 type  1   force =     0.00046239   -0.00702627   -0.00002993
     atom    3 type  1   force =     0.00034834   -0.00071056   -0.00650386

     Total force =     0.013990     Total SCF correction =     0.001119

     Entering Dynamics:    iteration =    13
                           time      =   0.0063 pico-seconds


     Andersen thermostat:    3 collisions

ATOMIC_POSITIONS (angstrom)
O       -0.002041013  -0.001060514   0.121090920
H       -0.026750559   0.794447539  -0.489688425
H        0.059083436  -0.777647311  -0.493378566


     kinetic energy (Ekin) =     0.00458024 Ry
     temperature           =   241.05398919 K 
     Ekin + Etot (const)   =   -33.73904426 Ry
     Message from routine dynamics:
     Total linear momentum <> 0

     Linear momentum :   -0.0476479455    0.2039058164    0.2089927121

     Writing output data file pwscf.save

     second order wave-functions extrapolation
     Check: negative starting charge=   -0.071150
     second order charge density extrapolation
     Check: negative starting charge=   -0.071132

     negative rho (up, down):  3.222E-04 0.000E+00

     total cpu time spent up to now is      202.5 secs

     per-process dynamical memory:    48.3 Mb

     Self-consistent Calculation

     iteration #  1     ecut=    60.00 Ry     beta=0.70
     Davidson diagonalization with overlap
     ethr =  1.00E-06,  avg # of iterations =  3.0

     negative rho (up, down):  5.423E-05 0.000E+00

     total cpu time spent up to now is      204.7 secs

     total energy              =     -33.73929067 Ry
     Harris-Foulkes estimate   =     -33.73931801 Ry
     estimated scf accuracy    <       0.00005262 Ry

     iteration #  2     ecut=    60.00 Ry     beta=0.70
     Davidson diagonalization with overlap
     ethr =  6.58E-07,  avg # of iterations =  3.0

     negative rho (up, down):  2.246E-05 0.000E+00

     total cpu time spent up to now is      206.5 secs

     total energy              =     -33.74337429 Ry
     Harris-Foulkes estimate   =     -33.74339500 Ry
     estimated scf accuracy    <       0.00003758 Ry

     iteration #  3     ecut=    60.00 Ry     beta=0.70
     Davidson diagonalization with overlap
     ethr =  4.70E-07,  avg # of iterations =  2.0

     negative rho (up, down):  1.430E-07 0.000E+00

     total cpu time spent up to now is      208.3 secs

     total energy              =     -33.74338267 Ry
     Harris-Foulkes estimate   =     -33.74338341 Ry
     estimated scf accuracy    <       0.00000141 Ry

     iteration #  4     ecut=    60.00 Ry     beta=0.70
     Davidson diagonalization with overlap
     ethr =  1.76E-08,  avg # of iterations =  2.0

     total cpu time spent up to now is      210.0 secs

     total energy              =     -33.74338290 Ry
     Harris-Foulkes estimate   =     -33.74338294 Ry
     estimated scf accuracy    <       0.00000002 Ry

     iteration #  5     ecut=    60.00 Ry     beta=0.70
     Davidson diagonalization with overlap
     ethr =  2.15E-10,  avg # of iterations =  2.0

     total cpu time spent up to now is      211.4 secs

     End of self-consistent calculation

          k = 0.0000 0.0000 0.0000 ( 62669 PWs)   bands (ev):

   -25.1664 -12.6588  -9.1541  -7.0050  -0.9949   0.3944   0.7365   1.1042

     the Fermi energy is    -5.1233 ev

!    total energy              =     -33.74338287 Ry
     Harris-Foulkes estimate   =     -33.74338290 Ry
     estimated scf accuracy    <          9.5E-10 Ry

     convergence has been achieved in   5 iterations

     Forces acting on atoms (Ry/au):

     atom    1 type  2   force =    -0.00146146    0.01285776   -0.00086611
     atom    2 type  1   force =     0.00119067   -0.01778500    0.00551414
     atom    3 type  1   force =     0.00027079    0.00492724   -0.00464803

     Total force =     0.023713     Total SCF correction =     0.000130

     Entering Dynamics:    iteration =    14
                           time      =   0.0068 pico-seconds


     Andersen thermostat:    3 collisions

ATOMIC_POSITIONS (angstrom)
O       -0.002202717  -0.000886481   0.121083476
H       -0.025304767   0.796155714  -0.492236453
H        0.060199288  -0.782112458  -0.490712619


     kinetic energy (Ekin) =     0.00090233 Ry
     temperature           =    47.48882008 K 
     Ekin + Etot (const)   =   -33.74248054 Ry
     Message from routine dynamics:
     Total linear momentum <> 0

     Linear momentum :   -0.0900705872    0.0603140826   -0.0348443823

     Writing output data file pwscf.save

     second order wave-functions extrapolation
     Check: negative starting charge=   -0.071132
     second order charge density extrapolation
     Check: negative starting charge=   -0.071123

     negative rho (up, down):  1.039E-04 0.000E+00

     total cpu time spent up to now is      216.9 secs

     per-process dynamical memory:    48.3 Mb

     Self-consistent Calculation

     iteration #  1     ecut=    60.00 Ry     beta=0.70
     Davidson diagonalization with overlap
     ethr =  1.00E-06,  avg # of iterations =  2.0

     Threshold (ethr) on eigenvalues was too large:
     Diagonalizing with lowered threshold

     Davidson diagonalization with overlap
     ethr =  1.18E-08,  avg # of iterations =  3.0

     negative rho (up, down):  1.167E-05 0.000E+00

     total cpu time spent up to now is      219.7 secs

     total energy              =     -33.74322252 Ry
     Harris-Foulkes estimate   =     -33.74322451 Ry
     estimated scf accuracy    <       0.00000114 Ry

     iteration #  2     ecut=    60.00 Ry     beta=0.70
     Davidson diagonalization with overlap
     ethr =  1.43E-08,  avg # of iterations =  1.0

     negative rho (up, down):  7.675E-08 0.000E+00

     total cpu time spent up to now is      221.3 secs

     total energy              =     -33.74322220 Ry
     Harris-Foulkes estimate   =     -33.74322262 Ry
     estimated scf accuracy    <       0.00000012 Ry

     iteration #  3     ecut=    60.00 Ry     beta=0.70
     Davidson diagonalization with overlap
     ethr =  1.44E-09,  avg # of iterations =  2.0

     total cpu time spent up to now is      222.9 secs

     total energy              =     -33.74322221 Ry
     Harris-Foulkes estimate   =     -33.74322223 Ry
     estimated scf accuracy    <       0.00000003 Ry

     iteration #  4     ecut=    60.00 Ry     beta=0.70
     Davidson diagonalization with overlap
     ethr =  4.17E-10,  avg # of iterations =  2.0

     total cpu time spent up to now is      224.3 secs

     End of self-consistent calculation

          k = 0.0000 0.0000 0.0000 ( 62669 PWs)   bands (ev):

   -25.1385 -12.6480  -9.1397  -6.9997  -1.0023   0.3921   0.7304   1.1041

     the Fermi energy is    -5.1164 ev

!    total energy              =     -33.74322220 Ry
     Harris-Foulkes estimate   =     -33.74322222 Ry
     estimated scf accuracy    <          1.7E-09 Ry

     convergence has been achieved in   4 iterations

     Forces acting on atoms (Ry/au):

     atom    1 type  2   force =    -0.00144370    0.01339978   -0.00388915
     atom    2 type  1   force =     0.00133894   -0.02147921    0.00725167
     atom    3 type  1   force =     0.00010477    0.00807943   -0.00336251

     Total force =     0.028091     Total SCF correction =     0.000141

     Entering Dynamics:    iteration =    15
                           time      =   0.0073 pico-seconds


     Andersen thermostat:    3 collisions

ATOMIC_POSITIONS (angstrom)
O       -0.001462908  -0.001554828   0.120310394
H       -0.028675529   0.797288463  -0.487592017
H        0.051850306  -0.772657517  -0.483110212


     kinetic energy (Ekin) =     0.00488187 Ry
     temperature           =   256.92842664 K 
     Ekin + Etot (const)   =   -33.73834033 Ry
     Message from routine dynamics:
     Total linear momentum <> 0

     Linear momentum :    0.1532009830    0.0863626114   -0.0039855633

     Writing output data file pwscf.save

     second order wave-functions extrapolation
     Check: negative starting charge=   -0.071123
     second order charge density extrapolation
     Check: negative starting charge=   -0.071123

     negative rho (up, down):  9.858E-04 0.000E+00

     total cpu time spent up to now is      229.9 secs

     per-process dynamical memory:    48.3 Mb

     Self-consistent Calculation

     iteration #  1     ecut=    60.00 Ry     beta=0.70
     Davidson diagonalization with overlap
     ethr =  1.00E-06,  avg # of iterations =  5.0

     negative rho (up, down):  2.128E-04 0.000E+00

     total cpu time spent up to now is      232.1 secs

     total energy              =     -33.73896927 Ry
     Harris-Foulkes estimate   =     -33.73898529 Ry
     estimated scf accuracy    <       0.00007363 Ry

     iteration #  2     ecut=    60.00 Ry     beta=0.70
     Davidson diagonalization with overlap
     ethr =  9.20E-07,  avg # of iterations =  3.0

     negative rho (up, down):  1.054E-04 0.000E+00

     total cpu time spent up to now is      234.0 secs

     total energy              =     -33.73898001 Ry
     Harris-Foulkes estimate   =     -33.73900848 Ry
     estimated scf accuracy    <       0.00005405 Ry

     iteration #  3     ecut=    60.00 Ry     beta=0.70
     Davidson diagonalization with overlap
     ethr =  6.76E-07,  avg # of iterations =  2.0

     negative rho (up, down):  1.988E-06 0.000E+00

     total cpu time spent up to now is      235.7 secs

     total energy              =     -33.74306751 Ry
     Harris-Foulkes estimate   =     -33.74307041 Ry
     estimated scf accuracy    <       0.00000170 Ry

     iteration #  4     ecut=    60.00 Ry     beta=0.70
     Davidson diagonalization with overlap
     ethr =  2.13E-08,  avg # of iterations =  2.0

     negative rho (up, down):  4.528E-08 0.000E+00

     total cpu time spent up to now is      237.5 secs

     total energy              =     -33.74306773 Ry
     Harris-Foulkes estimate   =     -33.74306790 Ry
     estimated scf accuracy    <       0.00000002 Ry

     iteration #  5     ecut=    60.00 Ry     beta=0.70
     Davidson diagonalization with overlap
     ethr =  3.06E-10,  avg # of iterations =  3.0

     total cpu time spent up to now is      238.9 secs

     End of self-consistent calculation

          k = 0.0000 0.0000 0.0000 ( 62669 PWs)   bands (ev):

   -25.2148 -12.7322  -9.1338  -7.0122  -0.9794   0.3990   0.7477   1.1051

     the Fermi energy is    -5.1347 ev

!    total energy              =     -33.74306766 Ry
     Harris-Foulkes estimate   =     -33.74306774 Ry
     estimated scf accuracy    <          1.4E-09 Ry

     convergence has been achieved in   5 iterations

     Forces acting on atoms (Ry/au):

     atom    1 type  2   force =    -0.00271773    0.02893818    0.01140616
     atom    2 type  1   force =     0.00138924   -0.02023140    0.00562840
     atom    3 type  1   force =     0.00132849   -0.00870678   -0.01703456

     Total force =     0.042256     Total SCF correction =     0.000817

     Entering Dynamics:    iteration =    16
                           time      =   0.0077 pico-seconds


     Andersen thermostat:    3 collisions

ATOMIC_POSITIONS (angstrom)
O       -0.001205761  -0.001676445   0.120402227
H       -0.031465338   0.805687732  -0.484211192
H        0.050566507  -0.779130181  -0.487945814


     kinetic energy (Ekin) =     0.00341963 Ry
     temperature           =   179.97231765 K 
     Ekin + Etot (const)   =   -33.73964802 Ry
     Message from routine dynamics:
     Total linear momentum <> 0

     Linear momentum :   -0.0340185725   -0.2053346366    0.1466258731

     Writing output data file pwscf.save

     second order wave-functions extrapolation
     Check: negative starting charge=   -0.071123
     second order charge density extrapolation
     Check: negative starting charge=   -0.071106

     negative rho (up, down):  4.540E-04 0.000E+00

     total cpu time spent up to now is      244.5 secs

     per-process dynamical memory:    48.3 Mb

     Self-consistent Calculation

     iteration #  1     ecut=    60.00 Ry     beta=0.70
     Davidson diagonalization with overlap
     ethr =  1.00E-06,  avg # of iterations =  3.0

     negative rho (up, down):  8.404E-05 0.000E+00

     total cpu time spent up to now is      246.5 secs

     total energy              =     -33.73878984 Ry
     Harris-Foulkes estimate   =     -33.73881893 Ry
     estimated scf accuracy    <       0.00004831 Ry

     iteration #  2     ecut=    60.00 Ry     beta=0.70
     Davidson diagonalization with overlap
     ethr =  6.04E-07,  avg # of iterations =  3.0

     negative rho (up, down):  3.843E-05 0.000E+00

     total cpu time spent up to now is      248.3 secs

     total energy              =     -33.74287333 Ry
     Harris-Foulkes estimate   =     -33.74289529 Ry
     estimated scf accuracy    <       0.00003903 Ry

     iteration #  3     ecut=    60.00 Ry     beta=0.70
     Davidson diagonalization with overlap
     ethr =  4.88E-07,  avg # of iterations =  2.0

     negative rho (up, down):  5.314E-07 0.000E+00

     total cpu time spent up to now is      250.0 secs

     total energy              =     -33.74288118 Ry
     Harris-Foulkes estimate   =     -33.74288228 Ry
     estimated scf accuracy    <       0.00000087 Ry

     iteration #  4     ecut=    60.00 Ry     beta=0.70
     Davidson diagonalization with overlap
     ethr =  1.08E-08,  avg # of iterations =  2.0

     total cpu time spent up to now is      251.8 secs

     total energy              =     -33.74288131 Ry
     Harris-Foulkes estimate   =     -33.74288136 Ry
     estimated scf accuracy    <       0.00000001 Ry

     iteration #  5     ecut=    60.00 Ry     beta=0.70
     Davidson diagonalization with overlap
     ethr =  1.56E-10,  avg # of iterations =  2.0

     total cpu time spent up to now is      253.1 secs

     End of self-consistent calculation

          k = 0.0000 0.0000 0.0000 ( 62669 PWs)   bands (ev):

   -25.1406 -12.6956  -9.1019  -6.9982  -0.9986   0.3931   0.7317   1.1043

     the Fermi energy is    -5.1168 ev

!    total energy              =     -33.74288126 Ry
     Harris-Foulkes estimate   =     -33.74288131 Ry
     estimated scf accuracy    <          4.7E-10 Ry

     convergence has been achieved in   5 iterations

     Forces acting on atoms (Ry/au):

     atom    1 type  2   force =    -0.00201476    0.02396580    0.00191470
     atom    2 type  1   force =     0.00160172   -0.02697586    0.00831758
     atom    3 type  1   force =     0.00041304    0.00301006   -0.01023228

     Total force =     0.038671     Total SCF correction =     0.000239

     Entering Dynamics:    iteration =    17
                           time      =   0.0082 pico-seconds


     Andersen thermostat:    3 collisions

ATOMIC_POSITIONS (angstrom)
O       -0.000560643  -0.002148250   0.119978003
H       -0.026472647   0.802303894  -0.481201702
H        0.035354120  -0.768272216  -0.484234922


     kinetic energy (Ekin) =     0.00702902 Ry
     temperature           =   369.93119609 K 
     Ekin + Etot (const)   =   -33.73585224 Ry
     Message from routine dynamics:
     Total linear momentum <> 0

     Linear momentum :    0.1016076051    0.0518717872    0.0439745286

     Writing output data file pwscf.save

     second order wave-functions extrapolation
     Check: negative starting charge=   -0.071106
     second order charge density extrapolation
     Check: negative starting charge=   -0.071117

     negative rho (up, down):  3.651E-04 0.000E+00

     total cpu time spent up to now is      258.7 secs

     per-process dynamical memory:    48.3 Mb

     Self-consistent Calculation

     iteration #  1     ecut=    60.00 Ry     beta=0.70
     Davidson diagonalization with overlap
     ethr =  1.00E-06,  avg # of iterations =  3.0

     negative rho (up, down):  6.338E-05 0.000E+00

     total cpu time spent up to now is      260.7 secs

     total energy              =     -33.73875104 Ry
     Harris-Foulkes estimate   =     -33.73875426 Ry
     estimated scf accuracy    <       0.00001290 Ry

     iteration #  2     ecut=    60.00 Ry     beta=0.70
     Davidson diagonalization with overlap
     ethr =  1.61E-07,  avg # of iterations =  2.0

     negative rho (up, down):  1.532E-05 0.000E+00

     total cpu time spent up to now is      262.5 secs

     total energy              =     -33.74282853 Ry
     Harris-Foulkes estimate   =     -33.74283117 Ry
     estimated scf accuracy    <       0.00000400 Ry

     iteration #  3     ecut=    60.00 Ry     beta=0.70
     Davidson diagonalization with overlap
     ethr =  5.00E-08,  avg # of iterations =  2.0

     total cpu time spent up to now is      264.2 secs

     total energy              =     -33.74282965 Ry
     Harris-Foulkes estimate   =     -33.74283003 Ry
     estimated scf accuracy    <       0.00000128 Ry

     iteration #  4     ecut=    60.00 Ry     beta=0.70
     Davidson diagonalization with overlap
     ethr =  1.61E-08,  avg # of iterations =  2.0

     total cpu time spent up to now is      265.6 secs

     End of self-consistent calculation

          k = 0.0000 0.0000 0.0000 ( 62669 PWs)   bands (ev):

   -25.2319 -12.7620  -9.1236  -7.0147  -0.9742   0.4002   0.7511   1.1052

     the Fermi energy is    -5.1390 ev

!    total energy              =     -33.74282996 Ry
     Harris-Foulkes estimate   =     -33.74282989 Ry
     estimated scf accuracy    <          4.3E-09 Ry

     convergence has been achieved in   4 iterations

     Forces acting on atoms (Ry/au):

     atom    1 type  2   force =    -0.00187646    0.03462490    0.01581333
     atom    2 type  1   force =     0.00094644   -0.02114116    0.00578885
     atom    3 type  1   force =     0.00093001   -0.01348374   -0.02160218

     Total force =     0.050825     Total SCF correction =     0.000333

     Entering Dynamics:    iteration =    18
                           time      =   0.0087 pico-seconds


     Andersen thermostat:    3 collisions

ATOMIC_POSITIONS (angstrom)
O       -0.000579949  -0.000790840   0.120278364
H       -0.022345162   0.785813744  -0.485078462
H        0.031532474  -0.773285592  -0.485116355


     kinetic energy (Ekin) =     0.00638342 Ry
     temperature           =   335.95347692 K 
     Ekin + Etot (const)   =   -33.73644654 Ry
     Message from routine dynamics:
     Total linear momentum <> 0

     Linear momentum :   -0.0759993574   -0.1124531946    0.1847959006

     Writing output data file pwscf.save

     second order wave-functions extrapolation
     Check: negative starting charge=   -0.071117
     second order charge density extrapolation
     Check: negative starting charge=   -0.071140

     negative rho (up, down):  1.198E-03 0.000E+00

     total cpu time spent up to now is      285.4 secs

     per-process dynamical memory:    48.3 Mb

     Self-consistent Calculation

     iteration #  1     ecut=    60.00 Ry     beta=0.70
     Davidson diagonalization with overlap
     ethr =  1.00E-06,  avg # of iterations =  5.0

     negative rho (up, down):  2.680E-04 0.000E+00

     total cpu time spent up to now is      287.9 secs

     total energy              =     -33.73935215 Ry
     Harris-Foulkes estimate   =     -33.73928121 Ry
     estimated scf accuracy    <       0.00005578 Ry

     iteration #  2     ecut=    60.00 Ry     beta=0.70
     Davidson diagonalization with overlap
     ethr =  6.97E-07,  avg # of iterations =  4.0

     negative rho (up, down):  8.389E-05 0.000E+00

     total cpu time spent up to now is      289.9 secs

     total energy              =     -33.74343180 Ry
     Harris-Foulkes estimate   =     -33.74344264 Ry
     estimated scf accuracy    <       0.00001275 Ry

     iteration #  3     ecut=    60.00 Ry     beta=0.70
     Davidson diagonalization with overlap
     ethr =  1.59E-07,  avg # of iterations =  2.0

     negative rho (up, down):  5.281E-06 0.000E+00

     total cpu time spent up to now is      291.7 secs

     total energy              =     -33.74343405 Ry
     Harris-Foulkes estimate   =     -33.74343674 Ry
     estimated scf accuracy    <       0.00000402 Ry

     iteration #  4     ecut=    60.00 Ry     beta=0.70
     Davidson diagonalization with overlap
     ethr =  5.03E-08,  avg # of iterations =  2.0

     negative rho (up, down):  6.989E-08 0.000E+00

     total cpu time spent up to now is      293.4 secs

     total energy              =     -33.74343507 Ry
     Harris-Foulkes estimate   =     -33.74343501 Ry
     estimated scf accuracy    <       0.00000010 Ry

     iteration #  5     ecut=    60.00 Ry     beta=0.70
     Davidson diagonalization with overlap
     ethr =  1.30E-09,  avg # of iterations =  2.0

     total cpu time spent up to now is      294.8 secs

     End of self-consistent calculation

          k = 0.0000 0.0000 0.0000 ( 62669 PWs)   bands (ev):

   -25.2712 -12.7594  -9.1604  -7.0231  -0.9635   0.4047   0.7590   1.1055

     the Fermi energy is    -5.1486 ev

!    total energy              =     -33.74343503 Ry
     Harris-Foulkes estimate   =     -33.74343510 Ry
     estimated scf accuracy    <          2.0E-09 Ry

     convergence has been achieved in   5 iterations

     Forces acting on atoms (Ry/au):

     atom    1 type  2   force =    -0.00097488    0.01295095    0.01738740
     atom    2 type  1   force =     0.00038784   -0.00527306   -0.00328623
     atom    3 type  1   force =     0.00058704   -0.00767789   -0.01410117

     Total force =     0.027711     Total SCF correction =     0.000943

     Entering Dynamics:    iteration =    19
                           time      =   0.0092 pico-seconds


     Andersen thermostat:    3 collisions

ATOMIC_POSITIONS (angstrom)
O       -0.000332722   0.000187810   0.119665726
H       -0.028642596   0.785065504  -0.481314945
H        0.033913432  -0.788040706  -0.479174713


     kinetic energy (Ekin) =     0.00598849 Ry
     temperature           =   315.16865294 K 
     Ekin + Etot (const)   =   -33.73744654 Ry
     Message from routine dynamics:
     Total linear momentum <> 0

     Linear momentum :   -0.1916684132   -0.0623585041    0.0094630625

     Writing output data file pwscf.save

     second order wave-functions extrapolation
     Check: negative starting charge=   -0.071140
     second order charge density extrapolation
     Check: negative starting charge=   -0.071120

     negative rho (up, down):  1.066E-03 0.000E+00

     total cpu time spent up to now is      300.4 secs

     per-process dynamical memory:    48.3 Mb

     Self-consistent Calculation

     iteration #  1     ecut=    60.00 Ry     beta=0.70
     Davidson diagonalization with overlap
     c_bands:  1 eigenvalues not converged
     ethr =  1.00E-06,  avg # of iterations = 20.0

     negative rho (up, down):  2.336E-04 0.000E+00

     total cpu time spent up to now is      303.7 secs

     total energy              =     -33.73924791 Ry
     Harris-Foulkes estimate   =     -33.73921253 Ry
     estimated scf accuracy    <       0.00002288 Ry

     iteration #  2     ecut=    60.00 Ry     beta=0.70
     Davidson diagonalization with overlap
     ethr =  2.86E-07,  avg # of iterations =  4.0

     negative rho (up, down):  1.016E-04 0.000E+00

     total cpu time spent up to now is      305.8 secs

     total energy              =     -33.73924814 Ry
     Harris-Foulkes estimate   =     -33.73925674 Ry
     estimated scf accuracy    <       0.00001157 Ry

     iteration #  3     ecut=    60.00 Ry     beta=0.70
     Davidson diagonalization with overlap
     ethr =  1.45E-07,  avg # of iterations =  2.0

     negative rho (up, down):  3.102E-07 0.000E+00

     total cpu time spent up to now is      307.5 secs

     total energy              =     -33.74332582 Ry
     Harris-Foulkes estimate   =     -33.74332895 Ry
     estimated scf accuracy    <       0.00000125 Ry

     iteration #  4     ecut=    60.00 Ry     beta=0.70
     Davidson diagonalization with overlap
     ethr =  1.56E-08,  avg # of iterations =  2.0

     total cpu time spent up to now is      309.3 secs

     total energy              =     -33.74332572 Ry
     Harris-Foulkes estimate   =     -33.74332609 Ry
     estimated scf accuracy    <       0.00000001 Ry

     iteration #  5     ecut=    60.00 Ry     beta=0.70
     Davidson diagonalization with overlap
     ethr =  1.25E-10,  avg # of iterations =  3.0

     total cpu time spent up to now is      310.8 secs

     End of self-consistent calculation

          k = 0.0000 0.0000 0.0000 ( 62669 PWs)   bands (ev):

   -25.2299 -12.7861  -9.1060  -7.0141  -0.9691   0.4031   0.7515   1.1112

     the Fermi energy is    -5.1339 ev

!    total energy              =     -33.74332566 Ry
     Harris-Foulkes estimate   =     -33.74332573 Ry
     estimated scf accuracy    <          6.1E-10 Ry

     convergence has been achieved in   5 iterations

     Forces acting on atoms (Ry/au):

     atom    1 type  2   force =    -0.00025778   -0.00194456    0.01714073
     atom    2 type  1   force =     0.00030617   -0.00346635   -0.00931851
     atom    3 type  1   force =    -0.00004839    0.00541091   -0.00782223

     Total force =     0.022070     Total SCF correction =     0.000284

     Entering Dynamics:    iteration =    20
                           time      =   0.0097 pico-seconds


     Andersen thermostat:    3 collisions

ATOMIC_POSITIONS (angstrom)
O       -0.001373057   0.000713345   0.120246524
H       -0.032468378   0.779938859  -0.481970594
H        0.054219778  -0.791239377  -0.487719820


     kinetic energy (Ekin) =     0.00963854 Ry
     temperature           =   507.26782725 K 
     Ekin + Etot (const)   =   -33.73368712 Ry
     Message from routine dynamics:
     Total linear momentum <> 0

     Linear momentum :   -0.1647614620   -0.0905864020   -0.0338516883

     Writing output data file pwscf.save

     second order wave-functions extrapolation
     Check: negative starting charge=   -0.071120
     second order charge density extrapolation
     Check: negative starting charge=   -0.071126

     negative rho (up, down):  1.309E-03 0.000E+00

     total cpu time spent up to now is      316.4 secs

     per-process dynamical memory:    48.3 Mb

     Self-consistent Calculation

     iteration #  1     ecut=    60.00 Ry     beta=0.70
     Davidson diagonalization with overlap
     ethr =  1.00E-06,  avg # of iterations = 12.0

     negative rho (up, down):  2.948E-04 0.000E+00

     total cpu time spent up to now is      319.3 secs

     total energy              =     -33.73920565 Ry
     Harris-Foulkes estimate   =     -33.73910437 Ry
     estimated scf accuracy    <       0.00005504 Ry

     iteration #  2     ecut=    60.00 Ry     beta=0.70
     Davidson diagonalization with overlap
     ethr =  6.88E-07,  avg # of iterations =  7.0

     negative rho (up, down):  1.137E-04 0.000E+00

     total cpu time spent up to now is      321.6 secs

     total energy              =     -33.74328579 Ry
     Harris-Foulkes estimate   =     -33.74329785 Ry
     estimated scf accuracy    <       0.00002011 Ry

     iteration #  3     ecut=    60.00 Ry     beta=0.70
     Davidson diagonalization with overlap
     ethr =  2.51E-07,  avg # of iterations =  2.0

     negative rho (up, down):  3.174E-07 0.000E+00

     total cpu time spent up to now is      323.3 secs

     total energy              =     -33.74328964 Ry
     Harris-Foulkes estimate   =     -33.74329271 Ry
     estimated scf accuracy    <       0.00000437 Ry

     iteration #  4     ecut=    60.00 Ry     beta=0.70
     Davidson diagonalization with overlap
     ethr =  5.46E-08,  avg # of iterations =  9.0

     total cpu time spent up to now is      325.5 secs

     total energy              =     -33.74329054 Ry
     Harris-Foulkes estimate   =     -33.74329054 Ry
     estimated scf accuracy    <       0.00000003 Ry

     iteration #  5     ecut=    60.00 Ry     beta=0.70
     Davidson diagonalization with overlap
     ethr =  3.29E-10,  avg # of iterations =  2.0

     total cpu time spent up to now is      326.9 secs

     End of self-consistent calculation

          k = 0.0000 0.0000 0.0000 ( 62669 PWs)   bands (ev):

   -25.2088 -12.7357  -9.1277  -7.0112  -0.9789   0.3995   0.7465   1.1089

     the Fermi energy is    -5.1304 ev

!    total energy              =     -33.74329046 Ry
     Harris-Foulkes estimate   =     -33.74329056 Ry
     estimated scf accuracy    <          1.6E-09 Ry

     convergence has been achieved in   5 iterations

     Forces acting on atoms (Ry/au):

[...]

          k = 0.0000 0.0000 0.0000 ( 62669 PWs)   bands (ev):

   -25.4164 -12.7536  -9.2733  -7.0508  -0.9423   0.4089   0.7845   1.1073

     the Fermi energy is    -5.1835 ev

!    total energy              =     -33.74180861 Ry
     Harris-Foulkes estimate   =     -33.74180866 Ry
     estimated scf accuracy    <          2.8E-09 Ry

     convergence has been achieved in   5 iterations

     Forces acting on atoms (Ry/au):

     atom    1 type  2   force =     0.00008327   -0.05508926    0.03013539
     atom    2 type  1   force =     0.00006672    0.04931587   -0.03644205
     atom    3 type  1   force =    -0.00014999    0.00577340    0.00630666

     Total force =     0.088183     Total SCF correction =     0.000887

     Entering Dynamics:    iteration =    64
                           time      =   0.0310 pico-seconds


     Andersen thermostat:    3 collisions

ATOMIC_POSITIONS (angstrom)
O       -0.007140973   0.000810486   0.121106935
H       -0.009669839   0.756368727  -0.467147811
H        0.122794160  -0.769208108  -0.516172885


     kinetic energy (Ekin) =     0.00658580 Ry
     temperature           =   346.60480578 K 
     Ekin + Etot (const)   =   -33.73522281 Ry
     Message from routine dynamics:
     Total linear momentum <> 0

     Linear momentum :    0.0367266213    0.1782205335   -0.0870436552

     Writing output data file pwscf.save

     second order wave-functions extrapolation
     Check: negative starting charge=   -0.071167
     second order charge density extrapolation
     Check: negative starting charge=   -0.071152

     negative rho (up, down):  1.080E-03 0.000E+00

     total cpu time spent up to now is      902.2 secs

     per-process dynamical memory:    48.3 Mb

     Self-consistent Calculation

     iteration #  1     ecut=    60.00 Ry     beta=0.70
     Davidson diagonalization with overlap
     ethr =  1.00E-06,  avg # of iterations =  7.0

     negative rho (up, down):  2.367E-04 0.000E+00

     total cpu time spent up to now is      904.4 secs

     total energy              =     -33.73739706 Ry
     Harris-Foulkes estimate   =     -33.73737133 Ry
     estimated scf accuracy    <       0.00004409 Ry

     iteration #  2     ecut=    60.00 Ry     beta=0.70
     Davidson diagonalization with overlap
     ethr =  5.51E-07,  avg # of iterations =  4.0

     negative rho (up, down):  1.090E-04 0.000E+00

     total cpu time spent up to now is      906.3 secs

     total energy              =     -33.73740150 Ry
     Harris-Foulkes estimate   =     -33.73741634 Ry
     estimated scf accuracy    <       0.00002456 Ry

     iteration #  3     ecut=    60.00 Ry     beta=0.70
     Davidson diagonalization with overlap
     ethr =  3.07E-07,  avg # of iterations =  2.0

     negative rho (up, down):  2.395E-06 0.000E+00

     total cpu time spent up to now is      907.9 secs

     total energy              =     -33.74148287 Ry
     Harris-Foulkes estimate   =     -33.74148560 Ry
     estimated scf accuracy    <       0.00000170 Ry

     iteration #  4     ecut=    60.00 Ry     beta=0.70
     Davidson diagonalization with overlap
     ethr =  2.13E-08,  avg # of iterations =  2.0

     negative rho (up, down):  1.404E-08 0.000E+00

     total cpu time spent up to now is      909.4 secs

     total energy              =     -33.74148320 Ry
     Harris-Foulkes estimate   =     -33.74148325 Ry
     estimated scf accuracy    <       0.00000002 Ry

     iteration #  5     ecut=    60.00 Ry     beta=0.70
     Davidson diagonalization with overlap
     ethr =  2.57E-10,  avg # of iterations =  2.0

     total cpu time spent up to now is      910.7 secs

     End of self-consistent calculation

          k = 0.0000 0.0000 0.0000 ( 62669 PWs)   bands (ev):

   -25.3662 -12.7065  -9.2667  -7.0417  -0.9597   0.4018   0.7747   1.1062

     the Fermi energy is    -5.1717 ev

!    total energy              =     -33.74148321 Ry
     Harris-Foulkes estimate   =     -33.74148321 Ry
     estimated scf accuracy    <          1.2E-09 Ry

     convergence has been achieved in   5 iterations

     Forces acting on atoms (Ry/au):

     atom    1 type  2   force =     0.00228851   -0.06670117    0.02163028
     atom    2 type  1   force =     0.00021136    0.04917580   -0.03708377
     atom    3 type  1   force =    -0.00249987    0.01752537    0.01545349

     Total force =     0.096270     Total SCF correction =     0.000556

     Entering Dynamics:    iteration =    65
                           time      =   0.0314 pico-seconds


     Andersen thermostat:    3 collisions

ATOMIC_POSITIONS (angstrom)
O       -0.007914943   0.001254058   0.121450362
H        0.011781075   0.762615388  -0.475552564
H        0.113604161  -0.782481645  -0.513208562


     kinetic energy (Ekin) =     0.01380881 Ry
     temperature           =   726.74523198 K 
     Ekin + Etot (const)   =   -33.72767440 Ry
     Message from routine dynamics:
     Total linear momentum <> 0

     Linear momentum :    0.0420285331    0.0898461344    0.0204672100

     Writing output data file pwscf.save

     second order wave-functions extrapolation
     Check: negative starting charge=   -0.071152
     second order charge density extrapolation
     Check: negative starting charge=   -0.071134

     negative rho (up, down):  8.569E-04 0.000E+00

     total cpu time spent up to now is      916.0 secs

     per-process dynamical memory:    48.3 Mb

     Self-consistent Calculation

     iteration #  1     ecut=    60.00 Ry     beta=0.70
     Davidson diagonalization with overlap
     ethr =  1.00E-06,  avg # of iterations =  4.0

     negative rho (up, down):  1.810E-04 0.000E+00

     total cpu time spent up to now is      917.9 secs

     total energy              =     -33.73786911 Ry
     Harris-Foulkes estimate   =     -33.73800409 Ry
     estimated scf accuracy    <       0.00027815 Ry

     iteration #  2     ecut=    60.00 Ry     beta=0.70
     Davidson diagonalization with overlap
     ethr =  3.48E-06,  avg # of iterations =  3.0

     negative rho (up, down):  9.189E-05 0.000E+00

     total cpu time spent up to now is      919.7 secs

     total energy              =     -33.74199032 Ry
     Harris-Foulkes estimate   =     -33.74210979 Ry
     estimated scf accuracy    <       0.00023416 Ry

     iteration #  3     ecut=    60.00 Ry     beta=0.70
     Davidson diagonalization with overlap
     ethr =  2.93E-06,  avg # of iterations =  2.0

     negative rho (up, down):  9.003E-07 0.000E+00

     total cpu time spent up to now is      921.2 secs

     total energy              =     -33.74204065 Ry
     Harris-Foulkes estimate   =     -33.74204253 Ry
     estimated scf accuracy    <       0.00000447 Ry

     iteration #  4     ecut=    60.00 Ry     beta=0.70
     Davidson diagonalization with overlap
     ethr =  5.59E-08,  avg # of iterations =  2.0

     total cpu time spent up to now is      922.8 secs

     total energy              =     -33.74204153 Ry
     Harris-Foulkes estimate   =     -33.74204153 Ry
     estimated scf accuracy    <       0.00000006 Ry

     iteration #  5     ecut=    60.00 Ry     beta=0.70
     Davidson diagonalization with overlap
     ethr =  7.13E-10,  avg # of iterations =  2.0

     total cpu time spent up to now is      924.0 secs

     End of self-consistent calculation

          k = 0.0000 0.0000 0.0000 ( 62669 PWs)   bands (ev):

   -25.2645 -12.6390  -9.2403  -7.0238  -0.9852   0.3939   0.7551   1.1046

     the Fermi energy is    -5.1475 ev

!    total energy              =     -33.74204155 Ry
     Harris-Foulkes estimate   =     -33.74204154 Ry
     estimated scf accuracy    <          2.8E-09 Ry

     convergence has been achieved in   5 iterations

     Forces acting on atoms (Ry/au):

     atom    1 type  2   force =     0.00192905   -0.05916805    0.00553360
     atom    2 type  1   force =     0.00151041    0.03226814   -0.02631073
     atom    3 type  1   force =    -0.00343946    0.02689991    0.02077713

     Total force =     0.080238     Total SCF correction =     0.000505

     Entering Dynamics:    iteration =    66
                           time      =   0.0319 pico-seconds


     Andersen thermostat:    3 collisions

ATOMIC_POSITIONS (angstrom)
O       -0.007140843   0.000748354   0.122153130
H        0.000760699   0.760583923  -0.488463893
H        0.112361568  -0.772439034  -0.511430180


     kinetic energy (Ekin) =     0.00642956 Ry
     temperature           =   338.38217672 K 
     Ekin + Etot (const)   =   -33.73561199 Ry
     Message from routine dynamics:
     Total linear momentum <> 0

     Linear momentum :   -0.0126230704   -0.0431899556    0.0593438293

     Writing output data file pwscf.save

     second order wave-functions extrapolation
     Check: negative starting charge=   -0.071134
     second order charge density extrapolation
     Check: negative starting charge=   -0.071170

     negative rho (up, down):  8.892E-04 0.000E+00

     total cpu time spent up to now is      929.3 secs

     per-process dynamical memory:    48.3 Mb

     Self-consistent Calculation

     iteration #  1     ecut=    60.00 Ry     beta=0.70
     Davidson diagonalization with overlap
     c_bands:  1 eigenvalues not converged
     ethr =  1.00E-06,  avg # of iterations = 20.0

     negative rho (up, down):  1.897E-04 0.000E+00

     total cpu time spent up to now is      932.3 secs

     total energy              =     -33.73887319 Ry
     Harris-Foulkes estimate   =     -33.73887656 Ry
     estimated scf accuracy    <       0.00006432 Ry

     iteration #  2     ecut=    60.00 Ry     beta=0.70
     Davidson diagonalization with overlap
     ethr =  8.04E-07,  avg # of iterations =  5.0

     negative rho (up, down):  8.472E-05 0.000E+00

     total cpu time spent up to now is      934.2 secs

     total energy              =     -33.74295481 Ry
     Harris-Foulkes estimate   =     -33.74297647 Ry
     estimated scf accuracy    <       0.00003567 Ry

     iteration #  3     ecut=    60.00 Ry     beta=0.70
     Davidson diagonalization with overlap
     ethr =  4.46E-07,  avg # of iterations =  2.0

     negative rho (up, down):  8.372E-07 0.000E+00

     total cpu time spent up to now is      935.8 secs

     total energy              =     -33.74296211 Ry
     Harris-Foulkes estimate   =     -33.74296461 Ry
     estimated scf accuracy    <       0.00000291 Ry

     iteration #  4     ecut=    60.00 Ry     beta=0.70
     Davidson diagonalization with overlap
     ethr =  3.63E-08,  avg # of iterations =  2.0

     negative rho (up, down):  1.337E-08 0.000E+00

     total cpu time spent up to now is      937.4 secs

     total energy              =     -33.74296274 Ry
     Harris-Foulkes estimate   =     -33.74296271 Ry
     estimated scf accuracy    <       0.00000003 Ry

     iteration #  5     ecut=    60.00 Ry     beta=0.70
     Davidson diagonalization with overlap
     ethr =  4.00E-10,  avg # of iterations =  2.0

     total cpu time spent up to now is      938.7 secs

     End of self-consistent calculation

          k = 0.0000 0.0000 0.0000 ( 62669 PWs)   bands (ev):

   -25.2835 -12.6029  -9.2885  -7.0295  -0.9800   0.3971   0.7589   1.1083

     the Fermi energy is    -5.1495 ev

!    total energy              =     -33.74296279 Ry
     Harris-Foulkes estimate   =     -33.74296276 Ry
     estimated scf accuracy    <          1.8E-09 Ry

     convergence has been achieved in   5 iterations

     Forces acting on atoms (Ry/au):

     atom    1 type  2   force =     0.00133932   -0.03909209    0.00206644
     atom    2 type  1   force =     0.00057105    0.02439155   -0.01682613
     atom    3 type  1   force =    -0.00191036    0.01470054    0.01475969

     Total force =     0.053388     Total SCF correction =     0.000614

     Entering Dynamics:    iteration =    67
                           time      =   0.0324 pico-seconds


     Andersen thermostat:    3 collisions

ATOMIC_POSITIONS (angstrom)
O       -0.007109880   0.000715379   0.122056447
H        0.005504071   0.767266087  -0.494270836
H        0.107127694  -0.778598830  -0.504091632


     kinetic energy (Ekin) =     0.00499228 Ry
     temperature           =   262.73928638 K 
     Ekin + Etot (const)   =   -33.73797051 Ry
     Message from routine dynamics:
     Total linear momentum <> 0

     Linear momentum :   -0.2878609621   -0.2047173446   -0.0949551472

     Writing output data file pwscf.save

     second order wave-functions extrapolation
     Check: negative starting charge=   -0.071170
     second order charge density extrapolation
     Check: negative starting charge=   -0.071161

     negative rho (up, down):  4.068E-04 0.000E+00

     total cpu time spent up to now is      943.9 secs

     per-process dynamical memory:    48.3 Mb

     Self-consistent Calculation

     iteration #  1     ecut=    60.00 Ry     beta=0.70
     Davidson diagonalization with overlap
     ethr =  1.00E-06,  avg # of iterations = 10.0

     Threshold (ethr) on eigenvalues was too large:
     Diagonalizing with lowered threshold

     Davidson diagonalization with overlap
     ethr =  7.32E-08,  avg # of iterations =  2.0

     negative rho (up, down):  7.277E-05 0.000E+00

     total cpu time spent up to now is      946.8 secs

     total energy              =     -33.73929118 Ry
     Harris-Foulkes estimate   =     -33.73929655 Ry
     estimated scf accuracy    <       0.00000603 Ry

     iteration #  2     ecut=    60.00 Ry     beta=0.70
     Davidson diagonalization with overlap
     ethr =  7.54E-08,  avg # of iterations =  2.0

     negative rho (up, down):  6.075E-06 0.000E+00

     total cpu time spent up to now is      948.3 secs

     total energy              =     -33.74336786 Ry
     Harris-Foulkes estimate   =     -33.74336951 Ry
     estimated scf accuracy    <       0.00000075 Ry

     iteration #  3     ecut=    60.00 Ry     beta=0.70
     Davidson diagonalization with overlap
     ethr =  9.36E-09,  avg # of iterations =  9.0

     negative rho (up, down):  1.269E-07 0.000E+00

     total cpu time spent up to now is      950.3 secs

     total energy              =     -33.74336747 Ry
     Harris-Foulkes estimate   =     -33.74336817 Ry
     estimated scf accuracy    <       0.00000041 Ry

     iteration #  4     ecut=    60.00 Ry     beta=0.70
     Davidson diagonalization with overlap
     ethr =  5.11E-09,  avg # of iterations =  2.0

     total cpu time spent up to now is      951.9 secs

     total energy              =     -33.74336756 Ry
     Harris-Foulkes estimate   =     -33.74336757 Ry
     estimated scf accuracy    <       0.00000001 Ry

     iteration #  5     ecut=    60.00 Ry     beta=0.70
     Davidson diagonalization with overlap
     ethr =  1.78E-10,  avg # of iterations =  2.0

     total cpu time spent up to now is      953.2 secs

     End of self-consistent calculation

          k = 0.0000 0.0000 0.0000 ( 62669 PWs)   bands (ev):

   -25.2285 -12.5911  -9.2562  -7.0194  -0.9900   0.3947   0.7480   1.1064

     the Fermi energy is    -5.1372 ev

!    total energy              =     -33.74336753 Ry
     Harris-Foulkes estimate   =     -33.74336756 Ry
     estimated scf accuracy    <          2.1E-10 Ry

     convergence has been achieved in   5 iterations

     Forces acting on atoms (Ry/au):

     atom    1 type  2   force =     0.00096485   -0.02680138   -0.00365886
     atom    2 type  1   force =     0.00075136    0.01098004   -0.00893568
     atom    3 type  1   force =    -0.00171621    0.01582134    0.01259454

     Total force =     0.036681     Total SCF correction =     0.000236

     Entering Dynamics:    iteration =    68
                           time      =   0.0329 pico-seconds


     Andersen thermostat:    3 collisions

ATOMIC_POSITIONS (angstrom)
O       -0.007719358   0.001090675   0.123046536
H        0.012960504   0.758949490  -0.505995776
H        0.109326351  -0.776227505  -0.508051271


     kinetic energy (Ekin) =     0.00535307 Ry
     temperature           =   281.72721233 K 
     Ekin + Etot (const)   =   -33.73801447 Ry
     Message from routine dynamics:
     Total linear momentum <> 0

     Linear momentum :   -0.0313687283   -0.1051313447   -0.0691405116

     Writing output data file pwscf.save

     second order wave-functions extrapolation
     Check: negative starting charge=   -0.071161
     second order charge density extrapolation
     Check: negative starting charge=   -0.071182

     negative rho (up, down):  1.173E-03 0.000E+00

     total cpu time spent up to now is      958.5 secs

     per-process dynamical memory:    48.3 Mb

     Self-consistent Calculation

     iteration #  1     ecut=    60.00 Ry     beta=0.70
     Davidson diagonalization with overlap
     c_bands:  1 eigenvalues not converged
     ethr =  1.00E-06,  avg # of iterations = 20.0

     negative rho (up, down):  2.604E-04 0.000E+00

     total cpu time spent up to now is      961.5 secs

     total energy              =     -33.73916832 Ry
     Harris-Foulkes estimate   =     -33.73911421 Ry
     estimated scf accuracy    <       0.00002866 Ry

     iteration #  2     ecut=    60.00 Ry     beta=0.70
     Davidson diagonalization with overlap
     ethr =  3.58E-07,  avg # of iterations =  7.0

     negative rho (up, down):  1.178E-04 0.000E+00

     total cpu time spent up to now is      963.6 secs

     total energy              =     -33.74324584 Ry
     Harris-Foulkes estimate   =     -33.74325685 Ry
     estimated scf accuracy    <       0.00001535 Ry

     iteration #  3     ecut=    60.00 Ry     beta=0.70
     Davidson diagonalization with overlap
     ethr =  1.92E-07,  avg # of iterations =  2.0

     negative rho (up, down):  1.414E-07 0.000E+00

     total cpu time spent up to now is      965.2 secs

     total energy              =     -33.74324734 Ry
     Harris-Foulkes estimate   =     -33.74325025 Ry
     estimated scf accuracy    <       0.00000165 Ry

     iteration #  4     ecut=    60.00 Ry     beta=0.70
     Davidson diagonalization with overlap
     ethr =  2.06E-08,  avg # of iterations = 18.0

     total cpu time spent up to now is      967.6 secs

     total energy              =     -33.74324766 Ry
     Harris-Foulkes estimate   =     -33.74324774 Ry
     estimated scf accuracy    <       0.00000001 Ry

     iteration #  5     ecut=    60.00 Ry     beta=0.70
     Davidson diagonalization with overlap
     ethr =  1.46E-10,  avg # of iterations =  3.0

     total cpu time spent up to now is      968.9 secs

     End of self-consistent calculation

          k = 0.0000 0.0000 0.0000 ( 62669 PWs)   bands (ev):

   -25.2318 -12.5166  -9.3170  -7.0223  -0.9973   0.3919   0.7474   1.1028

     the Fermi energy is    -5.1407 ev

!    total energy              =     -33.74324763 Ry
     Harris-Foulkes estimate   =     -33.74324767 Ry
     estimated scf accuracy    <          7.6E-10 Ry

     convergence has been achieved in   5 iterations

     Forces acting on atoms (Ry/au):

     atom    1 type  2   force =     0.00205351   -0.02687479   -0.01096609
     atom    2 type  1   force =     0.00021000    0.01233240   -0.00544511
     atom    3 type  1   force =    -0.00226351    0.01454239    0.01641120

     Total force =     0.038916     Total SCF correction =     0.000258

     Entering Dynamics:    iteration =    69
                           time      =   0.0334 pico-seconds


     Andersen thermostat:    3 collisions

ATOMIC_POSITIONS (angstrom)
O       -0.008445783   0.000802950   0.122333495
H        0.010182930   0.771266065  -0.497882807
H        0.123611652  -0.783986065  -0.504868542


     kinetic energy (Ekin) =     0.00871318 Ry
     temperature           =   458.56705269 K 
     Ekin + Etot (const)   =   -33.73453445 Ry
     Message from routine dynamics:
     Total linear momentum <> 0

     Linear momentum :    0.0138451190   -0.1330936062    0.0262428432

     Writing output data file pwscf.save
