
     Program PWSCF v.6.0 (svn rev. 13079) starts on 12Apr2018 at 18:56:33 

     This program is part of the open-source Quantum ESPRESSO suite
     for quantum simulation of materials; please cite
         "P. Giannozzi et al., J. Phys.:Condens. Matter 21 395502 (2009);
          URL http://www.quantum-espresso.org", 
     in publications or presentations arising from this work. More details at
     http://www.quantum-espresso.org/quote

     Parallel version (MPI), running on    10 processors
     R & G space division:  proc/nbgrp/npool/nimage =      10
     Reading input from H2O-1000xv2.in

     Current dimensions of program PWSCF are:
     Max number of different atomic species (ntypx) = 10
     Max number of k-points (npk) =  40000
     Max angular momentum in pseudopotentials (lmaxx) =  3

     Subspace diagonalization in iterative solution of the eigenvalue problem:
     a serial algorithm will be used

 
     Parallelization info
     --------------------
     sticks:   dense  smooth     PW     G-vecs:    dense   smooth      PW
     Min         764     764    190                50246    50246    6266
     Max         765     765    191                50251    50251    6269
     Sum        7645    7645   1901               502479   502479   62669
 


     bravais-lattice index     =            1
     lattice parameter (alat)  =      20.0000  a.u.
     unit-cell volume          =    8000.0000 (a.u.)^3
     number of atoms/cell      =            3
     number of atomic types    =            2
     number of electrons       =         8.00
     number of Kohn-Sham states=            8
     kinetic-energy cutoff     =      60.0000  Ry
     charge density cutoff     =     240.0000  Ry
     convergence threshold     =      1.0E-08
     mixing beta               =       0.7000
     number of iterations used =            8  plain     mixing
     Exchange-correlation      = BLYP ( 1  3  1  3 0 0)
     nstep                     =          100


     celldm(1)=  20.000000  celldm(2)=   0.000000  celldm(3)=   0.000000
     celldm(4)=   0.000000  celldm(5)=   0.000000  celldm(6)=   0.000000

     crystal axes: (cart. coord. in units of alat)
               a(1) = (   1.000000   0.000000   0.000000 )  
               a(2) = (   0.000000   1.000000   0.000000 )  
               a(3) = (   0.000000   0.000000   1.000000 )  

     reciprocal axes: (cart. coord. in units 2 pi/alat)
               b(1) = (  1.000000  0.000000  0.000000 )  
               b(2) = (  0.000000  1.000000  0.000000 )  
               b(3) = (  0.000000  0.000000  1.000000 )  


     PseudoPot. # 1 for  H read from file:
     ./H.blyp-hgh.UPF
     MD5 check sum: c576e69559cde411e611be972c763230
     Pseudo is Norm-conserving, Zval =  1.0
     Generated in analytical, separable form
     Using radial grid of  929 points,  0 beta functions with: 

     PseudoPot. # 2 for  O read from file:
     ./O.blyp-hgh.UPF
     MD5 check sum: d0b7156309aa9befef28faac7bc56342
     Pseudo is Norm-conserving, Zval =  6.0
     Generated in analytical, separable form
     Using radial grid of 1095 points,  1 beta functions with: 
                l(1) =   0

     atomic species   valence    mass     pseudopotential
        H              1.00     1.01000      H( 1.00)
        O              6.00    16.00000      O( 1.00)

     No symmetry found



   Cartesian axes

     site n.     atom                  positions (alat units)
         1           O   tau(   1) = (   0.0000000   0.0000000   0.0112686  )
         2           H   tau(   2) = (   0.0000000   0.0721156  -0.0450744  )
         3           H   tau(   3) = (   0.0000000  -0.0721156  -0.0450744  )

     number of k points=     1  Marzari-Vanderbilt smearing, width (Ry)=  0.0250
                       cart. coord. in units 2pi/alat
        k(    1) = (   0.0000000   0.0000000   0.0000000), wk =   2.0000000

     Dense  grid:   502479 G-vectors     FFT dimensions: ( 100, 100, 100)

     Estimated max dynamical RAM per process >      19.45Mb

     Estimated total allocated dynamical RAM >     194.52Mb

     Initial potential from superposition of free atoms
     Check: negative starting charge=   -0.071145

     starting charge    7.99998, renormalised to    8.00000

     negative rho (up, down):  7.115E-02 0.000E+00
     Starting wfc are    6 randomized atomic wfcs +    2 random wfc

     total cpu time spent up to now is        4.1 secs

     per-process dynamical memory:    45.0 Mb

     Self-consistent Calculation

     iteration #  1     ecut=    60.00 Ry     beta=0.70
     Davidson diagonalization with overlap
     ethr =  1.00E-02,  avg # of iterations =  7.0

     negative rho (up, down):  2.060E-02 0.000E+00

     total cpu time spent up to now is        6.8 secs

     total energy              =     -33.66076519 Ry
     Harris-Foulkes estimate   =     -33.73036976 Ry
     estimated scf accuracy    <       0.20754623 Ry

     iteration #  2     ecut=    60.00 Ry     beta=0.70
     Davidson diagonalization with overlap
     ethr =  2.59E-03,  avg # of iterations =  2.0

     negative rho (up, down):  1.166E-02 0.000E+00

     total cpu time spent up to now is        8.6 secs

     total energy              =     -33.69147204 Ry
     Harris-Foulkes estimate   =     -33.75074173 Ry
     estimated scf accuracy    <       0.13695704 Ry

     iteration #  3     ecut=    60.00 Ry     beta=0.70
     Davidson diagonalization with overlap
     ethr =  1.71E-03,  avg # of iterations =  2.0

     negative rho (up, down):  2.455E-04 0.000E+00

     total cpu time spent up to now is       10.3 secs

     total energy              =     -33.73646437 Ry
     Harris-Foulkes estimate   =     -33.72661054 Ry
     estimated scf accuracy    <       0.00675669 Ry

     iteration #  4     ecut=    60.00 Ry     beta=0.70
     Davidson diagonalization with overlap
     ethr =  8.45E-05,  avg # of iterations =  6.0

     negative rho (up, down):  2.465E-04 0.000E+00

     total cpu time spent up to now is       12.9 secs

     total energy              =     -33.73796929 Ry
     Harris-Foulkes estimate   =     -33.73799197 Ry
     estimated scf accuracy    <       0.00005600 Ry

     iteration #  5     ecut=    60.00 Ry     beta=0.70
     Davidson diagonalization with overlap
     ethr =  7.00E-07,  avg # of iterations = 17.0

     negative rho (up, down):  1.604E-05 0.000E+00

     total cpu time spent up to now is       15.8 secs

     total energy              =     -33.73797921 Ry
     Harris-Foulkes estimate   =     -33.73798358 Ry
     estimated scf accuracy    <       0.00000514 Ry

     iteration #  6     ecut=    60.00 Ry     beta=0.70
     Davidson diagonalization with overlap
     ethr =  6.43E-08,  avg # of iterations =  2.0

     total cpu time spent up to now is       17.5 secs

     total energy              =     -33.74205622 Ry
     Harris-Foulkes estimate   =     -33.74205727 Ry
     estimated scf accuracy    <       0.00000018 Ry

     iteration #  7     ecut=    60.00 Ry     beta=0.70
     Davidson diagonalization with overlap
     ethr =  2.28E-09,  avg # of iterations =  3.0

     total cpu time spent up to now is       19.3 secs

     total energy              =     -33.74205620 Ry
     Harris-Foulkes estimate   =     -33.74205629 Ry
     estimated scf accuracy    <       0.00000003 Ry

     iteration #  8     ecut=    60.00 Ry     beta=0.70
     Davidson diagonalization with overlap
     ethr =  4.34E-10,  avg # of iterations =  2.0

     total cpu time spent up to now is       20.8 secs

     End of self-consistent calculation

          k = 0.0000 0.0000 0.0000 ( 62669 PWs)   bands (ev):

   -25.4810 -12.9154  -9.2077  -7.0607  -0.9109   0.4221   0.7969   1.1287

     the Fermi energy is    -5.1836 ev

!    total energy              =     -33.74205614 Ry
     Harris-Foulkes estimate   =     -33.74205621 Ry
     estimated scf accuracy    <          2.4E-09 Ry

     convergence has been achieved in   8 iterations

     Forces acting on atoms (Ry/au):

     atom    1 type  2   force =     0.00000156   -0.00000018    0.05215700
     atom    2 type  1   force =    -0.00000081    0.02845724   -0.02607844
     atom    3 type  1   force =    -0.00000076   -0.02845706   -0.02607855

     Total force =     0.075499     Total SCF correction =     0.000061

     Molecular Dynamics Calculation

     Starting temperature  =   100.00 K

     temperature is controlled by Andersen thermostat
     Collision frequency = 1.0000/timestep
     mass H                =     1.01
     mass O                =    16.00
     Time step             =    10.00 a.u.,  0.4838 femto-seconds

     Entering Dynamics:    iteration =     1
                           time      =   0.0005 pico-seconds


     Andersen thermostat:    3 collisions

ATOMIC_POSITIONS (angstrom)
O       -0.000209327  -0.000124340   0.118992979
H        0.000025625   0.767076636  -0.479425360
H        0.003290447  -0.765106900  -0.470406922


     kinetic energy (Ekin) =     0.00133702 Ry
     temperature           =    70.36612446 K 
     Ekin + Etot (const)   =   -33.74071912 Ry

     Linear momentum :   -0.0000000000   -0.0000000000    0.0000000000

     Writing output data file pwscf.save
     Check: negative starting charge=   -0.071145
     NEW-OLD atomic charge density approx. for the potential
     Check: negative starting charge=   -0.071138

     negative rho (up, down):  3.098E-04 0.000E+00

     total cpu time spent up to now is       24.8 secs

     per-process dynamical memory:    48.3 Mb

     Self-consistent Calculation

     iteration #  1     ecut=    60.00 Ry     beta=0.70
     Davidson diagonalization with overlap
     ethr =  1.00E-06,  avg # of iterations =  3.0

     negative rho (up, down):  5.120E-05 0.000E+00

     total cpu time spent up to now is       26.7 secs

     total energy              =     -33.73800514 Ry
     Harris-Foulkes estimate   =     -33.73801196 Ry
     estimated scf accuracy    <       0.00001145 Ry

     iteration #  2     ecut=    60.00 Ry     beta=0.70
     Davidson diagonalization with overlap
     ethr =  1.43E-07,  avg # of iterations =  2.0

     negative rho (up, down):  3.360E-06 0.000E+00

     total cpu time spent up to now is       28.3 secs

     total energy              =     -33.74208238 Ry
     Harris-Foulkes estimate   =     -33.74208408 Ry
     estimated scf accuracy    <       0.00000107 Ry

     iteration #  3     ecut=    60.00 Ry     beta=0.70
     Davidson diagonalization with overlap
     ethr =  1.33E-08,  avg # of iterations =  2.0

     negative rho (up, down):  1.070E-07 0.000E+00

     total cpu time spent up to now is       30.1 secs

     total energy              =     -33.74208233 Ry
     Harris-Foulkes estimate   =     -33.74208271 Ry
     estimated scf accuracy    <       0.00000040 Ry

     iteration #  4     ecut=    60.00 Ry     beta=0.70
     Davidson diagonalization with overlap
     ethr =  4.98E-09,  avg # of iterations =  2.0

     total cpu time spent up to now is       31.9 secs

     total energy              =     -33.74208215 Ry
     Harris-Foulkes estimate   =     -33.74208244 Ry
     estimated scf accuracy    <       0.00000003 Ry

     iteration #  5     ecut=    60.00 Ry     beta=0.70
     Davidson diagonalization with overlap
     ethr =  4.16E-10,  avg # of iterations =  2.0

     total cpu time spent up to now is       33.2 secs

     End of self-consistent calculation

          k = 0.0000 0.0000 0.0000 ( 62669 PWs)   bands (ev):

   -25.4650 -12.9290  -9.1846  -7.0572  -0.9123   0.4217   0.7943   1.1281

     the Fermi energy is    -5.1800 ev

!    total energy              =     -33.74208208 Ry
     Harris-Foulkes estimate   =     -33.74208216 Ry
     estimated scf accuracy    <          3.0E-10 Ry

     convergence has been achieved in   5 iterations

     Forces acting on atoms (Ry/au):

     atom    1 type  2   force =    -0.00025080    0.01079514    0.05213294
     atom    2 type  1   force =     0.00005645    0.02089080   -0.02199829
     atom    3 type  1   force =     0.00019434   -0.03168594   -0.03013465

     Total force =     0.075279     Total SCF correction =     0.000171

     Entering Dynamics:    iteration =     2
                           time      =   0.0010 pico-seconds


     Andersen thermostat:    3 collisions

ATOMIC_POSITIONS (angstrom)
O       -0.000168241  -0.000347532   0.119113589
H        0.000761757   0.766176656  -0.478278034
H        0.001903455  -0.760671193  -0.473464906


     kinetic energy (Ekin) =     0.00089908 Ry
     temperature           =    47.31783211 K 
     Ekin + Etot (const)   =   -33.74118299 Ry
     Message from routine dynamics:
     Total linear momentum <> 0

     Linear momentum :    0.0100057376    0.1162701024    0.0563479707

     Writing output data file pwscf.save

     first order wave-functions extrapolation
     Check: negative starting charge=   -0.071138
     first order charge density extrapolation
     Check: negative starting charge=   -0.071142

     negative rho (up, down):  4.829E-04 0.000E+00

     total cpu time spent up to now is       38.1 secs

     per-process dynamical memory:    48.3 Mb

     Self-consistent Calculation

     iteration #  1     ecut=    60.00 Ry     beta=0.70
     Davidson diagonalization with overlap
     ethr =  1.00E-06,  avg # of iterations =  4.0

     negative rho (up, down):  9.039E-05 0.000E+00

     total cpu time spent up to now is       40.3 secs

     total energy              =     -33.73781371 Ry
     Harris-Foulkes estimate   =     -33.73781673 Ry
     estimated scf accuracy    <       0.00002563 Ry

     iteration #  2     ecut=    60.00 Ry     beta=0.70
     Davidson diagonalization with overlap
     ethr =  3.20E-07,  avg # of iterations =  2.0

     negative rho (up, down):  2.168E-05 0.000E+00

     total cpu time spent up to now is       42.0 secs

     total energy              =     -33.73781582 Ry
     Harris-Foulkes estimate   =     -33.73781901 Ry
     estimated scf accuracy    <       0.00000586 Ry

     iteration #  3     ecut=    60.00 Ry     beta=0.70
     Davidson diagonalization with overlap
     ethr =  7.32E-08,  avg # of iterations =  2.0

     negative rho (up, down):  2.702E-07 0.000E+00

     total cpu time spent up to now is       43.6 secs

     total energy              =     -33.74189527 Ry
     Harris-Foulkes estimate   =     -33.74189558 Ry
     estimated scf accuracy    <       0.00000198 Ry

     iteration #  4     ecut=    60.00 Ry     beta=0.70
     Davidson diagonalization with overlap
     ethr =  2.47E-08,  avg # of iterations =  2.0

     total cpu time spent up to now is       45.3 secs

     total energy              =     -33.74189590 Ry
     Harris-Foulkes estimate   =     -33.74189569 Ry
     estimated scf accuracy    <       0.00000002 Ry

     iteration #  5     ecut=    60.00 Ry     beta=0.70
     Davidson diagonalization with overlap
     ethr =  2.67E-10,  avg # of iterations =  2.0

     total cpu time spent up to now is       46.7 secs

     End of self-consistent calculation

          k = 0.0000 0.0000 0.0000 ( 62669 PWs)   bands (ev):

   -25.4863 -12.9283  -9.2018  -7.0613  -0.9089   0.4227   0.7978   1.1287

     the Fermi energy is    -5.1849 ev

!    total energy              =     -33.74189592 Ry
     Harris-Foulkes estimate   =     -33.74189591 Ry
     estimated scf accuracy    <          8.5E-10 Ry

     convergence has been achieved in   5 iterations

     Forces acting on atoms (Ry/au):

     atom    1 type  2   force =    -0.00030556    0.01148440    0.05404633
     atom    2 type  1   force =     0.00011767    0.02346670   -0.02249909
     atom    3 type  1   force =     0.00018788   -0.03495110   -0.03154725

     Total force =     0.079541     Total SCF correction =     0.000106

     Entering Dynamics:    iteration =     3
                           time      =   0.0015 pico-seconds


     Andersen thermostat:    3 collisions

ATOMIC_POSITIONS (angstrom)
O       -0.000425075  -0.000198637   0.119274259
H        0.002910000   0.768967460  -0.474724547
H        0.003823862  -0.765820742  -0.479563648


     kinetic energy (Ekin) =     0.00161810 Ry
     temperature           =    85.15890868 K 
     Ekin + Etot (const)   =   -33.74027783 Ry
     Message from routine dynamics:
     Total linear momentum <> 0

     Linear momentum :    0.1163536138   -0.1283644515    0.0207252569

     Writing output data file pwscf.save

     second order wave-functions extrapolation
     Check: negative starting charge=   -0.071142
     second order charge density extrapolation
     Check: negative starting charge=   -0.071142

     negative rho (up, down):  3.343E-04 0.000E+00

     total cpu time spent up to now is       52.3 secs

     per-process dynamical memory:    48.3 Mb

     Self-consistent Calculation

     iteration #  1     ecut=    60.00 Ry     beta=0.70
     Davidson diagonalization with overlap
     ethr =  1.00E-06,  avg # of iterations =  3.0

     negative rho (up, down):  5.667E-05 0.000E+00

     total cpu time spent up to now is       54.2 secs

     total energy              =     -33.73837529 Ry
     Harris-Foulkes estimate   =     -33.73841236 Ry
     estimated scf accuracy    <       0.00005694 Ry

     iteration #  2     ecut=    60.00 Ry     beta=0.70
     Davidson diagonalization with overlap
     ethr =  7.12E-07,  avg # of iterations =  2.0

     negative rho (up, down):  2.329E-05 0.000E+00

     total cpu time spent up to now is       55.8 secs

     total energy              =     -33.74246125 Ry
     Harris-Foulkes estimate   =     -33.74248292 Ry
     estimated scf accuracy    <       0.00003894 Ry

     iteration #  3     ecut=    60.00 Ry     beta=0.70
     Davidson diagonalization with overlap
     ethr =  4.87E-07,  avg # of iterations =  2.0

     negative rho (up, down):  4.599E-07 0.000E+00

     total cpu time spent up to now is       57.4 secs

     total energy              =     -33.74246994 Ry
     Harris-Foulkes estimate   =     -33.74247061 Ry
     estimated scf accuracy    <       0.00000108 Ry

     iteration #  4     ecut=    60.00 Ry     beta=0.70
     Davidson diagonalization with overlap
     ethr =  1.35E-08,  avg # of iterations =  2.0

     total cpu time spent up to now is       59.1 secs

     total energy              =     -33.74247023 Ry
     Harris-Foulkes estimate   =     -33.74247018 Ry
     estimated scf accuracy    <       0.00000002 Ry

     iteration #  5     ecut=    60.00 Ry     beta=0.70
     Davidson diagonalization with overlap
     ethr =  1.91E-10,  avg # of iterations =  2.0

     total cpu time spent up to now is       60.5 secs

     End of self-consistent calculation

          k = 0.0000 0.0000 0.0000 ( 62669 PWs)   bands (ev):

   -25.4388 -12.8981  -9.1878  -7.0529  -0.9194   0.4193   0.7898   1.1275

     the Fermi energy is    -5.1740 ev

!    total energy              =     -33.74247026 Ry
     Harris-Foulkes estimate   =     -33.74247024 Ry
     estimated scf accuracy    <          9.7E-10 Ry

     convergence has been achieved in   5 iterations

     Forces acting on atoms (Ry/au):

     atom    1 type  2   force =    -0.00041753   -0.00058872    0.04615953
     atom    2 type  1   force =     0.00019627    0.02302744   -0.02311609
     atom    3 type  1   force =     0.00022126   -0.02243872   -0.02304343

     Total force =     0.065042     Total SCF correction =     0.000339

     Entering Dynamics:    iteration =     4
                           time      =   0.0019 pico-seconds


     Andersen thermostat:    3 collisions

ATOMIC_POSITIONS (angstrom)
O       -0.000970112  -0.000524650   0.119820370
H        0.001142141   0.766317442  -0.479475679
H        0.014225972  -0.758006150  -0.483463784


     kinetic energy (Ekin) =     0.00397881 Ry
     temperature           =   209.40132522 K 
     Ekin + Etot (const)   =   -33.73849145 Ry
     Message from routine dynamics:
     Total linear momentum <> 0

     Linear momentum :    0.0907174462    0.0166667859   -0.0827865168

     Writing output data file pwscf.save

     second order wave-functions extrapolation
     Check: negative starting charge=   -0.071142
     second order charge density extrapolation
     Check: negative starting charge=   -0.071157

     negative rho (up, down):  7.358E-04 0.000E+00

     total cpu time spent up to now is       66.3 secs

     per-process dynamical memory:    48.3 Mb

     Self-consistent Calculation

     iteration #  1     ecut=    60.00 Ry     beta=0.70
     Davidson diagonalization with overlap
     ethr =  1.00E-06,  avg # of iterations =  4.0

     negative rho (up, down):  1.510E-04 0.000E+00

     total cpu time spent up to now is       68.6 secs

     total energy              =     -33.73829254 Ry
     Harris-Foulkes estimate   =     -33.73828468 Ry
     estimated scf accuracy    <       0.00001710 Ry

     iteration #  2     ecut=    60.00 Ry     beta=0.70
     Davidson diagonalization with overlap
     ethr =  2.14E-07,  avg # of iterations =  3.0

     negative rho (up, down):  4.723E-05 0.000E+00

     total cpu time spent up to now is       70.4 secs

     total energy              =     -33.74236930 Ry
     Harris-Foulkes estimate   =     -33.74237431 Ry
     estimated scf accuracy    <       0.00000562 Ry

     iteration #  3     ecut=    60.00 Ry     beta=0.70
     Davidson diagonalization with overlap
     ethr =  7.03E-08,  avg # of iterations =  2.0

     total cpu time spent up to now is       72.3 secs

     total energy              =     -33.74237116 Ry
     Harris-Foulkes estimate   =     -33.74237128 Ry
     estimated scf accuracy    <       0.00000141 Ry

     iteration #  4     ecut=    60.00 Ry     beta=0.70
     Davidson diagonalization with overlap
     ethr =  1.76E-08,  avg # of iterations =  2.0

     total cpu time spent up to now is       73.7 secs

     End of self-consistent calculation

          k = 0.0000 0.0000 0.0000 ( 62669 PWs)   bands (ev):

   -25.4651 -12.8670  -9.2318  -7.0588  -0.9181   0.4194   0.7942   1.1284

     the Fermi energy is    -5.1798 ev

!    total energy              =     -33.74237145 Ry
     Harris-Foulkes estimate   =     -33.74237144 Ry
     estimated scf accuracy    <          4.5E-09 Ry

     convergence has been achieved in   4 iterations

     Forces acting on atoms (Ry/au):

     atom    1 type  2   force =    -0.00103664    0.00651371    0.04542288
     atom    2 type  1   force =     0.00025728    0.02314304   -0.01988935
     atom    3 type  1   force =     0.00077937   -0.02965675   -0.02553353

     Total force =     0.067602     Total SCF correction =     0.000503

     Entering Dynamics:    iteration =     5
                           time      =   0.0024 pico-seconds


     Andersen thermostat:    3 collisions

ATOMIC_POSITIONS (angstrom)
O       -0.000989392  -0.000485978   0.120554088
H       -0.006254933   0.770157711  -0.486464413
H        0.021928473  -0.762459051  -0.488098307


     kinetic energy (Ekin) =     0.00344391 Ry
     temperature           =   181.24969796 K 
     Ekin + Etot (const)   =   -33.73892755 Ry
     Message from routine dynamics:
     Total linear momentum <> 0

     Linear momentum :   -0.0382920351    0.0977368215    0.0430840020

     Writing output data file pwscf.save

     second order wave-functions extrapolation
     Check: negative starting charge=   -0.071157
     second order charge density extrapolation
     Check: negative starting charge=   -0.071166

     negative rho (up, down):  5.016E-04 0.000E+00

     total cpu time spent up to now is       79.3 secs

     per-process dynamical memory:    48.3 Mb

     Self-consistent Calculation

     iteration #  1     ecut=    60.00 Ry     beta=0.70
     Davidson diagonalization with overlap
     ethr =  1.00E-06,  avg # of iterations =  3.0

     negative rho (up, down):  9.487E-05 0.000E+00

     total cpu time spent up to now is       81.7 secs

     total energy              =     -33.73904231 Ry
     Harris-Foulkes estimate   =     -33.73909133 Ry
     estimated scf accuracy    <       0.00008072 Ry

     iteration #  2     ecut=    60.00 Ry     beta=0.70
     Davidson diagonalization with overlap
     ethr =  1.01E-06,  avg # of iterations =  3.0

     negative rho (up, down):  4.453E-05 0.000E+00

     total cpu time spent up to now is       83.6 secs

     total energy              =     -33.74313347 Ry
     Harris-Foulkes estimate   =     -33.74316930 Ry
     estimated scf accuracy    <       0.00006751 Ry

     iteration #  3     ecut=    60.00 Ry     beta=0.70
     Davidson diagonalization with overlap
     ethr =  8.44E-07,  avg # of iterations =  2.0

     negative rho (up, down):  5.517E-07 0.000E+00

     total cpu time spent up to now is       85.4 secs

     total energy              =     -33.74314776 Ry
     Harris-Foulkes estimate   =     -33.74314837 Ry
     estimated scf accuracy    <       0.00000095 Ry

     iteration #  4     ecut=    60.00 Ry     beta=0.70
     Davidson diagonalization with overlap
     ethr =  1.19E-08,  avg # of iterations =  2.0

     total cpu time spent up to now is       87.2 secs

     total energy              =     -33.74314812 Ry
     Harris-Foulkes estimate   =     -33.74314800 Ry
     estimated scf accuracy    <       0.00000002 Ry

     iteration #  5     ecut=    60.00 Ry     beta=0.70
     Davidson diagonalization with overlap
     ethr =  1.90E-10,  avg # of iterations =  3.0

     total cpu time spent up to now is       88.7 secs

     End of self-consistent calculation

          k = 0.0000 0.0000 0.0000 ( 62669 PWs)   bands (ev):

   -25.3890 -12.7846  -9.2352  -7.0460  -0.9388   0.4122   0.7807   1.1266

     the Fermi energy is    -5.1621 ev

!    total energy              =     -33.74314816 Ry
     Harris-Foulkes estimate   =     -33.74314812 Ry
     estimated scf accuracy    <          8.3E-10 Ry

     convergence has been achieved in   5 iterations

     Forces acting on atoms (Ry/au):

     atom    1 type  2   force =    -0.00117128    0.00722665    0.02989756
     atom    2 type  1   force =     0.00023610    0.01293753   -0.01192010
     atom    3 type  1   force =     0.00093519   -0.02016418   -0.01797747

     Total force =     0.044583     Total SCF correction =     0.000306

     Entering Dynamics:    iteration =     6
                           time      =   0.0029 pico-seconds


     Andersen thermostat:    3 collisions

ATOMIC_POSITIONS (angstrom)
O       -0.000781855  -0.000648645   0.120551063
H       -0.011977351   0.769328457  -0.481550955
H        0.024363176  -0.759052890  -0.492963844


     kinetic energy (Ekin) =     0.00214433 Ry
     temperature           =   112.85441792 K 
     Ekin + Etot (const)   =   -33.74100383 Ry
     Message from routine dynamics:
     Total linear momentum <> 0

     Linear momentum :   -0.0225744729   -0.1826815511   -0.0469215516

     Writing output data file pwscf.save

     second order wave-functions extrapolation
     Check: negative starting charge=   -0.071166
     second order charge density extrapolation
     Check: negative starting charge=   -0.071169

     negative rho (up, down):  3.353E-04 0.000E+00

     total cpu time spent up to now is       94.4 secs

     per-process dynamical memory:    48.3 Mb

     Self-consistent Calculation

     iteration #  1     ecut=    60.00 Ry     beta=0.70
     Davidson diagonalization with overlap
     ethr =  1.00E-06,  avg # of iterations =  3.0

     negative rho (up, down):  5.696E-05 0.000E+00

     total cpu time spent up to now is       96.4 secs

     total energy              =     -33.74303119 Ry
     Harris-Foulkes estimate   =     -33.74303895 Ry
     estimated scf accuracy    <       0.00001271 Ry

     iteration #  2     ecut=    60.00 Ry     beta=0.70
     Davidson diagonalization with overlap
     ethr =  1.59E-07,  avg # of iterations =  2.0

     negative rho (up, down):  1.860E-05 0.000E+00

     total cpu time spent up to now is       98.1 secs

     total energy              =     -33.74303193 Ry
     Harris-Foulkes estimate   =     -33.74303540 Ry
     estimated scf accuracy    <       0.00000552 Ry

     iteration #  3     ecut=    60.00 Ry     beta=0.70
     Davidson diagonalization with overlap
     ethr =  6.90E-08,  avg # of iterations =  2.0

     negative rho (up, down):  4.492E-08 0.000E+00

     total cpu time spent up to now is       99.8 secs

     total energy              =     -33.74303272 Ry
     Harris-Foulkes estimate   =     -33.74303363 Ry
     estimated scf accuracy    <       0.00000074 Ry

     iteration #  4     ecut=    60.00 Ry     beta=0.70
     Davidson diagonalization with overlap
     ethr =  9.24E-09,  avg # of iterations =  2.0

     total cpu time spent up to now is      101.3 secs

     End of self-consistent calculation

          k = 0.0000 0.0000 0.0000 ( 62669 PWs)   bands (ev):

   -25.4086 -12.7919  -9.2447  -7.0495  -0.9345   0.4137   0.7843   1.1272

     the Fermi energy is    -5.1666 ev

!    total energy              =     -33.74303280 Ry
     Harris-Foulkes estimate   =     -33.74303286 Ry
     estimated scf accuracy    <          4.1E-09 Ry

     convergence has been achieved in   4 iterations

     Forces acting on atoms (Ry/au):

     atom    1 type  2   force =    -0.00114595    0.00197641    0.03277637
     atom    2 type  1   force =     0.00010618    0.01815534   -0.01532276
     atom    3 type  1   force =     0.00103977   -0.02013175   -0.01745361

     Total force =     0.048528     Total SCF correction =     0.000570

     Entering Dynamics:    iteration =     7
                           time      =   0.0034 pico-seconds


     Andersen thermostat:    3 collisions

ATOMIC_POSITIONS (angstrom)
O       -0.000951187  -0.000468059   0.120351818
H       -0.012174847   0.767552499  -0.477254727
H        0.027243161  -0.760137699  -0.494103710


     kinetic energy (Ekin) =     0.00099294 Ry
     temperature           =    52.25775330 K 
     Ekin + Etot (const)   =   -33.74203986 Ry
     Message from routine dynamics:
     Total linear momentum <> 0

     Linear momentum :    0.0106340410   -0.0037732129    0.1714340841

     Writing output data file pwscf.save

     second order wave-functions extrapolation
     Check: negative starting charge=   -0.071169
     second order charge density extrapolation
     Check: negative starting charge=   -0.071166

     negative rho (up, down):  2.584E-04 0.000E+00

     total cpu time spent up to now is      106.7 secs

     per-process dynamical memory:    48.3 Mb

     Self-consistent Calculation

     iteration #  1     ecut=    60.00 Ry     beta=0.70
     Davidson diagonalization with overlap
     ethr =  1.00E-06,  avg # of iterations =  3.0

     Threshold (ethr) on eigenvalues was too large:
     Diagonalizing with lowered threshold

     Davidson diagonalization with overlap
     ethr =  4.31E-08,  avg # of iterations =  1.0

     negative rho (up, down):  4.021E-05 0.000E+00

     total cpu time spent up to now is      109.2 secs

     total energy              =     -33.74289248 Ry
     Harris-Foulkes estimate   =     -33.74289802 Ry
     estimated scf accuracy    <       0.00000351 Ry

     iteration #  2     ecut=    60.00 Ry     beta=0.70
     Davidson diagonalization with overlap
     ethr =  4.39E-08,  avg # of iterations =  2.0

     negative rho (up, down):  5.060E-06 0.000E+00

     total cpu time spent up to now is      110.8 secs

     total energy              =     -33.74289227 Ry
     Harris-Foulkes estimate   =     -33.74289313 Ry
     estimated scf accuracy    <       0.00000054 Ry

     iteration #  3     ecut=    60.00 Ry     beta=0.70
     Davidson diagonalization with overlap
     ethr =  6.79E-09,  avg # of iterations =  2.0

     negative rho (up, down):  1.200E-07 0.000E+00

     total cpu time spent up to now is      112.4 secs

     total energy              =     -33.74289197 Ry
     Harris-Foulkes estimate   =     -33.74289250 Ry
     estimated scf accuracy    <       0.00000024 Ry

     iteration #  4     ecut=    60.00 Ry     beta=0.70
     Davidson diagonalization with overlap
     ethr =  3.06E-09,  avg # of iterations =  2.0

     total cpu time spent up to now is      113.7 secs

     End of self-consistent calculation

          k = 0.0000 0.0000 0.0000 ( 62669 PWs)   bands (ev):

   -25.4205 -12.8109  -9.2393  -7.0511  -0.9306   0.4152   0.7865   1.1275

     the Fermi energy is    -5.1694 ev

!    total energy              =     -33.74289193 Ry
     Harris-Foulkes estimate   =     -33.74289203 Ry
     estimated scf accuracy    <          6.5E-09 Ry

     convergence has been achieved in   4 iterations

     Forces acting on atoms (Ry/au):

     atom    1 type  2   force =    -0.00044888   -0.00678852    0.03590270
     atom    2 type  1   force =    -0.00028225    0.02410606   -0.02011413
     atom    3 type  1   force =     0.00073113   -0.01731754   -0.01578857

     Total force =     0.053579     Total SCF correction =     0.001000

     Entering Dynamics:    iteration =     8
                           time      =   0.0039 pico-seconds


     Andersen thermostat:    3 collisions

ATOMIC_POSITIONS (angstrom)
O       -0.001020625  -0.000449831   0.120903450
H       -0.014153034   0.772002231  -0.485223825
H        0.030321357  -0.764876188  -0.494873350


     kinetic energy (Ekin) =     0.00214161 Ry
     temperature           =   112.71094987 K 
     Ekin + Etot (const)   =   -33.74075032 Ry
     Message from routine dynamics:
     Total linear momentum <> 0

     Linear momentum :    0.0782600888   -0.1026444569   -0.1377601981

     Writing output data file pwscf.save

     second order wave-functions extrapolation
     Check: negative starting charge=   -0.071166
     second order charge density extrapolation
     Check: negative starting charge=   -0.071169

     negative rho (up, down):  3.841E-04 0.000E+00

     total cpu time spent up to now is      119.6 secs

     per-process dynamical memory:    48.3 Mb

     Self-consistent Calculation

     iteration #  1     ecut=    60.00 Ry     beta=0.70
     Davidson diagonalization with overlap
     ethr =  1.00E-06,  avg # of iterations =  3.0

     negative rho (up, down):  6.779E-05 0.000E+00

     total cpu time spent up to now is      121.4 secs

     total energy              =     -33.73933505 Ry
     Harris-Foulkes estimate   =     -33.73938582 Ry
     estimated scf accuracy    <       0.00007171 Ry

     iteration #  2     ecut=    60.00 Ry     beta=0.70
     Davidson diagonalization with overlap
     ethr =  8.96E-07,  avg # of iterations =  3.0

     negative rho (up, down):  3.131E-05 0.000E+00

     total cpu time spent up to now is      123.8 secs

     total energy              =     -33.74342530 Ry
     Harris-Foulkes estimate   =     -33.74346001 Ry
     estimated scf accuracy    <       0.00006598 Ry

     iteration #  3     ecut=    60.00 Ry     beta=0.70
     Davidson diagonalization with overlap
     ethr =  8.25E-07,  avg # of iterations =  2.0

     negative rho (up, down):  4.086E-07 0.000E+00

     total cpu time spent up to now is      125.5 secs

     total energy              =     -33.74343909 Ry
     Harris-Foulkes estimate   =     -33.74343930 Ry
     estimated scf accuracy    <       0.00000059 Ry

     iteration #  4     ecut=    60.00 Ry     beta=0.70
     Davidson diagonalization with overlap
     ethr =  7.33E-09,  avg # of iterations =  2.0

     total cpu time spent up to now is      127.2 secs

     total energy              =     -33.74343941 Ry
     Harris-Foulkes estimate   =     -33.74343928 Ry
     estimated scf accuracy    <       0.00000001 Ry

     iteration #  5     ecut=    60.00 Ry     beta=0.70
     Davidson diagonalization with overlap
     ethr =  1.57E-10,  avg # of iterations =  2.0

     total cpu time spent up to now is      128.6 secs

     End of self-consistent calculation

          k = 0.0000 0.0000 0.0000 ( 62669 PWs)   bands (ev):

   -25.3500 -12.7446  -9.2354  -7.0393  -0.9495   0.4087   0.7734   1.1257

     the Fermi energy is    -5.1531 ev

!    total energy              =     -33.74343948 Ry
     Harris-Foulkes estimate   =     -33.74343941 Ry
     estimated scf accuracy    <          6.2E-10 Ry

     convergence has been achieved in   5 iterations

     Forces acting on atoms (Ry/au):

     atom    1 type  2   force =    -0.00068620   -0.00049184    0.02212760
     atom    2 type  1   force =     0.00000442    0.01187167   -0.01106220
     atom    3 type  1   force =     0.00068178   -0.01137983   -0.01106541

     Total force =     0.031718     Total SCF correction =     0.000402

     Entering Dynamics:    iteration =     9
                           time      =   0.0044 pico-seconds


     Andersen thermostat:    3 collisions

ATOMIC_POSITIONS (angstrom)
O       -0.000529959  -0.000632663   0.120789923
H       -0.016713855   0.776278788  -0.486941821
H        0.025109241  -0.766256399  -0.491356894


     kinetic energy (Ekin) =     0.00174844 Ry
     temperature           =    92.01860079 K 
     Ekin + Etot (const)   =   -33.74169104 Ry
     Message from routine dynamics:
     Total linear momentum <> 0

     Linear momentum :    0.1223509907   -0.0609128712   -0.1668050693

     Writing output data file pwscf.save

     second order wave-functions extrapolation
     Check: negative starting charge=   -0.071169
     second order charge density extrapolation
     Check: negative starting charge=   -0.071163

     negative rho (up, down):  3.322E-04 0.000E+00

     total cpu time spent up to now is      134.2 secs

     per-process dynamical memory:    48.3 Mb

     Self-consistent Calculation

     iteration #  1     ecut=    60.00 Ry     beta=0.70
     Davidson diagonalization with overlap
     ethr =  1.00E-06,  avg # of iterations =  3.0

     Threshold (ethr) on eigenvalues was too large:
     Diagonalizing with lowered threshold

     Davidson diagonalization with overlap
     ethr =  3.27E-08,  avg # of iterations =  1.0

     negative rho (up, down):  5.599E-05 0.000E+00

     total cpu time spent up to now is      136.9 secs

     total energy              =     -33.73940526 Ry
     Harris-Foulkes estimate   =     -33.73941154 Ry
     estimated scf accuracy    <       0.00000268 Ry

     iteration #  2     ecut=    60.00 Ry     beta=0.70
     Davidson diagonalization with overlap
     ethr =  3.35E-08,  avg # of iterations =  2.0

     negative rho (up, down):  5.104E-07 0.000E+00

     total cpu time spent up to now is      138.5 secs

     total energy              =     -33.74348118 Ry
     Harris-Foulkes estimate   =     -33.74348305 Ry
     estimated scf accuracy    <       0.00000021 Ry

     iteration #  3     ecut=    60.00 Ry     beta=0.70
     Davidson diagonalization with overlap
     ethr =  2.62E-09,  avg # of iterations =  2.0

     negative rho (up, down):  2.230E-08 0.000E+00

     total cpu time spent up to now is      140.2 secs

     total energy              =     -33.74348102 Ry
     Harris-Foulkes estimate   =     -33.74348123 Ry
     estimated scf accuracy    <       0.00000004 Ry

     iteration #  4     ecut=    60.00 Ry     beta=0.70
     Davidson diagonalization with overlap
     ethr =  4.54E-10,  avg # of iterations =  2.0

     total cpu time spent up to now is      141.6 secs

     End of self-consistent calculation

          k = 0.0000 0.0000 0.0000 ( 62669 PWs)   bands (ev):

   -25.3292 -12.7456  -9.2183  -7.0355  -0.9535   0.4075   0.7696   1.1251

     the Fermi energy is    -5.1484 ev

!    total energy              =     -33.74348088 Ry
     Harris-Foulkes estimate   =     -33.74348104 Ry
     estimated scf accuracy    <          7.1E-09 Ry

     convergence has been achieved in   4 iterations

     Forces acting on atoms (Ry/au):

     atom    1 type  2   force =    -0.00083418    0.00748775    0.02092296
     atom    2 type  1   force =     0.00014735    0.00506458   -0.00735826
     atom    3 type  1   force =     0.00068683   -0.01255234   -0.01356470

     Total force =     0.030272     Total SCF correction =     0.000475

     Entering Dynamics:    iteration =    10
                           time      =   0.0048 pico-seconds


     Andersen thermostat:    3 collisions

ATOMIC_POSITIONS (angstrom)
O       -0.000775781  -0.001060925   0.120482637
H       -0.016804830   0.781925387  -0.484605328
H        0.029094430  -0.765118651  -0.488825493


     kinetic energy (Ekin) =     0.00144047 Ry
     temperature           =    75.81061579 K 
     Ekin + Etot (const)   =   -33.74204041 Ry
     Message from routine dynamics:
     Total linear momentum <> 0

     Linear momentum :    0.1238173832    0.0701969500   -0.0680904928

     Writing output data file pwscf.save

     second order wave-functions extrapolation
     Check: negative starting charge=   -0.071163
     second order charge density extrapolation
     Check: negative starting charge=   -0.071153

     negative rho (up, down):  4.893E-04 0.000E+00

     total cpu time spent up to now is      147.5 secs

     per-process dynamical memory:    48.3 Mb

     Self-consistent Calculation

     iteration #  1     ecut=    60.00 Ry     beta=0.70
     Davidson diagonalization with overlap
     ethr =  1.00E-06,  avg # of iterations =  3.0

     Threshold (ethr) on eigenvalues was too large:
     Diagonalizing with lowered threshold

     Davidson diagonalization with overlap
     ethr =  8.71E-08,  avg # of iterations =  1.0

     negative rho (up, down):  9.157E-05 0.000E+00

     total cpu time spent up to now is      150.2 secs

     total energy              =     -33.73929554 Ry
     Harris-Foulkes estimate   =     -33.73930045 Ry
     estimated scf accuracy    <       0.00000699 Ry

     iteration #  2     ecut=    60.00 Ry     beta=0.70
     Davidson diagonalization with overlap
     ethr =  8.73E-08,  avg # of iterations =  2.0

     negative rho (up, down):  1.990E-05 0.000E+00

     total cpu time spent up to now is      151.7 secs

     total energy              =     -33.74337238 Ry
     Harris-Foulkes estimate   =     -33.74337454 Ry
     estimated scf accuracy    <       0.00000155 Ry

     iteration #  3     ecut=    60.00 Ry     beta=0.70
     Davidson diagonalization with overlap
     ethr =  1.94E-08,  avg # of iterations =  2.0

     negative rho (up, down):  2.508E-07 0.000E+00

     total cpu time spent up to now is      153.3 secs

     total energy              =     -33.74337220 Ry
     Harris-Foulkes estimate   =     -33.74337299 Ry
     estimated scf accuracy    <       0.00000055 Ry

     iteration #  4     ecut=    60.00 Ry     beta=0.70
     Davidson diagonalization with overlap
     ethr =  6.90E-09,  avg # of iterations =  2.0

     total cpu time spent up to now is      154.9 secs

     total energy              =     -33.74337212 Ry
     Harris-Foulkes estimate   =     -33.74337233 Ry
     estimated scf accuracy    <       0.00000001 Ry

     iteration #  5     ecut=    60.00 Ry     beta=0.70
     Davidson diagonalization with overlap
     ethr =  1.32E-10,  avg # of iterations =  2.0

     total cpu time spent up to now is      156.3 secs

     End of self-consistent calculation

          k = 0.0000 0.0000 0.0000 ( 62669 PWs)   bands (ev):

   -25.3209 -12.7639  -9.1969  -7.0329  -0.9535   0.4074   0.7683   1.1247

     the Fermi energy is    -5.1466 ev

!    total energy              =     -33.74337213 Ry
     Harris-Foulkes estimate   =     -33.74337213 Ry
     estimated scf accuracy    <          2.6E-10 Ry

     convergence has been achieved in   5 iterations

     Forces acting on atoms (Ry/au):

     atom    1 type  2   force =    -0.00106156    0.01528535    0.02222429
     atom    2 type  1   force =     0.00022493    0.00002161   -0.00489572
     atom    3 type  1   force =     0.00083663   -0.01530696   -0.01732856

     Total force =     0.035889     Total SCF correction =     0.000225

     Entering Dynamics:    iteration =    11
                           time      =   0.0053 pico-seconds


     Andersen thermostat:    3 collisions

ATOMIC_POSITIONS (angstrom)
O       -0.000948227  -0.001027352   0.120298037
H       -0.013905250   0.786172105  -0.480891937
H        0.028926665  -0.769897224  -0.489614537


     kinetic energy (Ekin) =     0.00151782 Ry
     temperature           =    79.88139297 K 
     Ekin + Etot (const)   =   -33.74185431 Ry
     Message from routine dynamics:
     Total linear momentum <> 0

     Linear momentum :   -0.1424738148    0.0644729061   -0.1312558332

     Writing output data file pwscf.save

     second order wave-functions extrapolation
     Check: negative starting charge=   -0.071153
     second order charge density extrapolation
     Check: negative starting charge=   -0.071144

     negative rho (up, down):  2.046E-04 0.000E+00

     total cpu time spent up to now is      162.0 secs

     per-process dynamical memory:    48.3 Mb

     Self-consistent Calculation

     iteration #  1     ecut=    60.00 Ry     beta=0.70
     Davidson diagonalization with overlap
     ethr =  1.00E-06,  avg # of iterations =  3.0

     negative rho (up, down):  2.964E-05 0.000E+00

     total cpu time spent up to now is      163.8 secs

     total energy              =     -33.74345689 Ry
     Harris-Foulkes estimate   =     -33.74346820 Ry
     estimated scf accuracy    <       0.00001500 Ry

     iteration #  2     ecut=    60.00 Ry     beta=0.70
     Davidson diagonalization with overlap
     ethr =  1.88E-07,  avg # of iterations =  2.0

     negative rho (up, down):  8.874E-06 0.000E+00

     total cpu time spent up to now is      165.4 secs

     total energy              =     -33.74345907 Ry
     Harris-Foulkes estimate   =     -33.74346299 Ry
     estimated scf accuracy    <       0.00000623 Ry

     iteration #  3     ecut=    60.00 Ry     beta=0.70
     Davidson diagonalization with overlap
     ethr =  7.78E-08,  avg # of iterations =  2.0

     negative rho (up, down):  9.911E-08 0.000E+00

     total cpu time spent up to now is      167.0 secs

     total energy              =     -33.74346048 Ry
     Harris-Foulkes estimate   =     -33.74346102 Ry
     estimated scf accuracy    <       0.00000076 Ry

     iteration #  4     ecut=    60.00 Ry     beta=0.70
     Davidson diagonalization with overlap
     ethr =  9.54E-09,  avg # of iterations =  2.0

     total cpu time spent up to now is      168.3 secs

     End of self-consistent calculation

          k = 0.0000 0.0000 0.0000 ( 62669 PWs)   bands (ev):

   -25.2862 -12.7637  -9.1697  -7.0264  -0.9602   0.4057   0.7617   1.1237

     the Fermi energy is    -5.1386 ev

!    total energy              =     -33.74346055 Ry
     Harris-Foulkes estimate   =     -33.74346065 Ry
     estimated scf accuracy    <          7.0E-09 Ry

     convergence has been achieved in   4 iterations

     Forces acting on atoms (Ry/au):

     atom    1 type  2   force =    -0.00082100    0.01032052    0.01911942
     atom    2 type  1   force =     0.00024884   -0.00216061   -0.00514244
     atom    3 type  1   force =     0.00057216   -0.00815990   -0.01397698

     Total force =     0.027680     Total SCF correction =     0.000795

     Entering Dynamics:    iteration =    12
                           time      =   0.0058 pico-seconds


     Andersen thermostat:    3 collisions

ATOMIC_POSITIONS (angstrom)
O       -0.001027203  -0.000627287   0.120886196
H       -0.013035926   0.782099490  -0.486374471
H        0.029308446  -0.772162271  -0.493449361


     kinetic energy (Ekin) =     0.00131427 Ry
     temperature           =    69.16902489 K 
     Ekin + Etot (const)   =   -33.74214627 Ry
     Message from routine dynamics:
     Total linear momentum <> 0

     Linear momentum :   -0.0970594626   -0.0442455207   -0.0630850308

     Writing output data file pwscf.save

     second order wave-functions extrapolation
     Check: negative starting charge=   -0.071144
     second order charge density extrapolation
     Check: negative starting charge=   -0.071154

     negative rho (up, down):  3.245E-04 0.000E+00

     total cpu time spent up to now is      173.9 secs

     per-process dynamical memory:    48.3 Mb

     Self-consistent Calculation

     iteration #  1     ecut=    60.00 Ry     beta=0.70
     Davidson diagonalization with overlap
     ethr =  1.00E-06,  avg # of iterations =  3.0

     negative rho (up, down):  5.457E-05 0.000E+00

     total cpu time spent up to now is      175.7 secs

     total energy              =     -33.73954774 Ry
     Harris-Foulkes estimate   =     -33.73956512 Ry
     estimated scf accuracy    <       0.00001974 Ry

     iteration #  2     ecut=    60.00 Ry     beta=0.70
     Davidson diagonalization with overlap
     ethr =  2.47E-07,  avg # of iterations =  2.0

     negative rho (up, down):  2.494E-05 0.000E+00

     total cpu time spent up to now is      177.5 secs

     total energy              =     -33.74362809 Ry
     Harris-Foulkes estimate   =     -33.74363887 Ry
     estimated scf accuracy    <       0.00001932 Ry

     iteration #  3     ecut=    60.00 Ry     beta=0.70
     Davidson diagonalization with overlap
     ethr =  2.42E-07,  avg # of iterations =  2.0

     negative rho (up, down):  5.502E-08 0.000E+00

     total cpu time spent up to now is      179.1 secs

     total energy              =     -33.74363206 Ry
     Harris-Foulkes estimate   =     -33.74363212 Ry
     estimated scf accuracy    <       0.00000015 Ry

     iteration #  4     ecut=    60.00 Ry     beta=0.70
     Davidson diagonalization with overlap
     ethr =  1.87E-09,  avg # of iterations =  2.0

     total cpu time spent up to now is      180.6 secs

     End of self-consistent calculation

          k = 0.0000 0.0000 0.0000 ( 62669 PWs)   bands (ev):

   -25.2681 -12.7152  -9.1931  -7.0239  -0.9681   0.4030   0.7578   1.1236

     the Fermi energy is    -5.1342 ev

!    total energy              =     -33.74363217 Ry
     Harris-Foulkes estimate   =     -33.74363214 Ry
     estimated scf accuracy    <          4.1E-09 Ry

     convergence has been achieved in   4 iterations

     Forces acting on atoms (Ry/au):

     atom    1 type  2   force =    -0.00047298    0.00469018    0.01200012
     atom    2 type  1   force =     0.00017307   -0.00123979   -0.00398742
     atom    3 type  1   force =     0.00029990   -0.00345039   -0.00801270

     Total force =     0.016121     Total SCF correction =     0.000789

     Entering Dynamics:    iteration =    13
                           time      =   0.0063 pico-seconds


     Andersen thermostat:    3 collisions

ATOMIC_POSITIONS (angstrom)
O       -0.001174645  -0.000605706   0.120949181
H       -0.015462656   0.785918448  -0.489293667
H        0.034070893  -0.776323113  -0.491527953


     kinetic energy (Ekin) =     0.00155077 Ry
     temperature           =    81.61560293 K 
     Ekin + Etot (const)   =   -33.74208140 Ry
     Message from routine dynamics:
     Total linear momentum <> 0

     Linear momentum :   -0.0275095542    0.1177250780    0.1206619986

     Writing output data file pwscf.save

     second order wave-functions extrapolation
     Check: negative starting charge=   -0.071154
     second order charge density extrapolation
     Check: negative starting charge=   -0.071146

     negative rho (up, down):  1.514E-04 0.000E+00

     total cpu time spent up to now is      186.3 secs

     per-process dynamical memory:    48.3 Mb

     Self-consistent Calculation

     iteration #  1     ecut=    60.00 Ry     beta=0.70
     Davidson diagonalization with overlap
     ethr =  1.00E-06,  avg # of iterations =  3.0

     negative rho (up, down):  1.987E-05 0.000E+00

     total cpu time spent up to now is      188.1 secs

     total energy              =     -33.74359431 Ry
     Harris-Foulkes estimate   =     -33.74360465 Ry
     estimated scf accuracy    <       0.00001710 Ry

     iteration #  2     ecut=    60.00 Ry     beta=0.70
     Davidson diagonalization with overlap
     ethr =  2.14E-07,  avg # of iterations =  2.0

     negative rho (up, down):  6.965E-06 0.000E+00

     total cpu time spent up to now is      189.8 secs

     total energy              =     -33.74359606 Ry
     Harris-Foulkes estimate   =     -33.74360260 Ry
     estimated scf accuracy    <       0.00001125 Ry

     iteration #  3     ecut=    60.00 Ry     beta=0.70
     Davidson diagonalization with overlap
     ethr =  1.41E-07,  avg # of iterations =  2.0

     negative rho (up, down):  3.332E-08 0.000E+00

     total cpu time spent up to now is      191.4 secs

     total energy              =     -33.74359871 Ry
     Harris-Foulkes estimate   =     -33.74359889 Ry
     estimated scf accuracy    <       0.00000052 Ry

     iteration #  4     ecut=    60.00 Ry     beta=0.70
     Davidson diagonalization with overlap
     ethr =  6.47E-09,  avg # of iterations =  2.0

     total cpu time spent up to now is      192.7 secs

     End of self-consistent calculation

          k = 0.0000 0.0000 0.0000 ( 62669 PWs)   bands (ev):

   -25.2267 -12.6945  -9.1758  -7.0163  -0.9785   0.3997   0.7494   1.1223

     the Fermi energy is    -5.1248 ev

!    total energy              =     -33.74359886 Ry
     Harris-Foulkes estimate   =     -33.74359882 Ry
     estimated scf accuracy    <          6.5E-09 Ry

     convergence has been achieved in   4 iterations

     Forces acting on atoms (Ry/au):

     atom    1 type  2   force =    -0.00077652    0.00797782    0.00707242
     atom    2 type  1   force =     0.00047093   -0.00804185   -0.00034776
     atom    3 type  1   force =     0.00030559    0.00006402   -0.00672466

     Total force =     0.014987     Total SCF correction =     0.000385

     Entering Dynamics:    iteration =    14
                           time      =   0.0068 pico-seconds


     Andersen thermostat:    3 collisions

ATOMIC_POSITIONS (angstrom)
O       -0.001267761  -0.000503215   0.120972362
H       -0.014640373   0.787032642  -0.490967768
H        0.034723710  -0.779060915  -0.490221068


     kinetic energy (Ekin) =     0.00031006 Ry
     temperature           =    16.31792777 K 
     Ekin + Etot (const)   =   -33.74328880 Ry
     Message from routine dynamics:
     Total linear momentum <> 0

     Linear momentum :   -0.0520022778    0.0348223518   -0.0201174135

     Writing output data file pwscf.save

     second order wave-functions extrapolation
     Check: negative starting charge=   -0.071146
     second order charge density extrapolation
     Check: negative starting charge=   -0.071141

     negative rho (up, down):  3.775E-05 0.000E+00

     total cpu time spent up to now is      198.4 secs

     per-process dynamical memory:    48.3 Mb

     Self-consistent Calculation

     iteration #  1     ecut=    60.00 Ry     beta=0.70
     Davidson diagonalization with overlap
     ethr =  1.00E-06,  avg # of iterations =  2.0

     Threshold (ethr) on eigenvalues was too large:
     Diagonalizing with lowered threshold

     Davidson diagonalization with overlap
     ethr =  4.34E-09,  avg # of iterations =  3.0

     negative rho (up, down):  2.971E-06 0.000E+00

     total cpu time spent up to now is      201.1 secs

     total energy              =     -33.74355977 Ry
     Harris-Foulkes estimate   =     -33.74356064 Ry
     estimated scf accuracy    <       0.00000045 Ry

     iteration #  2     ecut=    60.00 Ry     beta=0.70
     Davidson diagonalization with overlap
     ethr =  5.67E-09,  avg # of iterations =  2.0

     negative rho (up, down):  2.289E-07 0.000E+00

     total cpu time spent up to now is      202.8 secs

     total energy              =     -33.74355958 Ry
     Harris-Foulkes estimate   =     -33.74355984 Ry
     estimated scf accuracy    <       0.00000009 Ry

     iteration #  3     ecut=    60.00 Ry     beta=0.70
     Davidson diagonalization with overlap
     ethr =  1.07E-09,  avg # of iterations =  2.0

     total cpu time spent up to now is      204.6 secs

     total energy              =     -33.74355959 Ry
     Harris-Foulkes estimate   =     -33.74355962 Ry
     estimated scf accuracy    <       0.00000004 Ry

     iteration #  4     ecut=    60.00 Ry     beta=0.70
     Davidson diagonalization with overlap
     ethr =  5.48E-10,  avg # of iterations =  2.0

     total cpu time spent up to now is      206.0 secs

     End of self-consistent calculation

          k = 0.0000 0.0000 0.0000 ( 62669 PWs)   bands (ev):

   -25.2075 -12.6852  -9.1673  -7.0126  -0.9833   0.3981   0.7455   1.1216

     the Fermi energy is    -5.1205 ev

!    total energy              =     -33.74355959 Ry
     Harris-Foulkes estimate   =     -33.74355960 Ry
     estimated scf accuracy    <          3.2E-10 Ry

     convergence has been achieved in   4 iterations

     Forces acting on atoms (Ry/au):

     atom    1 type  2   force =    -0.00088008    0.00827293    0.00484716
     atom    2 type  1   force =     0.00057243   -0.01052980    0.00089349
     atom    3 type  1   force =     0.00030766    0.00225688   -0.00574065

     Total force =     0.015584     Total SCF correction =     0.000131

     Entering Dynamics:    iteration =    15
                           time      =   0.0073 pico-seconds


     Andersen thermostat:    3 collisions

ATOMIC_POSITIONS (angstrom)
O       -0.000840801  -0.000887139   0.120551759
H       -0.016598015   0.787794201  -0.488475613
H        0.029917631  -0.773740512  -0.486050217


     kinetic energy (Ekin) =     0.00158961 Ry
     temperature           =    83.65984906 K 
     Ekin + Etot (const)   =   -33.74196998 Ry
     Message from routine dynamics:
     Total linear momentum <> 0

     Linear momentum :    0.0884506287    0.0498614769   -0.0023010660

     Writing output data file pwscf.save

     second order wave-functions extrapolation
     Check: negative starting charge=   -0.071141
     second order charge density extrapolation
     Check: negative starting charge=   -0.071140

     negative rho (up, down):  4.612E-04 0.000E+00

     total cpu time spent up to now is      211.9 secs

     per-process dynamical memory:    48.3 Mb

     Self-consistent Calculation

     iteration #  1     ecut=    60.00 Ry     beta=0.70
     Davidson diagonalization with overlap
     ethr =  1.00E-06,  avg # of iterations =  4.0

     negative rho (up, down):  8.494E-05 0.000E+00

     total cpu time spent up to now is      213.9 secs

     total energy              =     -33.74344004 Ry
     Harris-Foulkes estimate   =     -33.74345245 Ry
     estimated scf accuracy    <       0.00001806 Ry

     iteration #  2     ecut=    60.00 Ry     beta=0.70
     Davidson diagonalization with overlap
     ethr =  2.26E-07,  avg # of iterations =  2.0

     negative rho (up, down):  3.535E-05 0.000E+00

     total cpu time spent up to now is      215.5 secs

     total energy              =     -33.74344186 Ry
     Harris-Foulkes estimate   =     -33.74344852 Ry
     estimated scf accuracy    <       0.00001126 Ry

     iteration #  3     ecut=    60.00 Ry     beta=0.70
     Davidson diagonalization with overlap
     ethr =  1.41E-07,  avg # of iterations =  2.0

     negative rho (up, down):  3.624E-07 0.000E+00

     total cpu time spent up to now is      217.1 secs

     total energy              =     -33.74344380 Ry
     Harris-Foulkes estimate   =     -33.74344476 Ry
     estimated scf accuracy    <       0.00000057 Ry

     iteration #  4     ecut=    60.00 Ry     beta=0.70
     Davidson diagonalization with overlap
     ethr =  7.11E-09,  avg # of iterations =  2.0

     total cpu time spent up to now is      218.5 secs

     End of self-consistent calculation

          k = 0.0000 0.0000 0.0000 ( 62669 PWs)   bands (ev):

   -25.2487 -12.7308  -9.1641  -7.0192  -0.9708   0.4023   0.7545   1.1228

     the Fermi energy is    -5.1299 ev

!    total energy              =     -33.74344378 Ry
     Harris-Foulkes estimate   =     -33.74344394 Ry
     estimated scf accuracy    <          7.3E-09 Ry

     convergence has been achieved in   4 iterations

     Forces acting on atoms (Ry/au):

     atom    1 type  2   force =    -0.00153248    0.01732816    0.01374113
     atom    2 type  1   force =     0.00071465   -0.01008893   -0.00017026
     atom    3 type  1   force =     0.00081783   -0.00723923   -0.01357087

     Total force =     0.028827     Total SCF correction =     0.001655

     Entering Dynamics:    iteration =    16
                           time      =   0.0077 pico-seconds


     Andersen thermostat:    3 collisions

ATOMIC_POSITIONS (angstrom)
O       -0.000692204  -0.000955102   0.120630745
H       -0.018213738   0.792735018  -0.486720279
H        0.029179351  -0.777604683  -0.489056813


     kinetic energy (Ekin) =     0.00115885 Ry
     temperature           =    60.98942767 K 
     Ekin + Etot (const)   =   -33.74228493 Ry
     Message from routine dynamics:
     Total linear momentum <> 0

     Linear momentum :   -0.0196406320   -0.1185500077    0.0846544873

     Writing output data file pwscf.save

     second order wave-functions extrapolation
     Check: negative starting charge=   -0.071140
     second order charge density extrapolation
     Check: negative starting charge=   -0.071132

     negative rho (up, down):  2.273E-04 0.000E+00

     total cpu time spent up to now is      224.1 secs

     per-process dynamical memory:    48.3 Mb

     Self-consistent Calculation

     iteration #  1     ecut=    60.00 Ry     beta=0.70
     Davidson diagonalization with overlap
     ethr =  1.00E-06,  avg # of iterations =  3.0

     negative rho (up, down):  3.420E-05 0.000E+00

     total cpu time spent up to now is      225.9 secs

     total energy              =     -33.74341500 Ry
     Harris-Foulkes estimate   =     -33.74342864 Ry
     estimated scf accuracy    <       0.00001664 Ry

     iteration #  2     ecut=    60.00 Ry     beta=0.70
     Davidson diagonalization with overlap
     ethr =  2.08E-07,  avg # of iterations =  2.0

     negative rho (up, down):  1.352E-05 0.000E+00

     total cpu time spent up to now is      227.6 secs

     total energy              =     -33.74341712 Ry
     Harris-Foulkes estimate   =     -33.74342433 Ry
     estimated scf accuracy    <       0.00001250 Ry

     iteration #  3     ecut=    60.00 Ry     beta=0.70
     Davidson diagonalization with overlap
     ethr =  1.56E-07,  avg # of iterations =  2.0

     negative rho (up, down):  1.129E-07 0.000E+00

     total cpu time spent up to now is      229.3 secs

     total energy              =     -33.74341966 Ry
     Harris-Foulkes estimate   =     -33.74342007 Ry
     estimated scf accuracy    <       0.00000033 Ry

     iteration #  4     ecut=    60.00 Ry     beta=0.70
     Davidson diagonalization with overlap
     ethr =  4.09E-09,  avg # of iterations =  2.0

     total cpu time spent up to now is      230.8 secs

     End of self-consistent calculation

          k = 0.0000 0.0000 0.0000 ( 62669 PWs)   bands (ev):

   -25.2039 -12.7078  -9.1462  -7.0112  -0.9825   0.3986   0.7449   1.1215

     the Fermi energy is    -5.1197 ev

!    total energy              =     -33.74341966 Ry
     Harris-Foulkes estimate   =     -33.74341974 Ry
     estimated scf accuracy    <          4.3E-09 Ry

     convergence has been achieved in   4 iterations

     Forces acting on atoms (Ry/au):

     atom    1 type  2   force =    -0.00121843    0.01441675    0.00704326
     atom    2 type  1   force =     0.00076137   -0.01432330    0.00202344
     atom    3 type  1   force =     0.00045705   -0.00009345   -0.00906670

     Total force =     0.023477     Total SCF correction =     0.000722

     Entering Dynamics:    iteration =    17
                           time      =   0.0082 pico-seconds


     Andersen thermostat:    3 collisions

ATOMIC_POSITIONS (angstrom)
O       -0.000319945  -0.001225394   0.120407366
H       -0.015340598   0.790853283  -0.485142482
H        0.020409041  -0.771441105  -0.487095927


     kinetic energy (Ekin) =     0.00231588 Ry
     temperature           =   121.88266301 K 
     Ekin + Etot (const)   =   -33.74110378 Ry
     Message from routine dynamics:
     Total linear momentum <> 0

     Linear momentum :    0.0586631782    0.0299481903    0.0253887059

     Writing output data file pwscf.save

     second order wave-functions extrapolation
     Check: negative starting charge=   -0.071132
     second order charge density extrapolation
     Check: negative starting charge=   -0.071137

     negative rho (up, down):  1.721E-04 0.000E+00

     total cpu time spent up to now is      236.4 secs

     per-process dynamical memory:    48.3 Mb

     Self-consistent Calculation

     iteration #  1     ecut=    60.00 Ry     beta=0.70
     Davidson diagonalization with overlap
     ethr =  1.00E-06,  avg # of iterations =  3.0

     Threshold (ethr) on eigenvalues was too large:
     Diagonalizing with lowered threshold

     Davidson diagonalization with overlap
     ethr =  5.79E-08,  avg # of iterations =  1.0

     negative rho (up, down):  2.344E-05 0.000E+00

     total cpu time spent up to now is      239.0 secs

     total energy              =     -33.74336175 Ry
     Harris-Foulkes estimate   =     -33.74336483 Ry
     estimated scf accuracy    <       0.00000456 Ry

     iteration #  2     ecut=    60.00 Ry     beta=0.70
     Davidson diagonalization with overlap
     ethr =  5.70E-08,  avg # of iterations =  2.0

     negative rho (up, down):  5.268E-06 0.000E+00

     total cpu time spent up to now is      240.6 secs

     total energy              =     -33.74336163 Ry
     Harris-Foulkes estimate   =     -33.74336282 Ry
     estimated scf accuracy    <       0.00000160 Ry

     iteration #  3     ecut=    60.00 Ry     beta=0.70
     Davidson diagonalization with overlap
     ethr =  2.00E-08,  avg # of iterations =  2.0

     total cpu time spent up to now is      242.3 secs

     total energy              =     -33.74336233 Ry
     Harris-Foulkes estimate   =     -33.74336219 Ry
     estimated scf accuracy    <       0.00000040 Ry

     iteration #  4     ecut=    60.00 Ry     beta=0.70
     Davidson diagonalization with overlap
     ethr =  4.99E-09,  avg # of iterations =  2.0

     total cpu time spent up to now is      243.7 secs

     End of self-consistent calculation

          k = 0.0000 0.0000 0.0000 ( 62669 PWs)   bands (ev):

   -25.2536 -12.7430  -9.1585  -7.0200  -0.9692   0.4024   0.7553   1.1227

     the Fermi energy is    -5.1312 ev

!    total energy              =     -33.74336238 Ry
     Harris-Foulkes estimate   =     -33.74336241 Ry
     estimated scf accuracy    <          1.4E-09 Ry

     convergence has been achieved in   4 iterations

     Forces acting on atoms (Ry/au):

     atom    1 type  2   force =    -0.00071448    0.01965778    0.01461837
     atom    2 type  1   force =     0.00032936   -0.01078061    0.00055486
     atom    3 type  1   force =     0.00038512   -0.00887716   -0.01517322

     Total force =     0.032038     Total SCF correction =     0.000204

     Entering Dynamics:    iteration =    18
                           time      =   0.0087 pico-seconds


     Andersen thermostat:    3 collisions

ATOMIC_POSITIONS (angstrom)
O       -0.000329753  -0.000442901   0.120600696
H       -0.012970071   0.781414619  -0.487540959
H        0.018193885  -0.774398370  -0.487760099


     kinetic energy (Ekin) =     0.00212543 Ry
     temperature           =   111.85940499 K 
     Ekin + Etot (const)   =   -33.74123695 Ry
     Message from routine dynamics:
     Total linear momentum <> 0

     Linear momentum :   -0.0438782495   -0.0649248822    0.1066919630

     Writing output data file pwscf.save

     second order wave-functions extrapolation
     Check: negative starting charge=   -0.071137
     second order charge density extrapolation
     Check: negative starting charge=   -0.071148

     negative rho (up, down):  6.356E-04 0.000E+00

     total cpu time spent up to now is      249.4 secs

     per-process dynamical memory:    48.3 Mb

     Self-consistent Calculation

     iteration #  1     ecut=    60.00 Ry     beta=0.70
     Davidson diagonalization with overlap
     ethr =  1.00E-06,  avg # of iterations =  4.0

     negative rho (up, down):  1.274E-04 0.000E+00

     total cpu time spent up to now is      251.6 secs

     total energy              =     -33.73948238 Ry
     Harris-Foulkes estimate   =     -33.73948668 Ry
     estimated scf accuracy    <       0.00001956 Ry

     iteration #  2     ecut=    60.00 Ry     beta=0.70
     Davidson diagonalization with overlap
     ethr =  2.44E-07,  avg # of iterations =  3.0

     negative rho (up, down):  3.689E-05 0.000E+00

     total cpu time spent up to now is      253.6 secs

     total energy              =     -33.74356005 Ry
     Harris-Foulkes estimate   =     -33.74356493 Ry
     estimated scf accuracy    <       0.00000500 Ry

     iteration #  3     ecut=    60.00 Ry     beta=0.70
     Davidson diagonalization with overlap
     ethr =  6.24E-08,  avg # of iterations =  2.0

     negative rho (up, down):  1.473E-06 0.000E+00

     total cpu time spent up to now is      255.3 secs

     total energy              =     -33.74356097 Ry
     Harris-Foulkes estimate   =     -33.74356191 Ry
     estimated scf accuracy    <       0.00000134 Ry

     iteration #  4     ecut=    60.00 Ry     beta=0.70
     Davidson diagonalization with overlap
     ethr =  1.68E-08,  avg # of iterations =  2.0

     negative rho (up, down):  1.497E-08 0.000E+00

     total cpu time spent up to now is      257.0 secs

     total energy              =     -33.74356147 Ry
     Harris-Foulkes estimate   =     -33.74356129 Ry
     estimated scf accuracy    <       0.00000003 Ry

     iteration #  5     ecut=    60.00 Ry     beta=0.70
     Davidson diagonalization with overlap
     ethr =  4.04E-10,  avg # of iterations =  2.0

     total cpu time spent up to now is      258.3 secs

     End of self-consistent calculation

          k = 0.0000 0.0000 0.0000 ( 62669 PWs)   bands (ev):

   -25.2751 -12.7386  -9.1803  -7.0246  -0.9643   0.4043   0.7596   1.1236

     the Fermi energy is    -5.1360 ev

!    total energy              =     -33.74356145 Ry
     Harris-Foulkes estimate   =     -33.74356148 Ry
     estimated scf accuracy    <          6.8E-10 Ry

     convergence has been achieved in   5 iterations

     Forces acting on atoms (Ry/au):

     atom    1 type  2   force =    -0.00041546    0.00716795    0.01547328
     atom    2 type  1   force =     0.00014961   -0.00171908   -0.00473962
     atom    3 type  1   force =     0.00026585   -0.00544887   -0.01073366

     Total force =     0.021480     Total SCF correction =     0.000498

     Entering Dynamics:    iteration =    19
                           time      =   0.0092 pico-seconds


     Andersen thermostat:    3 collisions

ATOMIC_POSITIONS (angstrom)
O       -0.000186481   0.000121000   0.120266709
H       -0.016610168   0.781058809  -0.485531480
H        0.019564330  -0.782975646  -0.484478710


     kinetic energy (Ekin) =     0.00198720 Ry
     temperature           =   104.58475952 K 
     Ekin + Etot (const)   =   -33.74157425 Ry
     Message from routine dynamics:
     Total linear momentum <> 0

     Linear momentum :   -0.1106598100   -0.0360026991    0.0054635017

     Writing output data file pwscf.save

     second order wave-functions extrapolation
     Check: negative starting charge=   -0.071148
     second order charge density extrapolation
     Check: negative starting charge=   -0.071137

     negative rho (up, down):  5.349E-04 0.000E+00

     total cpu time spent up to now is      264.0 secs

     per-process dynamical memory:    48.3 Mb

     Self-consistent Calculation

     iteration #  1     ecut=    60.00 Ry     beta=0.70
     Davidson diagonalization with overlap
     ethr =  1.00E-06,  avg # of iterations =  3.0

     Threshold (ethr) on eigenvalues was too large:
     Diagonalizing with lowered threshold

     Davidson diagonalization with overlap
     ethr =  8.53E-08,  avg # of iterations =  1.0

     negative rho (up, down):  1.023E-04 0.000E+00

     total cpu time spent up to now is      266.9 secs

     total energy              =     -33.73944199 Ry
     Harris-Foulkes estimate   =     -33.73944520 Ry
     estimated scf accuracy    <       0.00000688 Ry

     iteration #  2     ecut=    60.00 Ry     beta=0.70
     Davidson diagonalization with overlap
     ethr =  8.60E-08,  avg # of iterations =  2.0

     negative rho (up, down):  3.433E-05 0.000E+00

     total cpu time spent up to now is      268.6 secs

     total energy              =     -33.74351862 Ry
     Harris-Foulkes estimate   =     -33.74352164 Ry
     estimated scf accuracy    <       0.00000270 Ry

     iteration #  3     ecut=    60.00 Ry     beta=0.70
     Davidson diagonalization with overlap
     ethr =  3.38E-08,  avg # of iterations =  2.0

     negative rho (up, down):  9.454E-08 0.000E+00

     total cpu time spent up to now is      270.3 secs

     total energy              =     -33.74351823 Ry
     Harris-Foulkes estimate   =     -33.74351951 Ry
     estimated scf accuracy    <       0.00000047 Ry

     iteration #  4     ecut=    60.00 Ry     beta=0.70
     Davidson diagonalization with overlap
     ethr =  5.87E-09,  avg # of iterations =  2.0

     total cpu time spent up to now is      271.7 secs

     End of self-consistent calculation

          k = 0.0000 0.0000 0.0000 ( 62669 PWs)   bands (ev):

   -25.2502 -12.7524  -9.1492  -7.0191  -0.9679   0.4035   0.7550   1.1227

     the Fermi energy is    -5.1304 ev

!    total energy              =     -33.74351796 Ry
     Harris-Foulkes estimate   =     -33.74351834 Ry
     estimated scf accuracy    <          3.4E-09 Ry

     convergence has been achieved in   4 iterations

     Forces acting on atoms (Ry/au):

     atom    1 type  2   force =    -0.00037410   -0.00166218    0.01563634
     atom    2 type  1   force =     0.00021951   -0.00065984   -0.00836803
     atom    3 type  1   force =     0.00015459    0.00232202   -0.00726831

     Total force =     0.019395     Total SCF correction =     0.001019

     Entering Dynamics:    iteration =    20
                           time      =   0.0097 pico-seconds


     Andersen thermostat:    3 collisions

ATOMIC_POSITIONS (angstrom)
O       -0.000787937   0.000422461   0.120622862
H       -0.018816527   0.778176051  -0.486081781
H        0.031298698  -0.784868500  -0.489570435


     kinetic energy (Ekin) =     0.00322767 Ry
     temperature           =   169.86948856 K 
     Ekin + Etot (const)   =   -33.74029029 Ry
     Message from routine dynamics:
     Total linear momentum <> 0

     Linear momentum :   -0.0951250745   -0.0523000836   -0.0195442813

     Writing output data file pwscf.save

     second order wave-functions extrapolation
     Check: negative starting charge=   -0.071137
     second order charge density extrapolation
     Check: negative starting charge=   -0.071141

     negative rho (up, down):  6.892E-04 0.000E+00

     total cpu time spent up to now is      277.5 secs

     per-process dynamical memory:    48.3 Mb

     Self-consistent Calculation

     iteration #  1     ecut=    60.00 Ry     beta=0.70
     Davidson diagonalization with overlap
     ethr =  1.00E-06,  avg # of iterations =  4.0

     negative rho (up, down):  1.398E-04 0.000E+00

     total cpu time spent up to now is      279.6 secs

     total energy              =     -33.73945465 Ry
     Harris-Foulkes estimate   =     -33.73945138 Ry
     estimated scf accuracy    <       0.00001874 Ry

     iteration #  2     ecut=    60.00 Ry     beta=0.70
     Davidson diagonalization with overlap
     ethr =  2.34E-07,  avg # of iterations =  3.0

     negative rho (up, down):  4.927E-05 0.000E+00

     total cpu time spent up to now is      281.4 secs

     total energy              =     -33.74353216 Ry
     Harris-Foulkes estimate   =     -33.74353756 Ry
     estimated scf accuracy    <       0.00000724 Ry

     iteration #  3     ecut=    60.00 Ry     beta=0.70
     Davidson diagonalization with overlap
     ethr =  9.06E-08,  avg # of iterations =  2.0

     negative rho (up, down):  4.583E-08 0.000E+00

     total cpu time spent up to now is      283.0 secs

     total energy              =     -33.74353337 Ry
     Harris-Foulkes estimate   =     -33.74353456 Ry
     estimated scf accuracy    <       0.00000137 Ry

     iteration #  4     ecut=    60.00 Ry     beta=0.70
     Davidson diagonalization with overlap
     ethr =  1.71E-08,  avg # of iterations =  2.0

     total cpu time spent up to now is      284.3 secs

     End of self-consistent calculation

          k = 0.0000 0.0000 0.0000 ( 62669 PWs)   bands (ev):

   -25.2379 -12.7223  -9.1630  -7.0177  -0.9737   0.4013   0.7520   1.1226

     the Fermi energy is    -5.1274 ev

!    total energy              =     -33.74353360 Ry
     Harris-Foulkes estimate   =     -33.74353366 Ry
     estimated scf accuracy    <          8.0E-09 Ry

     convergence has been achieved in   4 iterations

     Forces acting on atoms (Ry/au):

     atom    1 type  2   force =     0.00021712   -0.01049816    0.01060170
     atom    2 type  1   force =     0.00003559    0.00238729   -0.00941759
     atom    3 type  1   force =    -0.00025271    0.00811086   -0.00118411

     Total force =     0.019604     Total SCF correction =     0.000885

     Entering Dynamics:    iteration =    21
                           time      =   0.0102 pico-seconds


     Andersen thermostat:    3 collisions

ATOMIC_POSITIONS (angstrom)
O       -0.001262613   0.000836399   0.121500655
H       -0.018700825   0.775646644  -0.485288298
H        0.038702612  -0.788896535  -0.504269548


     kinetic energy (Ekin) =     0.00520239 Ry
     temperature           =   273.79689480 K 
     Ekin + Etot (const)   =   -33.73833121 Ry
     Message from routine dynamics:
     Total linear momentum <> 0

     Linear momentum :    0.0323559434   -0.0292824829    0.0334883485

     Writing output data file pwscf.save

     second order wave-functions extrapolation
     Check: negative starting charge=   -0.071141
     second order charge density extrapolation
     Check: negative starting charge=   -0.071141

     negative rho (up, down):  4.544E-04 0.000E+00

     total cpu time spent up to now is      289.9 secs

     per-process dynamical memory:    48.3 Mb

     Self-consistent Calculation

     iteration #  1     ecut=    60.00 Ry     beta=0.70
     Davidson diagonalization with overlap
     ethr =  1.00E-06,  avg # of iterations =  3.0

     negative rho (up, down):  8.420E-05 0.000E+00

     total cpu time spent up to now is      292.0 secs

     total energy              =     -33.73910128 Ry
     Harris-Foulkes estimate   =     -33.73913073 Ry
     estimated scf accuracy    <       0.00004879 Ry

     iteration #  2     ecut=    60.00 Ry     beta=0.70
     Davidson diagonalization with overlap
     ethr =  6.10E-07,  avg # of iterations =  3.0

     negative rho (up, down):  3.829E-05 0.000E+00

     total cpu time spent up to now is      293.8 secs

     total energy              =     -33.74318462 Ry
     Harris-Foulkes estimate   =     -33.74320593 Ry
     estimated scf accuracy    <       0.00003866 Ry

     iteration #  3     ecut=    60.00 Ry     beta=0.70
     Davidson diagonalization with overlap
     ethr =  4.83E-07,  avg # of iterations =  2.0

     negative rho (up, down):  3.765E-07 0.000E+00

     total cpu time spent up to now is      295.5 secs

     total energy              =     -33.74319293 Ry
     Harris-Foulkes estimate   =     -33.74319358 Ry
     estimated scf accuracy    <       0.00000098 Ry

     iteration #  4     ecut=    60.00 Ry     beta=0.70
[...]

     total cpu time spent up to now is      998.2 secs

     total energy              =     -33.74321519 Ry
     Harris-Foulkes estimate   =     -33.74321519 Ry
     estimated scf accuracy    <       0.00000111 Ry

     iteration # 54     ecut=    60.00 Ry     beta=0.70
     Davidson diagonalization with overlap
     ethr =  1.28E-08,  avg # of iterations =  1.0

     total cpu time spent up to now is     1000.5 secs

     total energy              =     -33.74321519 Ry
     Harris-Foulkes estimate   =     -33.74321519 Ry
     estimated scf accuracy    <       0.00000111 Ry

     iteration # 55     ecut=    60.00 Ry     beta=0.70
     Davidson diagonalization with overlap
     ethr =  1.28E-08,  avg # of iterations =  1.0

     total cpu time spent up to now is     1002.6 secs

     total energy              =     -33.74321519 Ry
     Harris-Foulkes estimate   =     -33.74321519 Ry
     estimated scf accuracy    <       0.00000111 Ry

     iteration # 56     ecut=    60.00 Ry     beta=0.70
     Davidson diagonalization with overlap
     ethr =  1.28E-08,  avg # of iterations =  1.0

     total cpu time spent up to now is     1005.5 secs

     total energy              =     -33.74321519 Ry
     Harris-Foulkes estimate   =     -33.74321519 Ry
     estimated scf accuracy    <       0.00000111 Ry

     iteration # 57     ecut=    60.00 Ry     beta=0.70
     Davidson diagonalization with overlap
     ethr =  1.28E-08,  avg # of iterations =  1.0

     total cpu time spent up to now is     1007.8 secs

     total energy              =     -33.74321519 Ry
     Harris-Foulkes estimate   =     -33.74321519 Ry
     estimated scf accuracy    <       0.00000111 Ry

     iteration # 58     ecut=    60.00 Ry     beta=0.70
     Davidson diagonalization with overlap
     ethr =  1.28E-08,  avg # of iterations =  1.0

     total cpu time spent up to now is     1009.8 secs

     total energy              =     -33.74321519 Ry
     Harris-Foulkes estimate   =     -33.74321519 Ry
     estimated scf accuracy    <       0.00000111 Ry

     iteration # 59     ecut=    60.00 Ry     beta=0.70
     Davidson diagonalization with overlap
     ethr =  1.28E-08,  avg # of iterations =  1.0

     total cpu time spent up to now is     1011.7 secs

     total energy              =     -33.74321519 Ry
     Harris-Foulkes estimate   =     -33.74321519 Ry
     estimated scf accuracy    <       0.00000111 Ry

     iteration # 60     ecut=    60.00 Ry     beta=0.70
     Davidson diagonalization with overlap
     ethr =  1.28E-08,  avg # of iterations =  1.0

     total cpu time spent up to now is     1013.9 secs

     total energy              =     -33.74321519 Ry
     Harris-Foulkes estimate   =     -33.74321519 Ry
     estimated scf accuracy    <       0.00000111 Ry

     iteration # 61     ecut=    60.00 Ry     beta=0.70
     Davidson diagonalization with overlap
     ethr =  1.28E-08,  avg # of iterations =  1.0

     total cpu time spent up to now is     1016.2 secs

     total energy              =     -33.74321519 Ry
     Harris-Foulkes estimate   =     -33.74321519 Ry
     estimated scf accuracy    <       0.00000111 Ry

     iteration # 62     ecut=    60.00 Ry     beta=0.70
     Davidson diagonalization with overlap
     ethr =  1.28E-08,  avg # of iterations =  1.0

     total cpu time spent up to now is     1018.4 secs

     total energy              =     -33.74321519 Ry
     Harris-Foulkes estimate   =     -33.74321519 Ry
     estimated scf accuracy    <       0.00000111 Ry

     iteration # 63     ecut=    60.00 Ry     beta=0.70
     Davidson diagonalization with overlap
     ethr =  1.28E-08,  avg # of iterations =  1.0

     total cpu time spent up to now is     1020.6 secs

     total energy              =     -33.74321519 Ry
     Harris-Foulkes estimate   =     -33.74321519 Ry
     estimated scf accuracy    <       0.00000113 Ry

     iteration # 64     ecut=    60.00 Ry     beta=0.70
     Davidson diagonalization with overlap
     ethr =  1.28E-08,  avg # of iterations =  1.0

     total cpu time spent up to now is     1022.8 secs

     total energy              =     -33.74321519 Ry
     Harris-Foulkes estimate   =     -33.74321519 Ry
     estimated scf accuracy    <       0.00000111 Ry

     iteration # 65     ecut=    60.00 Ry     beta=0.70
     Davidson diagonalization with overlap
     ethr =  1.28E-08,  avg # of iterations =  1.0

     total cpu time spent up to now is     1025.0 secs

     total energy              =     -33.74321519 Ry
     Harris-Foulkes estimate   =     -33.74321519 Ry
     estimated scf accuracy    <       0.00000111 Ry

     iteration # 66     ecut=    60.00 Ry     beta=0.70
     Davidson diagonalization with overlap
     ethr =  1.28E-08,  avg # of iterations =  1.0

     total cpu time spent up to now is     1027.3 secs

     total energy              =     -33.74321519 Ry
     Harris-Foulkes estimate   =     -33.74321519 Ry
     estimated scf accuracy    <       0.00000111 Ry

     iteration # 67     ecut=    60.00 Ry     beta=0.70
     Davidson diagonalization with overlap
     ethr =  1.28E-08,  avg # of iterations =  1.0

     total cpu time spent up to now is     1029.5 secs

     total energy              =     -33.74321519 Ry
     Harris-Foulkes estimate   =     -33.74321519 Ry
     estimated scf accuracy    <       0.00000111 Ry

     iteration # 68     ecut=    60.00 Ry     beta=0.70
     Davidson diagonalization with overlap
     ethr =  1.28E-08,  avg # of iterations =  1.0

     total cpu time spent up to now is     1031.8 secs

     total energy              =     -33.74321519 Ry
     Harris-Foulkes estimate   =     -33.74321519 Ry
     estimated scf accuracy    <       0.00000111 Ry

     iteration # 69     ecut=    60.00 Ry     beta=0.70
     Davidson diagonalization with overlap
     ethr =  1.28E-08,  avg # of iterations =  1.0

     total cpu time spent up to now is     1034.0 secs

     total energy              =     -33.74321519 Ry
     Harris-Foulkes estimate   =     -33.74321519 Ry
     estimated scf accuracy    <       0.00000111 Ry

     iteration # 70     ecut=    60.00 Ry     beta=0.70
     Davidson diagonalization with overlap
     ethr =  1.28E-08,  avg # of iterations =  1.0

     total cpu time spent up to now is     1036.2 secs

     total energy              =     -33.74321519 Ry
     Harris-Foulkes estimate   =     -33.74321519 Ry
     estimated scf accuracy    <       0.00000111 Ry

     iteration # 71     ecut=    60.00 Ry     beta=0.70
     Davidson diagonalization with overlap
     ethr =  1.28E-08,  avg # of iterations =  1.0

     total cpu time spent up to now is     1038.4 secs

     total energy              =     -33.74321519 Ry
     Harris-Foulkes estimate   =     -33.74321519 Ry
     estimated scf accuracy    <       0.00000111 Ry

     iteration # 72     ecut=    60.00 Ry     beta=0.70
     Davidson diagonalization with overlap
     ethr =  1.28E-08,  avg # of iterations =  1.0

     total cpu time spent up to now is     1040.7 secs

     total energy              =     -33.74321519 Ry
     Harris-Foulkes estimate   =     -33.74321519 Ry
     estimated scf accuracy    <       0.00000111 Ry

     iteration # 73     ecut=    60.00 Ry     beta=0.70
     Davidson diagonalization with overlap
     ethr =  1.28E-08,  avg # of iterations =  1.0

     total cpu time spent up to now is     1043.0 secs

     total energy              =     -33.74321519 Ry
     Harris-Foulkes estimate   =     -33.74321519 Ry
     estimated scf accuracy    <       0.00000111 Ry

     iteration # 74     ecut=    60.00 Ry     beta=0.70
     Davidson diagonalization with overlap
     ethr =  1.28E-08,  avg # of iterations =  1.0

     total cpu time spent up to now is     1045.3 secs

     total energy              =     -33.74321519 Ry
     Harris-Foulkes estimate   =     -33.74321519 Ry
     estimated scf accuracy    <       0.00000111 Ry

     iteration # 75     ecut=    60.00 Ry     beta=0.70
     Davidson diagonalization with overlap
     ethr =  1.28E-08,  avg # of iterations =  1.0

     total cpu time spent up to now is     1047.5 secs

     total energy              =     -33.74321519 Ry
     Harris-Foulkes estimate   =     -33.74321519 Ry
     estimated scf accuracy    <       0.00000111 Ry

     iteration # 76     ecut=    60.00 Ry     beta=0.70
     Davidson diagonalization with overlap
     ethr =  1.28E-08,  avg # of iterations =  1.0

     total cpu time spent up to now is     1049.7 secs

     total energy              =     -33.74321519 Ry
     Harris-Foulkes estimate   =     -33.74321519 Ry
     estimated scf accuracy    <       0.00000111 Ry

     iteration # 77     ecut=    60.00 Ry     beta=0.70
     Davidson diagonalization with overlap
     ethr =  1.28E-08,  avg # of iterations =  1.0

     total cpu time spent up to now is     1051.9 secs

     total energy              =     -33.74321519 Ry
     Harris-Foulkes estimate   =     -33.74321519 Ry
     estimated scf accuracy    <       0.00000111 Ry

     iteration # 78     ecut=    60.00 Ry     beta=0.70
     Davidson diagonalization with overlap
     ethr =  1.28E-08,  avg # of iterations =  1.0

     total cpu time spent up to now is     1054.1 secs

     total energy              =     -33.74321519 Ry
     Harris-Foulkes estimate   =     -33.74321519 Ry
     estimated scf accuracy    <       0.00000112 Ry

     iteration # 79     ecut=    60.00 Ry     beta=0.70
     Davidson diagonalization with overlap
     ethr =  1.28E-08,  avg # of iterations =  1.0

     total cpu time spent up to now is     1056.5 secs

     total energy              =     -33.74321519 Ry
     Harris-Foulkes estimate   =     -33.74321519 Ry
     estimated scf accuracy    <       0.00000111 Ry

     iteration # 80     ecut=    60.00 Ry     beta=0.70
     Davidson diagonalization with overlap
     ethr =  1.28E-08,  avg # of iterations =  1.0

     total cpu time spent up to now is     1058.6 secs

     total energy              =     -33.74321519 Ry
     Harris-Foulkes estimate   =     -33.74321519 Ry
     estimated scf accuracy    <       0.00000111 Ry

     iteration # 81     ecut=    60.00 Ry     beta=0.70
     Davidson diagonalization with overlap
     ethr =  1.28E-08,  avg # of iterations =  1.0

     negative rho (up, down):  1.565E-06 0.000E+00

     total cpu time spent up to now is     1060.8 secs

     total energy              =     -33.74321511 Ry
     Harris-Foulkes estimate   =     -33.74321519 Ry
     estimated scf accuracy    <       0.00000111 Ry

     iteration # 82     ecut=    60.00 Ry     beta=0.70
     Davidson diagonalization with overlap
     ethr =  1.28E-08,  avg # of iterations =  1.0

     total cpu time spent up to now is     1062.8 secs

     total energy              =     -33.74321519 Ry
     Harris-Foulkes estimate   =     -33.74321511 Ry
     estimated scf accuracy    <       0.00000110 Ry

     iteration # 83     ecut=    60.00 Ry     beta=0.70
     Davidson diagonalization with overlap
     ethr =  1.28E-08,  avg # of iterations =  1.0

     total cpu time spent up to now is     1065.0 secs

     total energy              =     -33.74321519 Ry
     Harris-Foulkes estimate   =     -33.74321519 Ry
     estimated scf accuracy    <       0.00000111 Ry

     iteration # 84     ecut=    60.00 Ry     beta=0.70
     Davidson diagonalization with overlap
     ethr =  1.28E-08,  avg # of iterations =  1.0

     total cpu time spent up to now is     1067.4 secs

     total energy              =     -33.74321519 Ry
     Harris-Foulkes estimate   =     -33.74321519 Ry
     estimated scf accuracy    <       0.00000111 Ry

     iteration # 85     ecut=    60.00 Ry     beta=0.70
     Davidson diagonalization with overlap
     ethr =  1.28E-08,  avg # of iterations =  1.0

     total cpu time spent up to now is     1069.6 secs

     total energy              =     -33.74321519 Ry
     Harris-Foulkes estimate   =     -33.74321519 Ry
     estimated scf accuracy    <       0.00000111 Ry

     iteration # 86     ecut=    60.00 Ry     beta=0.70
     Davidson diagonalization with overlap
     ethr =  1.28E-08,  avg # of iterations =  1.0

     total cpu time spent up to now is     1071.6 secs

     total energy              =     -33.74321519 Ry
     Harris-Foulkes estimate   =     -33.74321519 Ry
     estimated scf accuracy    <       0.00000111 Ry

     iteration # 87     ecut=    60.00 Ry     beta=0.70
     Davidson diagonalization with overlap
     ethr =  1.28E-08,  avg # of iterations =  1.0

     total cpu time spent up to now is     1073.8 secs

     total energy              =     -33.74321519 Ry
     Harris-Foulkes estimate   =     -33.74321519 Ry
     estimated scf accuracy    <       0.00000111 Ry

     iteration # 88     ecut=    60.00 Ry     beta=0.70
     Davidson diagonalization with overlap
     ethr =  1.28E-08,  avg # of iterations =  1.0

     total cpu time spent up to now is     1076.1 secs

     total energy              =     -33.74321519 Ry
     Harris-Foulkes estimate   =     -33.74321519 Ry
     estimated scf accuracy    <       0.00000111 Ry

     iteration # 89     ecut=    60.00 Ry     beta=0.70
     Davidson diagonalization with overlap
     ethr =  1.28E-08,  avg # of iterations =  1.0

     total cpu time spent up to now is     1078.6 secs

     total energy              =     -33.74321519 Ry
     Harris-Foulkes estimate   =     -33.74321519 Ry
     estimated scf accuracy    <       0.00000112 Ry

     iteration # 90     ecut=    60.00 Ry     beta=0.70
     Davidson diagonalization with overlap
     ethr =  1.28E-08,  avg # of iterations =  1.0

     total cpu time spent up to now is     1081.0 secs

     total energy              =     -33.74321519 Ry
     Harris-Foulkes estimate   =     -33.74321519 Ry
     estimated scf accuracy    <       0.00000111 Ry

     iteration # 91     ecut=    60.00 Ry     beta=0.70
     Davidson diagonalization with overlap
     ethr =  1.28E-08,  avg # of iterations =  1.0

     total cpu time spent up to now is     1083.1 secs

     total energy              =     -33.74321519 Ry
     Harris-Foulkes estimate   =     -33.74321519 Ry
     estimated scf accuracy    <       0.00000111 Ry

     iteration # 92     ecut=    60.00 Ry     beta=0.70
     Davidson diagonalization with overlap
     ethr =  1.28E-08,  avg # of iterations =  1.0

     total cpu time spent up to now is     1085.2 secs

     total energy              =     -33.74321519 Ry
     Harris-Foulkes estimate   =     -33.74321519 Ry
     estimated scf accuracy    <       0.00000111 Ry

     iteration # 93     ecut=    60.00 Ry     beta=0.70
     Davidson diagonalization with overlap
     ethr =  1.28E-08,  avg # of iterations =  1.0

     total cpu time spent up to now is     1087.2 secs

     total energy              =     -33.74321519 Ry
     Harris-Foulkes estimate   =     -33.74321519 Ry
     estimated scf accuracy    <       0.00000111 Ry

     iteration # 94     ecut=    60.00 Ry     beta=0.70
     Davidson diagonalization with overlap
     ethr =  1.28E-08,  avg # of iterations =  1.0

     total cpu time spent up to now is     1089.3 secs

     total energy              =     -33.74321519 Ry
     Harris-Foulkes estimate   =     -33.74321519 Ry
     estimated scf accuracy    <       0.00000111 Ry

     iteration # 95     ecut=    60.00 Ry     beta=0.70
     Davidson diagonalization with overlap
     ethr =  1.28E-08,  avg # of iterations =  1.0

     total cpu time spent up to now is     1091.3 secs

     total energy              =     -33.74321519 Ry
     Harris-Foulkes estimate   =     -33.74321519 Ry
     estimated scf accuracy    <       0.00000111 Ry

     iteration # 96     ecut=    60.00 Ry     beta=0.70
     Davidson diagonalization with overlap
     ethr =  1.28E-08,  avg # of iterations =  1.0

     total cpu time spent up to now is     1093.4 secs

     total energy              =     -33.74321519 Ry
     Harris-Foulkes estimate   =     -33.74321519 Ry
     estimated scf accuracy    <       0.00000111 Ry

     iteration # 97     ecut=    60.00 Ry     beta=0.70
     Davidson diagonalization with overlap
     ethr =  1.28E-08,  avg # of iterations =  1.0

     total cpu time spent up to now is     1095.5 secs

     total energy              =     -33.74321519 Ry
     Harris-Foulkes estimate   =     -33.74321519 Ry
     estimated scf accuracy    <       0.00000111 Ry

     iteration # 98     ecut=    60.00 Ry     beta=0.70
     Davidson diagonalization with overlap
     ethr =  1.28E-08,  avg # of iterations =  1.0

     negative rho (up, down):  2.968E-05 0.000E+00

     total cpu time spent up to now is     1097.3 secs

     total energy              =     -33.74321471 Ry
     Harris-Foulkes estimate   =     -33.74321519 Ry
     estimated scf accuracy    <       0.00000111 Ry

     iteration # 99     ecut=    60.00 Ry     beta=0.70
     Davidson diagonalization with overlap
     ethr =  1.28E-08,  avg # of iterations =  2.0

     negative rho (up, down):  1.808E-05 0.000E+00

     total cpu time spent up to now is     1099.1 secs

     total energy              =     -33.74321520 Ry
     Harris-Foulkes estimate   =     -33.74321523 Ry
     estimated scf accuracy    <       0.00000104 Ry

     iteration #100     ecut=    60.00 Ry     beta=0.70
     Davidson diagonalization with overlap
     ethr =  1.28E-08,  avg # of iterations =  1.0

     negative rho (up, down):  5.283E-05 0.000E+00

     total cpu time spent up to now is     1100.8 secs

     total energy              =     -33.74321528 Ry
     Harris-Foulkes estimate   =     -33.74321520 Ry
     estimated scf accuracy    <       0.00000097 Ry

     End of self-consistent calculation

     convergence NOT achieved after 100 iterations: stopping

     Writing output data file pwscf.save
 
     init_run     :      0.30s CPU      3.29s WALL (       1 calls)
     electrons    :     63.42s CPU    789.41s WALL (      65 calls)
     update_pot   :     19.29s CPU    232.85s WALL (      64 calls)
     forces       :      4.42s CPU     45.03s WALL (      64 calls)

     Called by init_run:
     wfcinit      :      0.04s CPU      0.41s WALL (       1 calls)
     potinit      :      0.09s CPU      1.03s WALL (       1 calls)

     Called by electrons:
     c_bands      :     31.69s CPU    321.92s WALL (     406 calls)
     sum_band     :      8.24s CPU     82.01s WALL (     406 calls)
     v_of_rho     :     16.76s CPU    177.04s WALL (     447 calls)
     mix_rho      :      5.17s CPU    151.06s WALL (     406 calls)

     Called by c_bands:
     init_us_2    :      0.27s CPU      0.29s WALL (     813 calls)
     cegterg      :     31.39s CPU    311.14s WALL (     406 calls)

     Called by sum_band:

     Called by *egterg:
     h_psi        :     28.28s CPU    285.20s WALL (    1277 calls)
     g_psi        :      0.25s CPU      0.25s WALL (     870 calls)
     cdiaghg      :      0.26s CPU      2.61s WALL (    1188 calls)

     Called by h_psi:
     h_psi:pot    :     28.03s CPU    284.95s WALL (    1277 calls)
     h_psi:calbec :      0.37s CPU      9.83s WALL (    1277 calls)
     vloc_psi     :     27.53s CPU    274.98s WALL (    1277 calls)
     add_vuspsi   :      0.13s CPU      0.13s WALL (    1277 calls)

     General routines
     calbec       :      0.60s CPU     13.93s WALL (    1595 calls)
     fft          :     11.58s CPU    191.31s WALL (    5093 calls)
     fftw         :     28.57s CPU    331.04s WALL (   19570 calls)
     davcio       :      1.09s CPU     80.66s WALL (    3539 calls)
 
     Parallel routines
     fft_scatter  :     14.74s CPU    496.24s WALL (   24663 calls)
 
     PWSCF        :  1m29.69s CPU    18m21.84s WALL

 
   This run was terminated on:  19:14:55  12Apr2018            

=------------------------------------------------------------------------------=
   JOB DONE.
=------------------------------------------------------------------------------=
