
     Program PWSCF v.6.0 (svn rev. 13079) starts on 19Apr2018 at 21:22: 3 

     This program is part of the open-source Quantum ESPRESSO suite
     for quantum simulation of materials; please cite
         "P. Giannozzi et al., J. Phys.:Condens. Matter 21 395502 (2009);
          URL http://www.quantum-espresso.org", 
     in publications or presentations arising from this work. More details at
     http://www.quantum-espresso.org/quote

     Parallel version (MPI), running on    28 processors
     R & G space division:  proc/nbgrp/npool/nimage =      28
     Reading input from ../H4O2-400.in

     Current dimensions of program PWSCF are:
     Max number of different atomic species (ntypx) = 10
     Max number of k-points (npk) =  40000
     Max angular momentum in pseudopotentials (lmaxx) =  3

     Subspace diagonalization in iterative solution of the eigenvalue problem:
     a serial algorithm will be used

 
     Parallelization info
     --------------------
     sticks:   dense  smooth     PW     G-vecs:    dense   smooth      PW
     Min         273     273     67                17945    17945    2235
     Max         274     274     68                17950    17950    2240
     Sum        7645    7645   1901               502479   502479   62669
 


     bravais-lattice index     =            1
     lattice parameter (alat)  =      20.0000  a.u.
     unit-cell volume          =    8000.0000 (a.u.)^3
     number of atoms/cell      =            6
     number of atomic types    =            2
     number of electrons       =        16.00
     number of Kohn-Sham states=           12
     kinetic-energy cutoff     =      60.0000  Ry
     charge density cutoff     =     240.0000  Ry
     convergence threshold     =      1.0E-08
     mixing beta               =       0.7000
     number of iterations used =            8  plain     mixing
     Exchange-correlation      = BLYP ( 1  3  1  3 0 0)
     nstep                     =         1000


     celldm(1)=  20.000000  celldm(2)=   0.000000  celldm(3)=   0.000000
     celldm(4)=   0.000000  celldm(5)=   0.000000  celldm(6)=   0.000000

     crystal axes: (cart. coord. in units of alat)
               a(1) = (   1.000000   0.000000   0.000000 )  
               a(2) = (   0.000000   1.000000   0.000000 )  
               a(3) = (   0.000000   0.000000   1.000000 )  

     reciprocal axes: (cart. coord. in units 2 pi/alat)
               b(1) = (  1.000000  0.000000  0.000000 )  
               b(2) = (  0.000000  1.000000  0.000000 )  
               b(3) = (  0.000000  0.000000  1.000000 )  


     PseudoPot. # 1 for  H read from file:
     ./H.blyp-hgh.UPF
     MD5 check sum: c576e69559cde411e611be972c763230
     Pseudo is Norm-conserving, Zval =  1.0
     Generated in analytical, separable form
     Using radial grid of  929 points,  0 beta functions with: 

     PseudoPot. # 2 for  O read from file:
     ./O.blyp-hgh.UPF
     MD5 check sum: d0b7156309aa9befef28faac7bc56342
     Pseudo is Norm-conserving, Zval =  6.0
     Generated in analytical, separable form
     Using radial grid of 1095 points,  1 beta functions with: 
                l(1) =   0

     atomic species   valence    mass     pseudopotential
        H              1.00     1.01000      H( 1.00)
        O              6.00    16.00000      O( 1.00)

     No symmetry found



   Cartesian axes

     site n.     atom                  positions (alat units)
         1           O   tau(   1) = (   0.0000000   0.0000000   0.0112686  )
         2           H   tau(   2) = (   0.0000000   0.0721156  -0.0450744  )
         3           H   tau(   3) = (   0.0000000  -0.0721156  -0.0450744  )
         4           O   tau(   4) = (   0.4724315   0.4724315   0.4837002  )
         5           H   tau(   5) = (   0.4724315   0.5445472  -0.5175059  )
         6           H   tau(   6) = (   0.4724315  -0.5445472  -0.5175059  )

     number of k points=     1  Marzari-Vanderbilt smearing, width (Ry)=  0.0250
                       cart. coord. in units 2pi/alat
        k(    1) = (   0.0000000   0.0000000   0.0000000), wk =   2.0000000

     Dense  grid:   502479 G-vectors     FFT dimensions: ( 100, 100, 100)

     Estimated max dynamical RAM per process >      17.25Mb

     Estimated total allocated dynamical RAM >     483.03Mb

     Initial potential from superposition of free atoms
     Check: negative starting charge=   -0.092036

     starting charge   15.99996, renormalised to   16.00000

     negative rho (up, down):  9.204E-02 0.000E+00
     Starting wfc are   12 randomized atomic wfcs

     total cpu time spent up to now is        0.5 secs

     per-process dynamical memory:    23.9 Mb

     Self-consistent Calculation

     iteration #  1     ecut=    60.00 Ry     beta=0.70
     Davidson diagonalization with overlap
     ethr =  1.00E-02,  avg # of iterations =  6.0

     negative rho (up, down):  2.647E-02 0.000E+00

     total cpu time spent up to now is        0.7 secs

     total energy              =     -45.21442669 Ry
     Harris-Foulkes estimate   =     -47.20461680 Ry
     estimated scf accuracy    <       2.75720502 Ry

     iteration #  2     ecut=    60.00 Ry     beta=0.70
     Davidson diagonalization with overlap
     ethr =  1.00E-02,  avg # of iterations =  3.0

     negative rho (up, down):  1.233E-02 0.000E+00

     total cpu time spent up to now is        0.8 secs

     total energy              =     -45.82652749 Ry
     Harris-Foulkes estimate   =     -46.44530696 Ry
     estimated scf accuracy    <       1.12526076 Ry

     iteration #  3     ecut=    60.00 Ry     beta=0.70
     Davidson diagonalization with overlap
     ethr =  7.03E-03,  avg # of iterations =  2.0

     negative rho (up, down):  1.924E-03 0.000E+00

     total cpu time spent up to now is        0.9 secs

     total energy              =     -46.14499997 Ry
     Harris-Foulkes estimate   =     -46.15638559 Ry
     estimated scf accuracy    <       0.04469806 Ry

     iteration #  4     ecut=    60.00 Ry     beta=0.70
     Davidson diagonalization with overlap
     ethr =  2.79E-04,  avg # of iterations =  2.0

     negative rho (up, down):  3.531E-04 0.000E+00

     total cpu time spent up to now is        1.0 secs

     total energy              =     -46.15752855 Ry
     Harris-Foulkes estimate   =     -46.15657606 Ry
     estimated scf accuracy    <       0.00062442 Ry

     iteration #  5     ecut=    60.00 Ry     beta=0.70
     Davidson diagonalization with overlap
     ethr =  3.90E-06,  avg # of iterations = 20.0

     negative rho (up, down):  2.167E-05 0.000E+00

     total cpu time spent up to now is        1.2 secs

     total energy              =     -46.15762213 Ry
     Harris-Foulkes estimate   =     -46.15762957 Ry
     estimated scf accuracy    <       0.00004288 Ry

     iteration #  6     ecut=    60.00 Ry     beta=0.70
     Davidson diagonalization with overlap
     ethr =  2.68E-07,  avg # of iterations =  2.0

     total cpu time spent up to now is        1.3 secs

     total energy              =     -46.15762763 Ry
     Harris-Foulkes estimate   =     -46.15762883 Ry
     estimated scf accuracy    <       0.00000725 Ry

     iteration #  7     ecut=    60.00 Ry     beta=0.70
     Davidson diagonalization with overlap
     ethr =  4.53E-08,  avg # of iterations =  2.0

     total cpu time spent up to now is        1.4 secs

     total energy              =     -46.15763011 Ry
     Harris-Foulkes estimate   =     -46.15763094 Ry
     estimated scf accuracy    <       0.00000244 Ry

     iteration #  8     ecut=    60.00 Ry     beta=0.70
     Davidson diagonalization with overlap
     ethr =  1.53E-08,  avg # of iterations =  2.0

     total cpu time spent up to now is        1.5 secs

     total energy              =     -46.15763078 Ry
     Harris-Foulkes estimate   =     -46.15763057 Ry
     estimated scf accuracy    <       0.00000002 Ry

     iteration #  9     ecut=    60.00 Ry     beta=0.70
     Davidson diagonalization with overlap
     ethr =  1.15E-10,  avg # of iterations =  3.0

     total cpu time spent up to now is        1.6 secs

     End of self-consistent calculation

          k = 0.0000 0.0000 0.0000 ( 62669 PWs)   bands (ev):

   -27.8408 -25.3886 -19.6631 -12.8226  -9.1157  -8.8790  -8.8700  -6.9687
    -0.8469  -0.0347   0.8005   1.0637

     the Fermi energy is    -6.6554 ev

!    total energy              =     -46.15763079 Ry
     Harris-Foulkes estimate   =     -46.15763079 Ry
     estimated scf accuracy    <          7.4E-10 Ry

     convergence has been achieved in   9 iterations

     Forces acting on atoms (Ry/au):

     atom    1 type  2   force =    -0.00023464   -0.00047352    0.05276857
     atom    2 type  1   force =    -0.00024369    0.02828587   -0.02542256
     atom    3 type  1   force =    -0.00026143   -0.02868588   -0.02546875
     atom    4 type  2   force =     0.00126420  101.97665390    7.34216693
     atom    5 type  1   force =    -0.00021924    0.78425079   -0.01986569
     atom    6 type  1   force =    -0.00030519 -102.76003116   -7.32417850

     Total force =   145.144873     Total SCF correction =     0.000061

     Molecular Dynamics Calculation

     Starting temperature  =   400.00 K

     temperature is controlled by Andersen thermostat
     Collision frequency = 1.0000/timestep
     mass H                =     1.01
     mass O                =    16.00
     Time step             =    10.00 a.u.,  0.4838 femto-seconds

     Entering Dynamics:    iteration =     1
                           time      =   0.0005 pico-seconds


     Andersen thermostat:    6 collisions

ATOMIC_POSITIONS (angstrom)
O       -0.002230702   0.000232439   0.119806365
H        0.006445831   0.766846582  -0.487802572
H       -0.000157799  -0.775648949  -0.484234905
O        5.000918925   5.186073946   5.133922083
H        5.003055607   5.775689642  -5.477761806
H        5.011436981  -8.718275556  -5.699251266


     kinetic energy (Ekin) =     0.01395661 Ry
     temperature           =   293.80956798 K 
     Ekin + Etot (const)   =   -46.14367418 Ry

     Linear momentum :    0.0000000000   -0.0000000000   -0.0000000000

     Writing output data file pwscf.save
     Check: negative starting charge=   -0.092036
     NEW-OLD atomic charge density approx. for the potential
     Check: negative starting charge=   -0.086026

     negative rho (up, down):  1.706E-01 0.000E+00

     total cpu time spent up to now is        2.1 secs

     per-process dynamical memory:    37.7 Mb

     Self-consistent Calculation

     iteration #  1     ecut=    60.00 Ry     beta=0.70
     Davidson diagonalization with overlap
     c_bands:  1 eigenvalues not converged
     ethr =  1.00E-06,  avg # of iterations = 20.0

     negative rho (up, down):  1.684E-02 0.000E+00

     total cpu time spent up to now is        2.5 secs

     total energy              =     -62.93758490 Ry
     Harris-Foulkes estimate   =     -67.54367764 Ry
     estimated scf accuracy    <       4.75319225 Ry

     iteration #  2     ecut=    60.00 Ry     beta=0.70
     Davidson diagonalization with overlap
     ethr =  1.00E-02,  avg # of iterations =  4.0

     negative rho (up, down):  1.111E-02 0.000E+00

     total cpu time spent up to now is        2.6 secs

     total energy              =     -66.35914958 Ry
     Harris-Foulkes estimate   =     -69.59514197 Ry
     estimated scf accuracy    <       6.98283291 Ry

     iteration #  3     ecut=    60.00 Ry     beta=0.70
     Davidson diagonalization with overlap
     ethr =  1.00E-02,  avg # of iterations =  2.0

     negative rho (up, down):  9.249E-03 0.000E+00

     total cpu time spent up to now is        2.7 secs

     total energy              =     -66.40154981 Ry
     Harris-Foulkes estimate   =     -66.73495591 Ry
     estimated scf accuracy    <       1.68738052 Ry

     iteration #  4     ecut=    60.00 Ry     beta=0.70
     Davidson diagonalization with overlap
     ethr =  1.00E-02,  avg # of iterations =  3.0

     negative rho (up, down):  2.982E-05 0.000E+00

     total cpu time spent up to now is        2.8 secs

     total energy              =     -65.60652918 Ry
     Harris-Foulkes estimate   =     -66.40401160 Ry
     estimated scf accuracy    <       1.15413379 Ry

     iteration #  5     ecut=    60.00 Ry     beta=0.70
     Davidson diagonalization with overlap
     ethr =  7.21E-03,  avg # of iterations =  3.0

     negative rho (up, down):  3.514E-06 0.000E+00

     total cpu time spent up to now is        2.9 secs

     total energy              =     -67.44456267 Ry
     Harris-Foulkes estimate   =     -67.70901260 Ry
     estimated scf accuracy    <      10.77331423 Ry

     iteration #  6     ecut=    60.00 Ry     beta=0.70
     Davidson diagonalization with overlap
     ethr =  7.21E-03,  avg # of iterations =  1.0

     negative rho (up, down):  1.703E-04 0.000E+00

     total cpu time spent up to now is        3.0 secs

     total energy              =     -66.88040137 Ry
     Harris-Foulkes estimate   =     -67.49380443 Ry
     estimated scf accuracy    <       4.84634456 Ry

     iteration #  7     ecut=    60.00 Ry     beta=0.70
     Davidson diagonalization with overlap
     ethr =  7.21E-03,  avg # of iterations =  1.0

     negative rho (up, down):  2.396E-03 0.000E+00

     total cpu time spent up to now is        3.1 secs

     total energy              =     -66.82210733 Ry
     Harris-Foulkes estimate   =     -66.95284396 Ry
     estimated scf accuracy    <       2.77744209 Ry

     iteration #  8     ecut=    60.00 Ry     beta=0.70
     Davidson diagonalization with overlap
     ethr =  7.21E-03,  avg # of iterations =  1.0

     negative rho (up, down):  1.998E-02 0.000E+00

     total cpu time spent up to now is        3.2 secs

     total energy              =     -66.42581261 Ry
     Harris-Foulkes estimate   =     -66.82453037 Ry
     estimated scf accuracy    <       2.50122167 Ry

     iteration #  9     ecut=    60.00 Ry     beta=0.70
     Davidson diagonalization with overlap
     ethr =  7.21E-03,  avg # of iterations =  1.0

     negative rho (up, down):  2.189E-02 0.000E+00

     total cpu time spent up to now is        3.3 secs

     total energy              =     -66.37295403 Ry
     Harris-Foulkes estimate   =     -66.43722977 Ry
     estimated scf accuracy    <       1.76949192 Ry

     iteration # 10     ecut=    60.00 Ry     beta=0.70
     Davidson diagonalization with overlap
     ethr =  7.21E-03,  avg # of iterations =  1.0

     negative rho (up, down):  7.365E-02 0.000E+00

     total cpu time spent up to now is        3.4 secs

     total energy              =     -65.65977806 Ry
     Harris-Foulkes estimate   =     -66.37399666 Ry
     estimated scf accuracy    <       1.65092242 Ry

     iteration # 11     ecut=    60.00 Ry     beta=0.70
     Davidson diagonalization with overlap
     ethr =  7.21E-03,  avg # of iterations =  2.0

     negative rho (up, down):  9.552E-02 0.000E+00

     total cpu time spent up to now is        3.5 secs

     total energy              =     -66.86634244 Ry
     Harris-Foulkes estimate   =     -66.70715794 Ry
     estimated scf accuracy    <       1.50010559 Ry

     iteration # 12     ecut=    60.00 Ry     beta=0.70
     Davidson diagonalization with overlap
     ethr =  7.21E-03,  avg # of iterations =  1.0

     negative rho (up, down):  7.455E-02 0.000E+00

     total cpu time spent up to now is        3.7 secs

     total energy              =     -66.54154139 Ry
     Harris-Foulkes estimate   =     -66.86706854 Ry
     estimated scf accuracy    <       1.71588398 Ry

     iteration # 13     ecut=    60.00 Ry     beta=0.70
     Davidson diagonalization with overlap
     ethr =  7.21E-03,  avg # of iterations =  1.0

     negative rho (up, down):  4.544E-02 0.000E+00

     total cpu time spent up to now is        3.8 secs

     total energy              =     -66.26739785 Ry
     Harris-Foulkes estimate   =     -66.54596657 Ry
     estimated scf accuracy    <       1.24376711 Ry

     iteration # 14     ecut=    60.00 Ry     beta=0.70
     Davidson diagonalization with overlap
     ethr =  7.21E-03,  avg # of iterations =  1.0

     negative rho (up, down):  4.506E-02 0.000E+00

     total cpu time spent up to now is        3.9 secs

     total energy              =     -66.27105833 Ry
     Harris-Foulkes estimate   =     -66.26494212 Ry
     estimated scf accuracy    <       0.71028104 Ry

     iteration # 15     ecut=    60.00 Ry     beta=0.70
     Davidson diagonalization with overlap
     ethr =  4.44E-03,  avg # of iterations =  1.0

     negative rho (up, down):  2.285E-02 0.000E+00

     total cpu time spent up to now is        4.0 secs

     total energy              =     -65.82833570 Ry
     Harris-Foulkes estimate   =     -66.27143254 Ry
     estimated scf accuracy    <       0.76619096 Ry

     iteration # 16     ecut=    60.00 Ry     beta=0.70
     Davidson diagonalization with overlap
     ethr =  4.44E-03,  avg # of iterations =  2.0

     negative rho (up, down):  2.835E-02 0.000E+00

     total cpu time spent up to now is        4.1 secs

     total energy              =     -66.88745713 Ry
     Harris-Foulkes estimate   =     -66.92864088 Ry
     estimated scf accuracy    <       2.69597209 Ry

     iteration # 17     ecut=    60.00 Ry     beta=0.70
     Davidson diagonalization with overlap
     ethr =  4.44E-03,  avg # of iterations =  1.0

     negative rho (up, down):  1.472E-02 0.000E+00

     total cpu time spent up to now is        4.2 secs

     total energy              =     -66.77643940 Ry
     Harris-Foulkes estimate   =     -66.88833123 Ry
     estimated scf accuracy    <       2.62483672 Ry

     iteration # 18     ecut=    60.00 Ry     beta=0.70
     Davidson diagonalization with overlap
     ethr =  4.44E-03,  avg # of iterations =  1.0

     negative rho (up, down):  3.045E-03 0.000E+00

     total cpu time spent up to now is        4.3 secs

     total energy              =     -66.64118585 Ry
     Harris-Foulkes estimate   =     -66.77733504 Ry
     estimated scf accuracy    <       2.42166829 Ry

     iteration # 19     ecut=    60.00 Ry     beta=0.70
     Davidson diagonalization with overlap
     ethr =  4.44E-03,  avg # of iterations =  1.0

     negative rho (up, down):  1.310E-03 0.000E+00

     total cpu time spent up to now is        4.4 secs

     total energy              =     -66.57908006 Ry
     Harris-Foulkes estimate   =     -66.64337998 Ry
     estimated scf accuracy    <       2.14401726 Ry

     iteration # 20     ecut=    60.00 Ry     beta=0.70
     Davidson diagonalization with overlap
     ethr =  4.44E-03,  avg # of iterations =  1.0

     negative rho (up, down):  2.691E-03 0.000E+00

     total cpu time spent up to now is        4.5 secs

     total energy              =     -66.39788419 Ry
     Harris-Foulkes estimate   =     -66.57992918 Ry
     estimated scf accuracy    <       2.01534719 Ry

     iteration # 21     ecut=    60.00 Ry     beta=0.70
     Davidson diagonalization with overlap
     ethr =  4.44E-03,  avg # of iterations =  1.0

     negative rho (up, down):  1.702E-03 0.000E+00

     total cpu time spent up to now is        4.6 secs

     total energy              =     -66.18632467 Ry
     Harris-Foulkes estimate   =     -66.40108665 Ry
     estimated scf accuracy    <       1.67412547 Ry

     iteration # 22     ecut=    60.00 Ry     beta=0.70
     Davidson diagonalization with overlap
     ethr =  4.44E-03,  avg # of iterations =  1.0

     negative rho (up, down):  2.640E-03 0.000E+00

     total cpu time spent up to now is        4.7 secs

     total energy              =     -66.14815856 Ry
     Harris-Foulkes estimate   =     -66.19174812 Ry
     estimated scf accuracy    <       0.28298977 Ry

     iteration # 23     ecut=    60.00 Ry     beta=0.70
     Davidson diagonalization with overlap
     ethr =  1.77E-03,  avg # of iterations =  1.0

     negative rho (up, down):  1.077E-03 0.000E+00

     total cpu time spent up to now is        4.9 secs

     total energy              =     -66.14901438 Ry
     Harris-Foulkes estimate   =     -66.25096082 Ry
     estimated scf accuracy    <       0.97354017 Ry

     iteration # 24     ecut=    60.00 Ry     beta=0.70
     Davidson diagonalization with overlap
     ethr =  1.77E-03,  avg # of iterations =  1.0

     negative rho (up, down):  1.358E-04 0.000E+00

     total cpu time spent up to now is        5.0 secs

     total energy              =     -66.15405325 Ry
     Harris-Foulkes estimate   =     -66.19860239 Ry
     estimated scf accuracy    <       0.67243613 Ry

     iteration # 25     ecut=    60.00 Ry     beta=0.70
     Davidson diagonalization with overlap
     ethr =  1.77E-03,  avg # of iterations =  1.0

     negative rho (up, down):  2.674E-05 0.000E+00

     total cpu time spent up to now is        5.1 secs

     total energy              =     -66.06840831 Ry
     Harris-Foulkes estimate   =     -66.20678462 Ry
     estimated scf accuracy    <       0.57289826 Ry

     iteration # 26     ecut=    60.00 Ry     beta=0.70
     Davidson diagonalization with overlap
     ethr =  1.77E-03,  avg # of iterations =  1.0

     negative rho (up, down):  1.079E-05 0.000E+00

     total cpu time spent up to now is        5.2 secs

     total energy              =     -66.34669245 Ry
     Harris-Foulkes estimate   =     -66.37488158 Ry
     estimated scf accuracy    <       1.61727970 Ry

     iteration # 27     ecut=    60.00 Ry     beta=0.70
     Davidson diagonalization with overlap
     ethr =  1.77E-03,  avg # of iterations =  1.0

     negative rho (up, down):  2.993E-06 0.000E+00

     total cpu time spent up to now is        5.3 secs

     total energy              =     -66.26161786 Ry
     Harris-Foulkes estimate   =     -66.34692579 Ry
     estimated scf accuracy    <       1.57418880 Ry

     iteration # 28     ecut=    60.00 Ry     beta=0.70
     Davidson diagonalization with overlap
     ethr =  1.77E-03,  avg # of iterations =  1.0

     negative rho (up, down):  5.324E-07 0.000E+00

     total cpu time spent up to now is        5.4 secs

     total energy              =     -66.22303028 Ry
     Harris-Foulkes estimate   =     -66.26215298 Ry
     estimated scf accuracy    <       1.48292944 Ry

     iteration # 29     ecut=    60.00 Ry     beta=0.70
     Davidson diagonalization with overlap
     ethr =  1.77E-03,  avg # of iterations =  1.0

     negative rho (up, down):  2.503E-07 0.000E+00

     total cpu time spent up to now is        5.5 secs

     total energy              =     -66.17638039 Ry
     Harris-Foulkes estimate   =     -66.22017183 Ry
     estimated scf accuracy    <       1.78507381 Ry

     iteration # 30     ecut=    60.00 Ry     beta=0.70
     Davidson diagonalization with overlap
     ethr =  1.77E-03,  avg # of iterations =  1.0

     negative rho (up, down):  1.553E-07 0.000E+00

     total cpu time spent up to now is        5.6 secs

     total energy              =     -66.19082862 Ry
     Harris-Foulkes estimate   =     -66.19078837 Ry
     estimated scf accuracy    <       0.11892228 Ry

     iteration # 31     ecut=    60.00 Ry     beta=0.70
     Davidson diagonalization with overlap
     ethr =  7.43E-04,  avg # of iterations =  1.0

     negative rho (up, down):  3.572E-08 0.000E+00

     total cpu time spent up to now is        5.7 secs

     total energy              =     -66.20074931 Ry
     Harris-Foulkes estimate   =     -66.19083530 Ry
     estimated scf accuracy    <       0.12404620 Ry

     iteration # 32     ecut=    60.00 Ry     beta=0.70
     Davidson diagonalization with overlap
     ethr =  7.43E-04,  avg # of iterations =  1.0

     total cpu time spent up to now is        5.8 secs

     total energy              =     -66.30636984 Ry
     Harris-Foulkes estimate   =     -66.22039904 Ry
     estimated scf accuracy    <       1.80282137 Ry

     iteration # 33     ecut=    60.00 Ry     beta=0.70
     Davidson diagonalization with overlap
     ethr =  7.43E-04,  avg # of iterations =  1.0

     negative rho (up, down):  6.959E-08 0.000E+00

     total cpu time spent up to now is        6.0 secs

     total energy              =     -66.36092019 Ry
     Harris-Foulkes estimate   =     -66.30005204 Ry
     estimated scf accuracy    <       1.48785628 Ry

     iteration # 34     ecut=    60.00 Ry     beta=0.70
     Davidson diagonalization with overlap
     ethr =  7.43E-04,  avg # of iterations =  1.0

     negative rho (up, down):  9.926E-04 0.000E+00

     total cpu time spent up to now is        6.1 secs

     total energy              =     -66.49439561 Ry
     Harris-Foulkes estimate   =     -66.36132027 Ry
     estimated scf accuracy    <       1.60075210 Ry

     iteration # 35     ecut=    60.00 Ry     beta=0.70
     Davidson diagonalization with overlap
     ethr =  7.43E-04,  avg # of iterations =  1.0

     negative rho (up, down):  3.141E-02 0.000E+00

     total cpu time spent up to now is        6.2 secs

     total energy              =     -66.78415719 Ry
     Harris-Foulkes estimate   =     -66.49613819 Ry
     estimated scf accuracy    <       1.85156808 Ry

     iteration # 36     ecut=    60.00 Ry     beta=0.70
     Davidson diagonalization with overlap
     ethr =  7.43E-04,  avg # of iterations =  3.0

     negative rho (up, down):  4.550E-02 0.000E+00

     total cpu time spent up to now is        6.3 secs

     total energy              =     -66.86487545 Ry
     Harris-Foulkes estimate   =     -66.79286036 Ry
     estimated scf accuracy    <       2.45514362 Ry

     iteration # 37     ecut=    60.00 Ry     beta=0.70
     Davidson diagonalization with overlap
     ethr =  7.43E-04,  avg # of iterations =  1.0

     negative rho (up, down):  1.579E-02 0.000E+00

     total cpu time spent up to now is        6.4 secs

     total energy              =     -66.67842439 Ry
     Harris-Foulkes estimate   =     -66.86546502 Ry
     estimated scf accuracy    <       2.60025240 Ry

     iteration # 38     ecut=    60.00 Ry     beta=0.70
     Davidson diagonalization with overlap
     ethr =  7.43E-04,  avg # of iterations =  1.0

     negative rho (up, down):  7.539E-05 0.000E+00

     total cpu time spent up to now is        6.5 secs

     total energy              =     -66.15117724 Ry
     Harris-Foulkes estimate   =     -66.68151681 Ry
     estimated scf accuracy    <       2.23732027 Ry

     iteration # 39     ecut=    60.00 Ry     beta=0.70
     Davidson diagonalization with overlap
     ethr =  7.43E-04,  avg # of iterations =  3.0

     negative rho (up, down):  1.222E-04 0.000E+00

     total cpu time spent up to now is        6.6 secs

     total energy              =     -66.19284944 Ry
     Harris-Foulkes estimate   =     -66.19039564 Ry
     estimated scf accuracy    <       0.01951152 Ry

     iteration # 40     ecut=    60.00 Ry     beta=0.70
     Davidson diagonalization with overlap
     ethr =  1.22E-04,  avg # of iterations = 10.0

     negative rho (up, down):  3.911E-04 0.000E+00

     total cpu time spent up to now is        6.7 secs

     total energy              =     -66.12385339 Ry
     Harris-Foulkes estimate   =     -66.25330924 Ry
     estimated scf accuracy    <       1.52744276 Ry

     iteration # 41     ecut=    60.00 Ry     beta=0.70
     Davidson diagonalization with overlap
     ethr =  1.22E-04,  avg # of iterations =  2.0

     negative rho (up, down):  1.803E-01 0.000E+00

     total cpu time spent up to now is        6.9 secs

     total energy              =     -65.76584890 Ry
     Harris-Foulkes estimate   =     -66.21412993 Ry
     estimated scf accuracy    <       0.64396754 Ry

     iteration # 42     ecut=    60.00 Ry     beta=0.70
     Davidson diagonalization with overlap
     ethr =  1.22E-04,  avg # of iterations =  9.0

     negative rho (up, down):  3.023E-01 0.000E+00

     total cpu time spent up to now is        7.0 secs

     total energy              =     -67.80439712 Ry
     Harris-Foulkes estimate   =     -67.41727968 Ry
     estimated scf accuracy    <       3.93080679 Ry

     iteration # 43     ecut=    60.00 Ry     beta=0.70
     Davidson diagonalization with overlap
     ethr =  1.22E-04,  avg # of iterations =  7.0

     negative rho (up, down):  3.691E-01 0.000E+00

     total cpu time spent up to now is        7.2 secs

     total energy              =     -67.35164157 Ry
     Harris-Foulkes estimate   =     -68.07687738 Ry
     estimated scf accuracy    <      11.48585010 Ry

     iteration # 44     ecut=    60.00 Ry     beta=0.70
     Davidson diagonalization with overlap
     ethr =  1.22E-04,  avg # of iterations =  7.0

     negative rho (up, down):  6.251E-01 0.000E+00

     total cpu time spent up to now is        7.3 secs

     total energy              =     -69.90519221 Ry
     Harris-Foulkes estimate   =     -68.12258230 Ry
     estimated scf accuracy    <      12.13712182 Ry

     iteration # 45     ecut=    60.00 Ry     beta=0.70
     Davidson diagonalization with overlap
     ethr =  1.22E-04,  avg # of iterations =  6.0

     negative rho (up, down):  6.534E-01 0.000E+00

     total cpu time spent up to now is        7.5 secs

     total energy              =     -68.72606506 Ry
     Harris-Foulkes estimate   =     -71.60552274 Ry
     estimated scf accuracy    <      29.80688372 Ry

     iteration # 46     ecut=    60.00 Ry     beta=0.70
     Davidson diagonalization with overlap
     ethr =  1.22E-04,  avg # of iterations =  5.0

     negative rho (up, down):  1.091E-01 0.000E+00

     total cpu time spent up to now is        7.7 secs

     total energy              =     -64.63588608 Ry
     Harris-Foulkes estimate   =     -70.41525832 Ry
     estimated scf accuracy    <      27.86836616 Ry

     iteration # 47     ecut=    60.00 Ry     beta=0.70
     Davidson diagonalization with overlap
     ethr =  1.22E-04,  avg # of iterations = 12.0

     negative rho (up, down):  6.700E-02 0.000E+00

     total cpu time spent up to now is        7.8 secs

     total energy              =     -66.86155581 Ry
     Harris-Foulkes estimate   =     -67.06324815 Ry
     estimated scf accuracy    <       3.08124687 Ry

     iteration # 48     ecut=    60.00 Ry     beta=0.70
     Davidson diagonalization with overlap
     ethr =  1.22E-04,  avg # of iterations =  4.0

     negative rho (up, down):  3.160E-01 0.000E+00

     total cpu time spent up to now is        8.0 secs

     total energy              =     -67.17410594 Ry
     Harris-Foulkes estimate   =     -66.86707349 Ry
     estimated scf accuracy    <       2.64904645 Ry

     iteration # 49     ecut=    60.00 Ry     beta=0.70
     Davidson diagonalization with overlap
     ethr =  1.22E-04,  avg # of iterations = 12.0

     negative rho (up, down):  4.586E-02 0.000E+00

     total cpu time spent up to now is        8.2 secs

     total energy              =     -65.26797740 Ry
     Harris-Foulkes estimate   =     -67.64192855 Ry
     estimated scf accuracy    <       9.12486481 Ry

     iteration # 50     ecut=    60.00 Ry     beta=0.70
     Davidson diagonalization with overlap
     ethr =  1.22E-04,  avg # of iterations =  8.0

     negative rho (up, down):  3.255E-01 0.000E+00

     total cpu time spent up to now is        8.3 secs

     total energy              =     -65.21951580 Ry
     Harris-Foulkes estimate   =     -66.34241579 Ry
     estimated scf accuracy    <       1.76755014 Ry

     iteration # 51     ecut=    60.00 Ry     beta=0.70
     Davidson diagonalization with overlap
     ethr =  1.22E-04,  avg # of iterations =  5.0

     negative rho (up, down):  1.330E-01 0.000E+00

     total cpu time spent up to now is        8.5 secs

     total energy              =     -66.68511978 Ry
     Harris-Foulkes estimate   =     -67.46664810 Ry
     estimated scf accuracy    <       2.67214833 Ry

     iteration # 52     ecut=    60.00 Ry     beta=0.70
     Davidson diagonalization with overlap
     ethr =  1.22E-04,  avg # of iterations =  4.0

     negative rho (up, down):  6.728E-02 0.000E+00

     total cpu time spent up to now is        8.6 secs

     total energy              =     -66.32739296 Ry
     Harris-Foulkes estimate   =     -66.70856564 Ry
     estimated scf accuracy    <       1.53075119 Ry

     iteration # 53     ecut=    60.00 Ry     beta=0.70
     Davidson diagonalization with overlap
     ethr =  1.22E-04,  avg # of iterations =  4.0

     negative rho (up, down):  5.307E-02 0.000E+00

     total cpu time spent up to now is        8.7 secs

     total energy              =     -66.24176095 Ry
     Harris-Foulkes estimate   =     -66.33569337 Ry
     estimated scf accuracy    <       0.91243425 Ry

     iteration # 54     ecut=    60.00 Ry     beta=0.70
     Davidson diagonalization with overlap
     ethr =  1.22E-04,  avg # of iterations =  2.0

     negative rho (up, down):  4.500E-02 0.000E+00

     total cpu time spent up to now is        8.9 secs

     total energy              =     -66.17808280 Ry
     Harris-Foulkes estimate   =     -66.25018360 Ry
     estimated scf accuracy    <       0.76192386 Ry

     iteration # 55     ecut=    60.00 Ry     beta=0.70
     Davidson diagonalization with overlap
     ethr =  1.22E-04,  avg # of iterations =  3.0

     negative rho (up, down):  3.761E-02 0.000E+00

     total cpu time spent up to now is        9.0 secs

     total energy              =     -66.34226623 Ry
     Harris-Foulkes estimate   =     -66.23402908 Ry
     estimated scf accuracy    <       1.27242983 Ry

     iteration # 56     ecut=    60.00 Ry     beta=0.70
     Davidson diagonalization with overlap
     ethr =  1.22E-04,  avg # of iterations =  3.0

     negative rho (up, down):  3.805E-02 0.000E+00

     total cpu time spent up to now is        9.1 secs

     total energy              =     -66.30986399 Ry
     Harris-Foulkes estimate   =     -66.37483441 Ry
     estimated scf accuracy    <       1.64596831 Ry

     iteration # 57     ecut=    60.00 Ry     beta=0.70
     Davidson diagonalization with overlap
     ethr =  1.22E-04,  avg # of iterations =  1.0

     negative rho (up, down):  4.460E-02 0.000E+00

     total cpu time spent up to now is        9.2 secs

     total energy              =     -66.12359192 Ry
     Harris-Foulkes estimate   =     -66.30914147 Ry
     estimated scf accuracy    <       1.71718107 Ry

     iteration # 58     ecut=    60.00 Ry     beta=0.70
     Davidson diagonalization with overlap
     ethr =  1.22E-04,  avg # of iterations =  2.0

     negative rho (up, down):  6.392E-03 0.000E+00

     total cpu time spent up to now is        9.3 secs

     total energy              =     -66.02692710 Ry
     Harris-Foulkes estimate   =     -66.21827771 Ry
     estimated scf accuracy    <       1.29985821 Ry

     iteration # 59     ecut=    60.00 Ry     beta=0.70
     Davidson diagonalization with overlap
     ethr =  1.22E-04,  avg # of iterations =  3.0

     negative rho (up, down):  3.986E-04 0.000E+00

     total cpu time spent up to now is        9.5 secs

     total energy              =     -66.37702466 Ry
     Harris-Foulkes estimate   =     -66.46445806 Ry
     estimated scf accuracy    <       1.79054436 Ry

     iteration # 60     ecut=    60.00 Ry     beta=0.70
     Davidson diagonalization with overlap
     ethr =  1.22E-04,  avg # of iterations =  2.0

     negative rho (up, down):  1.047E-03 0.000E+00

     total cpu time spent up to now is        9.6 secs

     total energy              =     -66.38382134 Ry
     Harris-Foulkes estimate   =     -66.37772953 Ry
     estimated scf accuracy    <       1.63282382 Ry

     iteration # 61     ecut=    60.00 Ry     beta=0.70
     Davidson diagonalization with overlap
     ethr =  1.22E-04,  avg # of iterations =  1.0

     negative rho (up, down):  1.199E-03 0.000E+00

     total cpu time spent up to now is        9.7 secs

     total energy              =     -66.32561336 Ry
     Harris-Foulkes estimate   =     -66.38384313 Ry
     estimated scf accuracy    <       1.64323290 Ry

     iteration # 62     ecut=    60.00 Ry     beta=0.70
     Davidson diagonalization with overlap
     ethr =  1.22E-04,  avg # of iterations =  1.0

     negative rho (up, down):  8.373E-04 0.000E+00

     total cpu time spent up to now is        9.9 secs

     total energy              =     -66.25012793 Ry
     Harris-Foulkes estimate   =     -66.32587399 Ry
     estimated scf accuracy    <       1.54831013 Ry

     iteration # 63     ecut=    60.00 Ry     beta=0.70
     Davidson diagonalization with overlap
     ethr =  1.22E-04,  avg # of iterations =  2.0

     negative rho (up, down):  2.559E-07 0.000E+00

     total cpu time spent up to now is       10.0 secs

     total energy              =     -66.16154108 Ry
     Harris-Foulkes estimate   =     -66.24739681 Ry
     estimated scf accuracy    <       1.79616626 Ry

     iteration # 64     ecut=    60.00 Ry     beta=0.70
     Davidson diagonalization with overlap
     ethr =  1.22E-04,  avg # of iterations =  3.0

     negative rho (up, down):  2.217E-05 0.000E+00

     total cpu time spent up to now is       10.1 secs

     total energy              =     -66.23421015 Ry
     Harris-Foulkes estimate   =     -66.19039813 Ry
     estimated scf accuracy    <       0.32798508 Ry

     iteration # 65     ecut=    60.00 Ry     beta=0.70
     Davidson diagonalization with overlap
     ethr =  1.22E-04,  avg # of iterations =  4.0

     negative rho (up, down):  2.366E-05 0.000E+00

     total cpu time spent up to now is       10.2 secs

     total energy              =     -66.38952786 Ry
     Harris-Foulkes estimate   =     -66.40172882 Ry
     estimated scf accuracy    <       1.06928829 Ry

     iteration # 66     ecut=    60.00 Ry     beta=0.70
     Davidson diagonalization with overlap
     ethr =  1.22E-04,  avg # of iterations =  1.0

     negative rho (up, down):  4.109E-05 0.000E+00

     total cpu time spent up to now is       10.3 secs

     total energy              =     -66.37069794 Ry
     Harris-Foulkes estimate   =     -66.38968755 Ry
     estimated scf accuracy    <       1.04286541 Ry

     iteration # 67     ecut=    60.00 Ry     beta=0.70
     Davidson diagonalization with overlap
     ethr =  1.22E-04,  avg # of iterations =  1.0

     negative rho (up, down):  7.963E-06 0.000E+00

     total cpu time spent up to now is       10.5 secs

     total energy              =     -66.15813777 Ry
     Harris-Foulkes estimate   =     -66.37074310 Ry
     estimated scf accuracy    <       1.01155022 Ry

     iteration # 68     ecut=    60.00 Ry     beta=0.70
     Davidson diagonalization with overlap
     ethr =  1.22E-04,  avg # of iterations =  3.0

     negative rho (up, down):  6.618E-05 0.000E+00

     total cpu time spent up to now is       10.6 secs

     total energy              =     -66.19091689 Ry
     Harris-Foulkes estimate   =     -66.19608216 Ry
     estimated scf accuracy    <       0.62840593 Ry

     iteration # 69     ecut=    60.00 Ry     beta=0.70
     Davidson diagonalization with overlap
     ethr =  1.22E-04,  avg # of iterations =  1.0

     negative rho (up, down):  8.137E-06 0.000E+00

     total cpu time spent up to now is       10.7 secs

     total energy              =     -66.14857499 Ry
     Harris-Foulkes estimate   =     -66.19238803 Ry
     estimated scf accuracy    <       0.36767549 Ry

     iteration # 70     ecut=    60.00 Ry     beta=0.70
     Davidson diagonalization with overlap
     ethr =  1.22E-04,  avg # of iterations =  2.0

     negative rho (up, down):  1.096E-07 0.000E+00

     total cpu time spent up to now is       10.8 secs

     total energy              =     -66.22091132 Ry
     Harris-Foulkes estimate   =     -66.26749097 Ry
     estimated scf accuracy    <       0.80637178 Ry

     iteration # 71     ecut=    60.00 Ry     beta=0.70
     Davidson diagonalization with overlap
     ethr =  1.22E-04,  avg # of iterations =  1.0

     negative rho (up, down):  3.033E-08 0.000E+00

     total cpu time spent up to now is       10.9 secs

     total energy              =     -66.22928619 Ry
     Harris-Foulkes estimate   =     -66.22084911 Ry
     estimated scf accuracy    <       1.07750660 Ry

     iteration # 72     ecut=    60.00 Ry     beta=0.70
     Davidson diagonalization with overlap
     ethr =  1.22E-04,  avg # of iterations =  1.0

     negative rho (up, down):  2.716E-08 0.000E+00

     total cpu time spent up to now is       11.0 secs

     total energy              =     -66.24200027 Ry
     Harris-Foulkes estimate   =     -66.22906380 Ry
     estimated scf accuracy    <       0.89728963 Ry

     iteration # 73     ecut=    60.00 Ry     beta=0.70
     Davidson diagonalization with overlap
     ethr =  1.22E-04,  avg # of iterations =  1.0

     negative rho (up, down):  1.213E-05 0.000E+00

     total cpu time spent up to now is       11.1 secs

     total energy              =     -66.26424422 Ry
     Harris-Foulkes estimate   =     -66.24157257 Ry
     estimated scf accuracy    <       0.76205763 Ry

     iteration # 74     ecut=    60.00 Ry     beta=0.70
     Davidson diagonalization with overlap
     ethr =  1.22E-04,  avg # of iterations =  1.0

     negative rho (up, down):  1.137E-06 0.000E+00

     total cpu time spent up to now is       11.2 secs

     total energy              =     -66.27284735 Ry
     Harris-Foulkes estimate   =     -66.26389327 Ry
     estimated scf accuracy    <       0.77491867 Ry

     iteration # 75     ecut=    60.00 Ry     beta=0.70
     Davidson diagonalization with overlap
     ethr =  1.22E-04,  avg # of iterations =  1.0

     negative rho (up, down):  2.333E-07 0.000E+00

     total cpu time spent up to now is       11.3 secs

     total energy              =     -66.27001107 Ry
     Harris-Foulkes estimate   =     -66.27285491 Ry
     estimated scf accuracy    <       0.79212105 Ry

     iteration # 76     ecut=    60.00 Ry     beta=0.70
     Davidson diagonalization with overlap
     ethr =  1.22E-04,  avg # of iterations =  1.0

     total cpu time spent up to now is       11.4 secs

     total energy              =     -66.23044629 Ry
     Harris-Foulkes estimate   =     -66.27009790 Ry
     estimated scf accuracy    <       0.76469795 Ry

     iteration # 77     ecut=    60.00 Ry     beta=0.70
     Davidson diagonalization with overlap
     ethr =  1.22E-04,  avg # of iterations =  1.0

     total cpu time spent up to now is       11.5 secs

     total energy              =     -66.25134225 Ry
     Harris-Foulkes estimate   =     -66.23739168 Ry
     estimated scf accuracy    <       0.86561391 Ry

     iteration # 78     ecut=    60.00 Ry     beta=0.70
     Davidson diagonalization with overlap
     ethr =  1.22E-04,  avg # of iterations =  1.0

     total cpu time spent up to now is       11.6 secs

     total energy              =     -66.19657733 Ry
     Harris-Foulkes estimate   =     -66.25539700 Ry
     estimated scf accuracy    <       0.69554893 Ry

     iteration # 79     ecut=    60.00 Ry     beta=0.70
     Davidson diagonalization with overlap
     ethr =  1.22E-04,  avg # of iterations =  2.0

     total cpu time spent up to now is       11.8 secs

     total energy              =     -66.21087816 Ry
     Harris-Foulkes estimate   =     -66.19753990 Ry
     estimated scf accuracy    <       0.92152442 Ry

     iteration # 80     ecut=    60.00 Ry     beta=0.70
     Davidson diagonalization with overlap
     ethr =  1.22E-04,  avg # of iterations =  1.0

     total cpu time spent up to now is       11.9 secs

     total energy              =     -66.14006264 Ry
     Harris-Foulkes estimate   =     -66.21604172 Ry
     estimated scf accuracy    <       1.47361853 Ry

     iteration # 81     ecut=    60.00 Ry     beta=0.70
     Davidson diagonalization with overlap
     ethr =  1.22E-04,  avg # of iterations =  1.0

     total cpu time spent up to now is       12.0 secs

     total energy              =     -66.19227810 Ry
     Harris-Foulkes estimate   =     -66.19418919 Ry
     estimated scf accuracy    <       0.48013686 Ry

     iteration # 82     ecut=    60.00 Ry     beta=0.70
     Davidson diagonalization with overlap
     ethr =  1.22E-04,  avg # of iterations =  1.0

     total cpu time spent up to now is       12.1 secs

     total energy              =     -66.16200626 Ry
     Harris-Foulkes estimate   =     -66.19240267 Ry
     estimated scf accuracy    <       0.37074017 Ry

     iteration # 83     ecut=    60.00 Ry     beta=0.70
     Davidson diagonalization with overlap
     ethr =  1.22E-04,  avg # of iterations =  1.0

     total cpu time spent up to now is       12.2 secs

     total energy              =     -66.16383120 Ry
     Harris-Foulkes estimate   =     -66.20470948 Ry
     estimated scf accuracy    <       0.94477643 Ry

     iteration # 84     ecut=    60.00 Ry     beta=0.70
     Davidson diagonalization with overlap
     ethr =  1.22E-04,  avg # of iterations =  1.0

     total cpu time spent up to now is       12.3 secs

     total energy              =     -66.18838689 Ry
     Harris-Foulkes estimate   =     -66.18836962 Ry
     estimated scf accuracy    <       0.10426776 Ry

     iteration # 85     ecut=    60.00 Ry     beta=0.70
     Davidson diagonalization with overlap
     ethr =  1.22E-04,  avg # of iterations =  1.0

     total cpu time spent up to now is       12.4 secs

     total energy              =     -66.18467701 Ry
     Harris-Foulkes estimate   =     -66.18839674 Ry
     estimated scf accuracy    <       0.10941803 Ry

     iteration # 86     ecut=    60.00 Ry     beta=0.70
     Davidson diagonalization with overlap
     ethr =  1.22E-04,  avg # of iterations =  1.0

     total cpu time spent up to now is       12.5 secs

     total energy              =     -66.18609761 Ry
     Harris-Foulkes estimate   =     -66.18657187 Ry
     estimated scf accuracy    <       0.01805632 Ry

     iteration # 87     ecut=    60.00 Ry     beta=0.70
     Davidson diagonalization with overlap
     ethr =  1.13E-04,  avg # of iterations =  1.0

     total cpu time spent up to now is       12.6 secs

     total energy              =     -66.18437699 Ry
     Harris-Foulkes estimate   =     -66.18827207 Ry
     estimated scf accuracy    <       0.12372666 Ry

     iteration # 88     ecut=    60.00 Ry     beta=0.70
     Davidson diagonalization with overlap
     ethr =  1.13E-04,  avg # of iterations =  1.0

     total cpu time spent up to now is       12.7 secs

     total energy              =     -66.18636510 Ry
     Harris-Foulkes estimate   =     -66.18649226 Ry
     estimated scf accuracy    <       0.01502977 Ry

     iteration # 89     ecut=    60.00 Ry     beta=0.70
     Davidson diagonalization with overlap
     ethr =  9.39E-05,  avg # of iterations =  1.0

     total cpu time spent up to now is       12.8 secs

     total energy              =     -66.18638242 Ry
     Harris-Foulkes estimate   =     -66.18647815 Ry
     estimated scf accuracy    <       0.02068377 Ry

     iteration # 90     ecut=    60.00 Ry     beta=0.70
     Davidson diagonalization with overlap
     ethr =  9.39E-05,  avg # of iterations =  1.0

     total cpu time spent up to now is       12.9 secs

     total energy              =     -66.18664638 Ry
     Harris-Foulkes estimate   =     -66.18640725 Ry
     estimated scf accuracy    <       0.01392181 Ry

     iteration # 91     ecut=    60.00 Ry     beta=0.70
     Davidson diagonalization with overlap
     ethr =  8.70E-05,  avg # of iterations =  1.0

     total cpu time spent up to now is       13.0 secs

     total energy              =     -66.18674753 Ry
     Harris-Foulkes estimate   =     -66.18671935 Ry
     estimated scf accuracy    <       0.02713014 Ry

     iteration # 92     ecut=    60.00 Ry     beta=0.70
     Davidson diagonalization with overlap
     ethr =  8.70E-05,  avg # of iterations =  1.0

     total cpu time spent up to now is       13.2 secs

     total energy              =     -66.18615844 Ry
     Harris-Foulkes estimate   =     -66.18678243 Ry
     estimated scf accuracy    <       0.02518851 Ry

     iteration # 93     ecut=    60.00 Ry     beta=0.70
     Davidson diagonalization with overlap
     ethr =  8.70E-05,  avg # of iterations =  1.0

     total cpu time spent up to now is       13.3 secs

     total energy              =     -66.18605551 Ry
     Harris-Foulkes estimate   =     -66.18635301 Ry
     estimated scf accuracy    <       0.00789452 Ry

     iteration # 94     ecut=    60.00 Ry     beta=0.70
     Davidson diagonalization with overlap
     ethr =  4.93E-05,  avg # of iterations =  1.0

     total cpu time spent up to now is       13.4 secs

     total energy              =     -66.18618143 Ry
     Harris-Foulkes estimate   =     -66.18616758 Ry
     estimated scf accuracy    <       0.00032032 Ry

     iteration # 95     ecut=    60.00 Ry     beta=0.70
     Davidson diagonalization with overlap
     ethr =  2.00E-06,  avg # of iterations =  1.0

     total cpu time spent up to now is       13.5 secs

     total energy              =     -66.18617387 Ry
     Harris-Foulkes estimate   =     -66.18618848 Ry
     estimated scf accuracy    <       0.00129175 Ry

     iteration # 96     ecut=    60.00 Ry     beta=0.70
     Davidson diagonalization with overlap
     ethr =  2.00E-06,  avg # of iterations =  1.0

     total cpu time spent up to now is       13.6 secs

     total energy              =     -66.18615720 Ry
     Harris-Foulkes estimate   =     -66.18617568 Ry
     estimated scf accuracy    <       0.00071479 Ry

     iteration # 97     ecut=    60.00 Ry     beta=0.70
     Davidson diagonalization with overlap
     ethr =  2.00E-06,  avg # of iterations =  1.0

     total cpu time spent up to now is       13.7 secs

     total energy              =     -66.18616634 Ry
     Harris-Foulkes estimate   =     -66.18616300 Ry
     estimated scf accuracy    <       0.00009539 Ry

     iteration # 98     ecut=    60.00 Ry     beta=0.70
     Davidson diagonalization with overlap
     ethr =  5.96E-07,  avg # of iterations =  1.0

     total cpu time spent up to now is       13.8 secs

     total energy              =     -66.18616287 Ry
     Harris-Foulkes estimate   =     -66.18616754 Ry
     estimated scf accuracy    <       0.00030771 Ry

     iteration # 99     ecut=    60.00 Ry     beta=0.70
     Davidson diagonalization with overlap
     ethr =  5.96E-07,  avg # of iterations =  1.0

     total cpu time spent up to now is       13.9 secs

     total energy              =     -66.18615721 Ry
     Harris-Foulkes estimate   =     -66.18616376 Ry
     estimated scf accuracy    <       0.00011852 Ry

     iteration #100     ecut=    60.00 Ry     beta=0.70
     Davidson diagonalization with overlap
     ethr =  5.96E-07,  avg # of iterations =  1.0

     total cpu time spent up to now is       14.0 secs

     total energy              =     -66.18616054 Ry
     Harris-Foulkes estimate   =     -66.18616098 Ry
     estimated scf accuracy    <       0.00000893 Ry

     iteration #101     ecut=    60.00 Ry     beta=0.70
     Davidson diagonalization with overlap
     ethr =  5.58E-08,  avg # of iterations =  1.0

     total cpu time spent up to now is       14.1 secs

     total energy              =     -66.18616071 Ry
     Harris-Foulkes estimate   =     -66.18616075 Ry
     estimated scf accuracy    <       0.00000012 Ry

     iteration #102     ecut=    60.00 Ry     beta=0.70
     Davidson diagonalization with overlap
     ethr =  7.68E-10,  avg # of iterations =  1.0

     total cpu time spent up to now is       14.2 secs

     total energy              =     -66.18616073 Ry
     Harris-Foulkes estimate   =     -66.18616072 Ry
     estimated scf accuracy    <       0.00000001 Ry

     iteration #103     ecut=    60.00 Ry     beta=0.70
     Davidson diagonalization with overlap
     ethr =  8.17E-11,  avg # of iterations =  1.0

     total cpu time spent up to now is       14.3 secs

     End of self-consistent calculation

          k = 0.0000 0.0000 0.0000 ( 62669 PWs)   bands (ev):

   -28.0066 -25.5113 -12.9233 -11.0941  -9.3413  -7.1968  -7.0798  -7.0770
    -6.9091  -0.9496   0.1140   0.9034

     the Fermi energy is    -6.8956 ev

!    total energy              =     -66.18616073 Ry
     Harris-Foulkes estimate   =     -66.18616073 Ry
     estimated scf accuracy    <          3.1E-10 Ry

     convergence has been achieved in 103 iterations

     Forces acting on atoms (Ry/au):

     atom    1 type  2   force =    -0.00197057   -0.00663059    0.02839768
     atom    2 type  1   force =     0.00045210    0.01614673   -0.01587808
     atom    3 type  1   force =     0.00028978   -0.00950186   -0.01046674
     atom    4 type  2   force =    -0.01222454   -3.52833586    0.17006449
     atom    5 type  1   force =     0.01317372    3.52608988   -0.17113635
     atom    6 type  1   force =     0.00027952    0.00223170   -0.00098100

     Total force =     4.994254     Total SCF correction =     0.000011

     Entering Dynamics:    iteration =     2
                           time      =   0.0010 pico-seconds


     Andersen thermostat:    6 collisions

ATOMIC_POSITIONS (angstrom)
O       -0.005487818  -0.000979927   0.121258440
H        0.010221075   0.763647699  -0.492999382
H       -0.002592003  -0.786971788  -0.492619933
O        5.005451796   5.174694793   5.133904042
H        4.998530113   5.985272409  -5.477455781
H        4.994411467  -8.713866997  -5.708692820


     kinetic energy (Ekin) =     0.22145000 Ry
     temperature           =  4661.88639818 K 
     Ekin + Etot (const)   =   -65.96471073 Ry
     Message from routine dynamics:
     Total linear momentum <> 0

     Linear momentum :    0.1910129710    0.5057143813   -0.1854700446

     Writing output data file pwscf.save

     first order wave-functions extrapolation
     Check: negative starting charge=   -0.086026
     first order charge density extrapolation
     Check: negative starting charge=   -0.085410

     negative rho (up, down):  1.559E-01 0.000E+00

     total cpu time spent up to now is       14.9 secs

     per-process dynamical memory:    37.7 Mb

     Self-consistent Calculation

     iteration #  1     ecut=    60.00 Ry     beta=0.70
     Davidson diagonalization with overlap
     c_bands:  1 eigenvalues not converged
     ethr =  1.00E-06,  avg # of iterations = 20.0

     negative rho (up, down):  2.417E-02 0.000E+00

     total cpu time spent up to now is       15.2 secs

     total energy              =     -32.66559747 Ry
     Harris-Foulkes estimate   =     -88.58812390 Ry
     estimated scf accuracy    <      10.95613299 Ry

     iteration #  2     ecut=    60.00 Ry     beta=0.70
     Davidson diagonalization with overlap
     ethr =  1.00E-02,  avg # of iterations =  4.0

     negative rho (up, down):  1.161E-03 0.000E+00

     total cpu time spent up to now is       15.3 secs

     total energy              =     -60.54229497 Ry
     Harris-Foulkes estimate   =     -75.02361329 Ry
     estimated scf accuracy    <      37.98775539 Ry

     iteration #  3     ecut=    60.00 Ry     beta=0.70
     Davidson diagonalization with overlap
     ethr =  1.00E-02,  avg # of iterations =  9.0

     negative rho (up, down):  7.871E-04 0.000E+00

     total cpu time spent up to now is       15.5 secs

     total energy              =     -67.09325932 Ry
     Harris-Foulkes estimate   =     -68.96963190 Ry
     estimated scf accuracy    <       4.62052653 Ry

     iteration #  4     ecut=    60.00 Ry     beta=0.70
     Davidson diagonalization with overlap
     ethr =  1.00E-02,  avg # of iterations =  2.0

     negative rho (up, down):  4.382E-04 0.000E+00

     total cpu time spent up to now is       15.7 secs

     total energy              =     -66.79297228 Ry
     Harris-Foulkes estimate   =     -67.57696823 Ry
     estimated scf accuracy    <       4.26904271 Ry

     iteration #  5     ecut=    60.00 Ry     beta=0.70
     Davidson diagonalization with overlap
     ethr =  1.00E-02,  avg # of iterations =  1.0

     negative rho (up, down):  2.146E-04 0.000E+00

     total cpu time spent up to now is       15.8 secs

     total energy              =     -67.00706515 Ry
     Harris-Foulkes estimate   =     -67.36058745 Ry
     estimated scf accuracy    <       1.73987307 Ry

     iteration #  6     ecut=    60.00 Ry     beta=0.70
     Davidson diagonalization with overlap
     ethr =  1.00E-02,  avg # of iterations =  1.0

     negative rho (up, down):  2.417E-04 0.000E+00

     total cpu time spent up to now is       15.9 secs

     total energy              =     -67.07230726 Ry
     Harris-Foulkes estimate   =     -67.16375045 Ry
     estimated scf accuracy    <       1.95544137 Ry

     iteration #  7     ecut=    60.00 Ry     beta=0.70
     Davidson diagonalization with overlap
     ethr =  1.00E-02,  avg # of iterations =  1.0

     negative rho (up, down):  3.146E-04 0.000E+00

     total cpu time spent up to now is       16.0 secs

     total energy              =     -66.92800681 Ry
     Harris-Foulkes estimate   =     -67.07479009 Ry
     estimated scf accuracy    <       0.88227284 Ry

     iteration #  8     ecut=    60.00 Ry     beta=0.70
     Davidson diagonalization with overlap
     ethr =  5.51E-03,  avg # of iterations =  1.0

     negative rho (up, down):  2.705E-03 0.000E+00

     total cpu time spent up to now is       16.1 secs

     total energy              =     -66.93154899 Ry
     Harris-Foulkes estimate   =     -66.95351008 Ry
     estimated scf accuracy    <       0.14072883 Ry

     iteration #  9     ecut=    60.00 Ry     beta=0.70
     Davidson diagonalization with overlap
     ethr =  8.80E-04,  avg # of iterations =  3.0

     negative rho (up, down):  3.348E-02 0.000E+00

     total cpu time spent up to now is       16.2 secs

     total energy              =     -66.88289807 Ry
     Harris-Foulkes estimate   =     -67.00603475 Ry
     estimated scf accuracy    <       1.48001317 Ry

     iteration # 10     ecut=    60.00 Ry     beta=0.70
     Davidson diagonalization with overlap
     ethr =  8.80E-04,  avg # of iterations =  1.0

     negative rho (up, down):  2.030E-02 0.000E+00

     total cpu time spent up to now is       16.3 secs

     total energy              =     -66.92670570 Ry
     Harris-Foulkes estimate   =     -66.94590668 Ry
     estimated scf accuracy    <       0.51841934 Ry

     iteration # 11     ecut=    60.00 Ry     beta=0.70
     Davidson diagonalization with overlap
     ethr =  8.80E-04,  avg # of iterations =  1.0

     negative rho (up, down):  2.270E-03 0.000E+00

     total cpu time spent up to now is       16.4 secs

     total energy              =     -66.92952114 Ry
     Harris-Foulkes estimate   =     -66.93397238 Ry
     estimated scf accuracy    <       0.01756948 Ry

     iteration # 12     ecut=    60.00 Ry     beta=0.70
     Davidson diagonalization with overlap
     ethr =  1.10E-04,  avg # of iterations =  3.0

     negative rho (up, down):  2.252E-04 0.000E+00

     total cpu time spent up to now is       16.5 secs

     total energy              =     -66.92806167 Ry
     Harris-Foulkes estimate   =     -66.93109852 Ry
     estimated scf accuracy    <       0.06429910 Ry

     iteration # 13     ecut=    60.00 Ry     beta=0.70
     Davidson diagonalization with overlap
     ethr =  1.10E-04,  avg # of iterations =  1.0

     total cpu time spent up to now is       16.6 secs

     total energy              =     -66.92222189 Ry
     Harris-Foulkes estimate   =     -66.92854005 Ry
     estimated scf accuracy    <       0.01038586 Ry

     iteration # 14     ecut=    60.00 Ry     beta=0.70
     Davidson diagonalization with overlap
     ethr =  6.49E-05,  avg # of iterations =  3.0

     negative rho (up, down):  1.346E-04 0.000E+00

     total cpu time spent up to now is       16.8 secs

     total energy              =     -66.83447406 Ry
     Harris-Foulkes estimate   =     -66.97739756 Ry
     estimated scf accuracy    <       1.90794061 Ry

     iteration # 15     ecut=    60.00 Ry     beta=0.70
     Davidson diagonalization with overlap
     ethr =  6.49E-05,  avg # of iterations =  3.0

     negative rho (up, down):  3.982E-05 0.000E+00

     total cpu time spent up to now is       16.9 secs

     total energy              =     -66.92869992 Ry
     Harris-Foulkes estimate   =     -66.92890363 Ry
     estimated scf accuracy    <       0.01059332 Ry

     iteration # 16     ecut=    60.00 Ry     beta=0.70
     Davidson diagonalization with overlap
     ethr =  6.49E-05,  avg # of iterations =  1.0

     total cpu time spent up to now is       17.0 secs

     total energy              =     -66.92834677 Ry
     Harris-Foulkes estimate   =     -66.92871331 Ry
     estimated scf accuracy    <       0.00980065 Ry

     iteration # 17     ecut=    60.00 Ry     beta=0.70
     Davidson diagonalization with overlap
     ethr =  6.13E-05,  avg # of iterations =  1.0

     total cpu time spent up to now is       17.1 secs

     total energy              =     -66.92816019 Ry
     Harris-Foulkes estimate   =     -66.92843720 Ry
     estimated scf accuracy    <       0.00486481 Ry

     iteration # 18     ecut=    60.00 Ry     beta=0.70
     Davidson diagonalization with overlap
     ethr =  3.04E-05,  avg # of iterations =  1.0

     total cpu time spent up to now is       17.2 secs

     total energy              =     -66.92798040 Ry
     Harris-Foulkes estimate   =     -66.92817917 Ry
     estimated scf accuracy    <       0.00661571 Ry

     iteration # 19     ecut=    60.00 Ry     beta=0.70
     Davidson diagonalization with overlap
     ethr =  3.04E-05,  avg # of iterations =  1.0

     total cpu time spent up to now is       17.3 secs

     total energy              =     -66.92803814 Ry
     Harris-Foulkes estimate   =     -66.92797170 Ry
     estimated scf accuracy    <       0.00737864 Ry

     iteration # 20     ecut=    60.00 Ry     beta=0.70
     Davidson diagonalization with overlap
     ethr =  3.04E-05,  avg # of iterations =  1.0

     total cpu time spent up to now is       17.4 secs

     total energy              =     -66.92796020 Ry
     Harris-Foulkes estimate   =     -66.92803724 Ry
     estimated scf accuracy    <       0.00718005 Ry

     iteration # 21     ecut=    60.00 Ry     beta=0.70
     Davidson diagonalization with overlap
     ethr =  3.04E-05,  avg # of iterations =  1.0

     total cpu time spent up to now is       17.5 secs

     total energy              =     -66.92844251 Ry
     Harris-Foulkes estimate   =     -66.92795873 Ry
     estimated scf accuracy    <       0.00759918 Ry

     iteration # 22     ecut=    60.00 Ry     beta=0.70
     Davidson diagonalization with overlap
     ethr =  3.04E-05,  avg # of iterations =  1.0

     total cpu time spent up to now is       17.6 secs

     total energy              =     -66.92953422 Ry
     Harris-Foulkes estimate   =     -66.92839802 Ry
     estimated scf accuracy    <       0.00571599 Ry

     iteration # 23     ecut=    60.00 Ry     beta=0.70
     Davidson diagonalization with overlap
     ethr =  3.04E-05,  avg # of iterations =  1.0

     total cpu time spent up to now is       17.7 secs

     total energy              =     -66.93224908 Ry
     Harris-Foulkes estimate   =     -66.92945540 Ry
     estimated scf accuracy    <       0.00544407 Ry

     iteration # 24     ecut=    60.00 Ry     beta=0.70
     Davidson diagonalization with overlap
     ethr =  3.04E-05,  avg # of iterations =  9.0

     total cpu time spent up to now is       17.9 secs

     total energy              =     -66.93066550 Ry
     Harris-Foulkes estimate   =     -66.93237393 Ry
     estimated scf accuracy    <       0.01075842 Ry

     iteration # 25     ecut=    60.00 Ry     beta=0.70
     Davidson diagonalization with overlap
     ethr =  3.04E-05,  avg # of iterations =  1.0

     total cpu time spent up to now is       18.0 secs

     total energy              =     -66.92893816 Ry
     Harris-Foulkes estimate   =     -66.93070202 Ry
     estimated scf accuracy    <       0.00791166 Ry

     iteration # 26     ecut=    60.00 Ry     beta=0.70
     Davidson diagonalization with overlap
     ethr =  3.04E-05,  avg # of iterations =  1.0

     total cpu time spent up to now is       18.1 secs

     total energy              =     -66.92656555 Ry
     Harris-Foulkes estimate   =     -66.92898774 Ry
     estimated scf accuracy    <       0.00507507 Ry

     iteration # 27     ecut=    60.00 Ry     beta=0.70
     Davidson diagonalization with overlap
     ethr =  3.04E-05,  avg # of iterations =  4.0

     total cpu time spent up to now is       18.2 secs

     total energy              =     -66.93280352 Ry
     Harris-Foulkes estimate   =     -66.92380423 Ry
     estimated scf accuracy    <       0.03280507 Ry

     iteration # 28     ecut=    60.00 Ry     beta=0.70
     Davidson diagonalization with overlap
     ethr =  3.04E-05,  avg # of iterations =  3.0

     total cpu time spent up to now is       18.3 secs

     total energy              =     -66.92948441 Ry
     Harris-Foulkes estimate   =     -66.92915302 Ry
     estimated scf accuracy    <       0.00498246 Ry

     iteration # 29     ecut=    60.00 Ry     beta=0.70
     Davidson diagonalization with overlap
     ethr =  3.04E-05,  avg # of iterations =  1.0

     total cpu time spent up to now is       18.4 secs

     total energy              =     -66.93166844 Ry
     Harris-Foulkes estimate   =     -66.92949297 Ry
     estimated scf accuracy    <       0.00553085 Ry

     iteration # 30     ecut=    60.00 Ry     beta=0.70
     Davidson diagonalization with overlap
     ethr =  3.04E-05,  avg # of iterations =  1.0

     total cpu time spent up to now is       18.5 secs

     total energy              =     -66.93331930 Ry
     Harris-Foulkes estimate   =     -66.93173680 Ry
     estimated scf accuracy    <       0.00950907 Ry

     iteration # 31     ecut=    60.00 Ry     beta=0.70
     Davidson diagonalization with overlap
     ethr =  3.04E-05,  avg # of iterations =  1.0

     total cpu time spent up to now is       18.6 secs

     total energy              =     -66.93141446 Ry
     Harris-Foulkes estimate   =     -66.93335545 Ry
     estimated scf accuracy    <       0.01261124 Ry

     iteration # 32     ecut=    60.00 Ry     beta=0.70
     Davidson diagonalization with overlap
     ethr =  3.04E-05,  avg # of iterations =  1.0

     total cpu time spent up to now is       18.8 secs

     total energy              =     -66.93139605 Ry
     Harris-Foulkes estimate   =     -66.93145131 Ry
     estimated scf accuracy    <       0.00923779 Ry

     iteration # 33     ecut=    60.00 Ry     beta=0.70
     Davidson diagonalization with overlap
     ethr =  3.04E-05,  avg # of iterations =  1.0

     total cpu time spent up to now is       18.9 secs

     total energy              =     -66.92863232 Ry
     Harris-Foulkes estimate   =     -66.93139784 Ry
     estimated scf accuracy    <       0.00904958 Ry

     iteration # 34     ecut=    60.00 Ry     beta=0.70
     Davidson diagonalization with overlap
     ethr =  3.04E-05,  avg # of iterations =  1.0

     total cpu time spent up to now is       19.0 secs

     total energy              =     -66.92822190 Ry
     Harris-Foulkes estimate   =     -66.92873001 Ry
     estimated scf accuracy    <       0.00494606 Ry

     iteration # 35     ecut=    60.00 Ry     beta=0.70
     Davidson diagonalization with overlap
     ethr =  3.04E-05,  avg # of iterations =  1.0

     total cpu time spent up to now is       19.1 secs

     total energy              =     -66.92804624 Ry
     Harris-Foulkes estimate   =     -66.92820152 Ry
     estimated scf accuracy    <       0.00547502 Ry

     iteration # 36     ecut=    60.00 Ry     beta=0.70
     Davidson diagonalization with overlap
     ethr =  3.04E-05,  avg # of iterations =  1.0

     total cpu time spent up to now is       19.2 secs

     total energy              =     -66.92491831 Ry
     Harris-Foulkes estimate   =     -66.92804257 Ry
     estimated scf accuracy    <       0.00596670 Ry

     iteration # 37     ecut=    60.00 Ry     beta=0.70
     Davidson diagonalization with overlap
     ethr =  3.04E-05,  avg # of iterations =  3.0

     total cpu time spent up to now is       19.3 secs

     total energy              =     -66.91740350 Ry
     Harris-Foulkes estimate   =     -66.92469986 Ry
     estimated scf accuracy    <       0.14972134 Ry

     iteration # 38     ecut=    60.00 Ry     beta=0.70
     Davidson diagonalization with overlap
     ethr =  3.04E-05,  avg # of iterations =  1.0

     total cpu time spent up to now is       19.4 secs

     total energy              =     -66.92349873 Ry
     Harris-Foulkes estimate   =     -66.92322615 Ry
     estimated scf accuracy    <       0.02151066 Ry

     iteration # 39     ecut=    60.00 Ry     beta=0.70
     Davidson diagonalization with overlap
     ethr =  3.04E-05,  avg # of iterations =  1.0

     total cpu time spent up to now is       19.5 secs

     total energy              =     -66.91894576 Ry
     Harris-Foulkes estimate   =     -66.92351909 Ry
     estimated scf accuracy    <       0.02793121 Ry

     iteration # 40     ecut=    60.00 Ry     beta=0.70
     Davidson diagonalization with overlap
     ethr =  3.04E-05,  avg # of iterations =  1.0

     total cpu time spent up to now is       19.6 secs

     total energy              =     -66.92631234 Ry
     Harris-Foulkes estimate   =     -66.92905192 Ry
     estimated scf accuracy    <       0.49927251 Ry

     iteration # 41     ecut=    60.00 Ry     beta=0.70
     Davidson diagonalization with overlap
     ethr =  3.04E-05,  avg # of iterations =  1.0

     total cpu time spent up to now is       19.7 secs

     total energy              =     -66.92023870 Ry
     Harris-Foulkes estimate   =     -66.92661802 Ry
     estimated scf accuracy    <       0.30170260 Ry

     iteration # 42     ecut=    60.00 Ry     beta=0.70
     Davidson diagonalization with overlap
     ethr =  3.04E-05,  avg # of iterations =  1.0

     total cpu time spent up to now is       19.9 secs

     total energy              =     -66.91868381 Ry
     Harris-Foulkes estimate   =     -66.92282799 Ry
     estimated scf accuracy    <       0.01372200 Ry

     iteration # 43     ecut=    60.00 Ry     beta=0.70
     Davidson diagonalization with overlap
     ethr =  3.04E-05,  avg # of iterations =  3.0

     total cpu time spent up to now is       20.0 secs

     total energy              =     -66.92880578 Ry
     Harris-Foulkes estimate   =     -66.92764775 Ry
     estimated scf accuracy    <       0.00777990 Ry

     iteration # 44     ecut=    60.00 Ry     beta=0.70
     Davidson diagonalization with overlap
     ethr =  3.04E-05,  avg # of iterations =  1.0

     total cpu time spent up to now is       20.1 secs

     total energy              =     -66.92939695 Ry
     Harris-Foulkes estimate   =     -66.92860026 Ry
     estimated scf accuracy    <       0.00477756 Ry

     iteration # 45     ecut=    60.00 Ry     beta=0.70
     Davidson diagonalization with overlap
     ethr =  2.99E-05,  avg # of iterations =  1.0

     total cpu time spent up to now is       20.2 secs

     total energy              =     -66.92972463 Ry
     Harris-Foulkes estimate   =     -66.92937114 Ry
     estimated scf accuracy    <       0.00536217 Ry

     iteration # 46     ecut=    60.00 Ry     beta=0.70
     Davidson diagonalization with overlap
     ethr =  2.99E-05,  avg # of iterations =  1.0

     total cpu time spent up to now is       20.3 secs

     total energy              =     -66.92957021 Ry
     Harris-Foulkes estimate   =     -66.92972785 Ry
     estimated scf accuracy    <       0.00594564 Ry

     iteration # 47     ecut=    60.00 Ry     beta=0.70
     Davidson diagonalization with overlap
     ethr =  2.99E-05,  avg # of iterations =  1.0

     total cpu time spent up to now is       20.4 secs

     total energy              =     -66.92933011 Ry
     Harris-Foulkes estimate   =     -66.92957060 Ry
     estimated scf accuracy    <       0.00575360 Ry

     iteration # 48     ecut=    60.00 Ry     beta=0.70
     Davidson diagonalization with overlap
     ethr =  2.99E-05,  avg # of iterations =  1.0

     total cpu time spent up to now is       20.5 secs

     total energy              =     -66.92788050 Ry
     Harris-Foulkes estimate   =     -66.92933066 Ry
     estimated scf accuracy    <       0.00538631 Ry

     iteration # 49     ecut=    60.00 Ry     beta=0.70
     Davidson diagonalization with overlap
     ethr =  2.99E-05,  avg # of iterations =  1.0

     total cpu time spent up to now is       20.6 secs

     total energy              =     -66.92609620 Ry
     Harris-Foulkes estimate   =     -66.92771121 Ry
     estimated scf accuracy    <       0.00764691 Ry

     iteration # 50     ecut=    60.00 Ry     beta=0.70
     Davidson diagonalization with overlap
     ethr =  2.99E-05,  avg # of iterations =  1.0

     total cpu time spent up to now is       20.7 secs

     total energy              =     -66.92758647 Ry
     Harris-Foulkes estimate   =     -66.92493668 Ry
     estimated scf accuracy    <       0.03645638 Ry

     iteration # 51     ecut=    60.00 Ry     beta=0.70
     Davidson diagonalization with overlap
     ethr =  2.99E-05,  avg # of iterations =  1.0

     total cpu time spent up to now is       20.8 secs

     total energy              =     -66.93050103 Ry
     Harris-Foulkes estimate   =     -66.92706061 Ry
     estimated scf accuracy    <       0.01328394 Ry

     iteration # 52     ecut=    60.00 Ry     beta=0.70
     Davidson diagonalization with overlap
     ethr =  2.99E-05,  avg # of iterations =  1.0

     total cpu time spent up to now is       20.9 secs

     total energy              =     -66.92927593 Ry
     Harris-Foulkes estimate   =     -66.92924658 Ry
     estimated scf accuracy    <       0.00519433 Ry

     iteration # 53     ecut=    60.00 Ry     beta=0.70
     Davidson diagonalization with overlap
     ethr =  2.99E-05,  avg # of iterations =  1.0

     total cpu time spent up to now is       21.0 secs

     total energy              =     -66.92924861 Ry
     Harris-Foulkes estimate   =     -66.92927962 Ry
     estimated scf accuracy    <       0.00523337 Ry

     iteration # 54     ecut=    60.00 Ry     beta=0.70
     Davidson diagonalization with overlap
     ethr =  2.99E-05,  avg # of iterations =  1.0

     total cpu time spent up to now is       21.2 secs

     total energy              =     -66.92924063 Ry
     Harris-Foulkes estimate   =     -66.92924889 Ry
     estimated scf accuracy    <       0.00524143 Ry

     iteration # 55     ecut=    60.00 Ry     beta=0.70
     Davidson diagonalization with overlap
     ethr =  2.99E-05,  avg # of iterations =  1.0

     total cpu time spent up to now is       21.3 secs

     total energy              =     -66.92933298 Ry
     Harris-Foulkes estimate   =     -66.92924067 Ry
     estimated scf accuracy    <       0.00523833 Ry

     iteration # 56     ecut=    60.00 Ry     beta=0.70
     Davidson diagonalization with overlap
     ethr =  2.99E-05,  avg # of iterations =  1.0

     total cpu time spent up to now is       21.4 secs

     total energy              =     -66.92936605 Ry
     Harris-Foulkes estimate   =     -66.92933299 Ry
     estimated scf accuracy    <       0.00536187 Ry

     iteration # 57     ecut=    60.00 Ry     beta=0.70
     Davidson diagonalization with overlap
     ethr =  2.99E-05,  avg # of iterations =  1.0

     total cpu time spent up to now is       21.5 secs

     total energy              =     -66.92923603 Ry
     Harris-Foulkes estimate   =     -66.92936607 Ry
     estimated scf accuracy    <       0.00541508 Ry

     iteration # 58     ecut=    60.00 Ry     beta=0.70
     Davidson diagonalization with overlap
     ethr =  2.99E-05,  avg # of iterations =  1.0

     total cpu time spent up to now is       21.6 secs

     total energy              =     -66.92913431 Ry
     Harris-Foulkes estimate   =     -66.92923598 Ry
     estimated scf accuracy    <       0.00524679 Ry

     iteration # 59     ecut=    60.00 Ry     beta=0.70
     Davidson diagonalization with overlap
     ethr =  2.99E-05,  avg # of iterations =  1.0

     total cpu time spent up to now is       21.7 secs

     total energy              =     -66.92903302 Ry
     Harris-Foulkes estimate   =     -66.92913432 Ry
     estimated scf accuracy    <       0.00510764 Ry

     iteration # 60     ecut=    60.00 Ry     beta=0.70
     Davidson diagonalization with overlap
     ethr =  2.99E-05,  avg # of iterations =  1.0

     total cpu time spent up to now is       21.8 secs

     total energy              =     -66.92535617 Ry
     Harris-Foulkes estimate   =     -66.92903307 Ry
     estimated scf accuracy    <       0.00498393 Ry

     iteration # 61     ecut=    60.00 Ry     beta=0.70
     Davidson diagonalization with overlap
     ethr =  2.99E-05,  avg # of iterations =  5.0

     total cpu time spent up to now is       21.9 secs

     total energy              =     -66.87168996 Ry
     Harris-Foulkes estimate   =     -66.97304857 Ry
     estimated scf accuracy    <       3.08077060 Ry

     iteration # 62     ecut=    60.00 Ry     beta=0.70
     Davidson diagonalization with overlap
     ethr =  2.99E-05,  avg # of iterations =  4.0

     total cpu time spent up to now is       22.1 secs

     total energy              =     -66.92232507 Ry
     Harris-Foulkes estimate   =     -66.92284095 Ry
     estimated scf accuracy    <       0.00975506 Ry

     iteration # 63     ecut=    60.00 Ry     beta=0.70
     Davidson diagonalization with overlap
     ethr =  2.99E-05,  avg # of iterations =  1.0

     total cpu time spent up to now is       22.2 secs

     total energy              =     -66.92237065 Ry
     Harris-Foulkes estimate   =     -66.92261166 Ry
     estimated scf accuracy    <       0.00043457 Ry

     iteration # 64     ecut=    60.00 Ry     beta=0.70
     Davidson diagonalization with overlap
     ethr =  2.72E-06,  avg # of iterations =  5.0

     total cpu time spent up to now is       22.3 secs

     total energy              =     -66.92705696 Ry
     Harris-Foulkes estimate   =     -66.92711902 Ry
     estimated scf accuracy    <       0.01266146 Ry

     iteration # 65     ecut=    60.00 Ry     beta=0.70
     Davidson diagonalization with overlap
     ethr =  2.72E-06,  avg # of iterations =  1.0

     total cpu time spent up to now is       22.4 secs

     total energy              =     -66.92642784 Ry
     Harris-Foulkes estimate   =     -66.92705675 Ry
     estimated scf accuracy    <       0.01335858 Ry

     iteration # 66     ecut=    60.00 Ry     beta=0.70
     Davidson diagonalization with overlap
     ethr =  2.72E-06,  avg # of iterations =  1.0

     total cpu time spent up to now is       22.5 secs

     total energy              =     -66.93086346 Ry
     Harris-Foulkes estimate   =     -66.92632572 Ry
     estimated scf accuracy    <       0.02249283 Ry

     iteration # 67     ecut=    60.00 Ry     beta=0.70
     Davidson diagonalization with overlap
     ethr =  2.72E-06,  avg # of iterations =  5.0

     total cpu time spent up to now is       22.7 secs

     total energy              =     -66.92939168 Ry
     Harris-Foulkes estimate   =     -66.92891506 Ry
     estimated scf accuracy    <       0.00486976 Ry

     iteration # 68     ecut=    60.00 Ry     beta=0.70
     Davidson diagonalization with overlap
     ethr =  2.72E-06,  avg # of iterations =  1.0

     total cpu time spent up to now is       22.8 secs

     total energy              =     -66.92963590 Ry
     Harris-Foulkes estimate   =     -66.92938799 Ry
[...]

     total cpu time spent up to now is     1639.7 secs

     total energy              =    -437.30256425 Ry
     Harris-Foulkes estimate   =  -20979.14562014 Ry
     estimated scf accuracy    <     111.74788850 Ry

     iteration #460     ecut=    60.00 Ry     beta=0.70
     Davidson diagonalization with overlap
     ethr =  1.00E-02,  avg # of iterations = 10.0

     negative rho (up, down):  4.069E+00 0.000E+00

     total cpu time spent up to now is     1640.0 secs

     total energy              =    -512.17827653 Ry
     Harris-Foulkes estimate   =  -95007.36826055 Ry
     estimated scf accuracy    <     149.37482234 Ry

     iteration #461     ecut=    60.00 Ry     beta=0.70
     Davidson diagonalization with overlap
     ethr =  1.00E-02,  avg # of iterations =  7.0

     negative rho (up, down):  4.732E+00 0.000E+00

     total cpu time spent up to now is     1640.2 secs

     total energy              =   -2667.77437217 Ry
     Harris-Foulkes estimate   =  -53375.53728303 Ry
     estimated scf accuracy    <     126.26284703 Ry

     iteration #462     ecut=    60.00 Ry     beta=0.70
     Davidson diagonalization with overlap
     ethr =  1.00E-02,  avg # of iterations =  9.0

     negative rho (up, down):  4.699E+00 0.000E+00

     total cpu time spent up to now is     1640.4 secs

     total energy              =   -2009.53379713 Ry
     Harris-Foulkes estimate   = -118712.13897219 Ry
     estimated scf accuracy    <      97.88827621 Ry

     iteration #463     ecut=    60.00 Ry     beta=0.70
     Davidson diagonalization with overlap
     ethr =  1.00E-02,  avg # of iterations = 12.0

     negative rho (up, down):  1.486E+00 0.000E+00

     total cpu time spent up to now is     1640.6 secs

     total energy              =   -1166.10852915 Ry
     Harris-Foulkes estimate   =   -8336.64103313 Ry
     estimated scf accuracy    <     118.02926344 Ry

     iteration #464     ecut=    60.00 Ry     beta=0.70
     Davidson diagonalization with overlap
     ethr =  1.00E-02,  avg # of iterations =  8.0

     negative rho (up, down):  2.107E+00 0.000E+00

     total cpu time spent up to now is     1640.8 secs

     total energy              =   -3552.71289599 Ry
     Harris-Foulkes estimate   =  -76660.84305102 Ry
     estimated scf accuracy    <      85.28794711 Ry

     iteration #465     ecut=    60.00 Ry     beta=0.70
     Davidson diagonalization with overlap
     ethr =  1.00E-02,  avg # of iterations =  9.0

     negative rho (up, down):  2.096E+00 0.000E+00

     total cpu time spent up to now is     1641.0 secs

     total energy              =     272.03212866 Ry
     Harris-Foulkes estimate   =  -26011.04588226 Ry
     estimated scf accuracy    <      84.08613958 Ry

     iteration #466     ecut=    60.00 Ry     beta=0.70
     Davidson diagonalization with overlap
     ethr =  1.00E-02,  avg # of iterations =  8.0

     negative rho (up, down):  2.180E+00 0.000E+00

     total cpu time spent up to now is     1641.2 secs

     total energy              =     -40.56284265 Ry
     Harris-Foulkes estimate   =  -24833.20924922 Ry
     estimated scf accuracy    <      88.31334552 Ry

     iteration #467     ecut=    60.00 Ry     beta=0.70
     Davidson diagonalization with overlap
     ethr =  1.00E-02,  avg # of iterations =  8.0

     negative rho (up, down):  2.133E+00 0.000E+00

     total cpu time spent up to now is     1641.4 secs

     total energy              =   -2149.82428589 Ry
     Harris-Foulkes estimate   =  -60398.90920137 Ry
     estimated scf accuracy    <      74.24169404 Ry

     iteration #468     ecut=    60.00 Ry     beta=0.70
     Davidson diagonalization with overlap
     ethr =  1.00E-02,  avg # of iterations =  9.0

     negative rho (up, down):  1.565E+00 0.000E+00

     total cpu time spent up to now is     1641.6 secs

     total energy              =    -227.14360391 Ry
     Harris-Foulkes estimate   =  -76933.15619506 Ry
     estimated scf accuracy    <      86.88735982 Ry

     iteration #469     ecut=    60.00 Ry     beta=0.70
     Davidson diagonalization with overlap
     ethr =  1.00E-02,  avg # of iterations = 11.0

     negative rho (up, down):  8.572E-02 0.000E+00

     total cpu time spent up to now is     1641.8 secs

     total energy              =     530.70325193 Ry
     Harris-Foulkes estimate   =  -99837.64001653 Ry
     estimated scf accuracy    <      68.21158330 Ry

     iteration #470     ecut=    60.00 Ry     beta=0.70
     Davidson diagonalization with overlap
     ethr =  1.00E-02,  avg # of iterations = 12.0

     negative rho (up, down):  4.313E-02 0.000E+00

     total cpu time spent up to now is     1642.1 secs

     total energy              =       4.57702497 Ry
     Harris-Foulkes estimate   =    -445.84143457 Ry
     estimated scf accuracy    <     154.08124373 Ry

     iteration #471     ecut=    60.00 Ry     beta=0.70
     Davidson diagonalization with overlap
     ethr =  1.00E-02,  avg # of iterations = 10.0

     negative rho (up, down):  3.615E-02 0.000E+00

     total cpu time spent up to now is     1642.3 secs

     total energy              =     112.23450524 Ry
     Harris-Foulkes estimate   =   -5918.86003107 Ry
     estimated scf accuracy    <      66.44447040 Ry

     iteration #472     ecut=    60.00 Ry     beta=0.70
     Davidson diagonalization with overlap
     ethr =  1.00E-02,  avg # of iterations =  8.0

     negative rho (up, down):  3.763E-02 0.000E+00

     total cpu time spent up to now is     1642.5 secs

     total energy              =     -95.00030925 Ry
     Harris-Foulkes estimate   =   -4660.84865679 Ry
     estimated scf accuracy    <     156.93637146 Ry

     iteration #473     ecut=    60.00 Ry     beta=0.70
     Davidson diagonalization with overlap
     ethr =  1.00E-02,  avg # of iterations =  5.0

     negative rho (up, down):  1.202E-01 0.000E+00

     total cpu time spent up to now is     1642.6 secs

     total energy              =      36.94009932 Ry
     Harris-Foulkes estimate   =   -2863.71592792 Ry
     estimated scf accuracy    <      86.09022329 Ry

     iteration #474     ecut=    60.00 Ry     beta=0.70
     Davidson diagonalization with overlap
     ethr =  1.00E-02,  avg # of iterations =  7.0

     negative rho (up, down):  2.039E-01 0.000E+00

     total cpu time spent up to now is     1642.8 secs

     total energy              =      -2.98002300 Ry
     Harris-Foulkes estimate   =   -1986.23380059 Ry
     estimated scf accuracy    <     123.86550134 Ry

     iteration #475     ecut=    60.00 Ry     beta=0.70
     Davidson diagonalization with overlap
     ethr =  1.00E-02,  avg # of iterations =  7.0

     negative rho (up, down):  1.073E+00 0.000E+00

     total cpu time spent up to now is     1642.9 secs

     total energy              =     -75.29306525 Ry
     Harris-Foulkes estimate   =    -945.69462569 Ry
     estimated scf accuracy    <     121.10266225 Ry

     iteration #476     ecut=    60.00 Ry     beta=0.70
     Davidson diagonalization with overlap
     ethr =  1.00E-02,  avg # of iterations =  7.0

     negative rho (up, down):  1.473E+00 0.000E+00

     total cpu time spent up to now is     1643.1 secs

     total energy              = -407179.27350333 Ry
     Harris-Foulkes estimate   =   -6312.40625065 Ry
     estimated scf accuracy    <     126.71139425 Ry

     iteration #477     ecut=    60.00 Ry     beta=0.70
     Davidson diagonalization with overlap
     ethr =  1.00E-02,  avg # of iterations =  8.0

     negative rho (up, down):  1.631E+00 0.000E+00

     total cpu time spent up to now is     1643.4 secs

     total energy              =    -176.89086511 Ry
     Harris-Foulkes estimate   =-1114552.81993576 Ry
     estimated scf accuracy    <     134.15775423 Ry

     iteration #478     ecut=    60.00 Ry     beta=0.70
     Davidson diagonalization with overlap
     ethr =  1.00E-02,  avg # of iterations = 17.0

     negative rho (up, down):  1.732E+00 0.000E+00

     total cpu time spent up to now is     1643.6 secs

     total energy              =    1445.83183764 Ry
     Harris-Foulkes estimate   =  -12492.83344978 Ry
     estimated scf accuracy    <      95.62029588 Ry

     iteration #479     ecut=    60.00 Ry     beta=0.70
     Davidson diagonalization with overlap
     ethr =  1.00E-02,  avg # of iterations =  8.0

     negative rho (up, down):  2.061E+00 0.000E+00

     total cpu time spent up to now is     1643.8 secs

     total energy              =     206.02409254 Ry
     Harris-Foulkes estimate   =  -19436.21437832 Ry
     estimated scf accuracy    <     142.51785983 Ry

     iteration #480     ecut=    60.00 Ry     beta=0.70
     Davidson diagonalization with overlap
     ethr =  1.00E-02,  avg # of iterations =  8.0

     negative rho (up, down):  1.604E+00 0.000E+00

     total cpu time spent up to now is     1644.0 secs

     total energy              =    -732.74196412 Ry
     Harris-Foulkes estimate   =  -18502.47727822 Ry
     estimated scf accuracy    <     133.79545197 Ry

     iteration #481     ecut=    60.00 Ry     beta=0.70
     Davidson diagonalization with overlap
     ethr =  1.00E-02,  avg # of iterations = 10.0

     negative rho (up, down):  1.720E+00 0.000E+00

     total cpu time spent up to now is     1644.2 secs

     total energy              =   -2389.06235631 Ry
     Harris-Foulkes estimate   =  -37592.12143117 Ry
     estimated scf accuracy    <      80.46931911 Ry

     iteration #482     ecut=    60.00 Ry     beta=0.70
     Davidson diagonalization with overlap
     ethr =  1.00E-02,  avg # of iterations =  8.0

     negative rho (up, down):  1.535E+00 0.000E+00

     total cpu time spent up to now is     1644.4 secs

     total energy              =    -122.08225379 Ry
     Harris-Foulkes estimate   =  -27225.74607450 Ry
     estimated scf accuracy    <      98.49768154 Ry

     iteration #483     ecut=    60.00 Ry     beta=0.70
     Davidson diagonalization with overlap
     ethr =  1.00E-02,  avg # of iterations =  8.0

     negative rho (up, down):  1.887E+00 0.000E+00

     total cpu time spent up to now is     1644.6 secs

     total energy              =      59.74005619 Ry
     Harris-Foulkes estimate   =  -68198.92296098 Ry
     estimated scf accuracy    <      63.78335408 Ry

     iteration #484     ecut=    60.00 Ry     beta=0.70
     Davidson diagonalization with overlap
     ethr =  1.00E-02,  avg # of iterations =  8.0

     negative rho (up, down):  1.948E+00 0.000E+00

     total cpu time spent up to now is     1644.8 secs

     total energy              =   -2041.62576891 Ry
     Harris-Foulkes estimate   =  -11660.51522010 Ry
     estimated scf accuracy    <     117.02515022 Ry

     iteration #485     ecut=    60.00 Ry     beta=0.70
     Davidson diagonalization with overlap
     ethr =  1.00E-02,  avg # of iterations = 12.0

     negative rho (up, down):  1.404E+00 0.000E+00

     total cpu time spent up to now is     1645.1 secs

     total energy              =     115.17452093 Ry
     Harris-Foulkes estimate   =  -14041.72080545 Ry
     estimated scf accuracy    <     125.96271283 Ry

     iteration #486     ecut=    60.00 Ry     beta=0.70
     Davidson diagonalization with overlap
     ethr =  1.00E-02,  avg # of iterations =  8.0

     negative rho (up, down):  7.854E-01 0.000E+00

     total cpu time spent up to now is     1645.3 secs

     total energy              =   -3419.10920294 Ry
     Harris-Foulkes estimate   = -735298.42815945 Ry
     estimated scf accuracy    <      94.51949626 Ry

     iteration #487     ecut=    60.00 Ry     beta=0.70
     Davidson diagonalization with overlap
     ethr =  1.00E-02,  avg # of iterations =  9.0

     negative rho (up, down):  8.079E-01 0.000E+00

     total cpu time spent up to now is     1645.5 secs

     total energy              =     188.39483090 Ry
     Harris-Foulkes estimate   =  -50233.40421460 Ry
     estimated scf accuracy    <      91.54714223 Ry

     iteration #488     ecut=    60.00 Ry     beta=0.70
     Davidson diagonalization with overlap
     ethr =  1.00E-02,  avg # of iterations =  8.0

     negative rho (up, down):  1.263E-01 0.000E+00

     total cpu time spent up to now is     1645.7 secs

     total energy              =     455.01854041 Ry
     Harris-Foulkes estimate   =  -11306.44218398 Ry
     estimated scf accuracy    <      71.93231022 Ry

     iteration #489     ecut=    60.00 Ry     beta=0.70
     Davidson diagonalization with overlap
     ethr =  1.00E-02,  avg # of iterations =  7.0

     negative rho (up, down):  3.170E-01 0.000E+00

     total cpu time spent up to now is     1645.9 secs

     total energy              =     253.71665480 Ry
     Harris-Foulkes estimate   =  -11217.52155588 Ry
     estimated scf accuracy    <      96.80646061 Ry

     iteration #490     ecut=    60.00 Ry     beta=0.70
     Davidson diagonalization with overlap
     ethr =  1.00E-02,  avg # of iterations = 13.0

     negative rho (up, down):  7.197E-01 0.000E+00

     total cpu time spent up to now is     1646.2 secs

     total energy              =   -4402.57478008 Ry
     Harris-Foulkes estimate   =  -35084.42182680 Ry
     estimated scf accuracy    <      85.77297798 Ry

     iteration #491     ecut=    60.00 Ry     beta=0.70
     Davidson diagonalization with overlap
     ethr =  1.00E-02,  avg # of iterations =  9.0

     negative rho (up, down):  1.082E+00 0.000E+00

     total cpu time spent up to now is     1646.4 secs

     total energy              =    -132.16904812 Ry
     Harris-Foulkes estimate   =  -34772.67385447 Ry
     estimated scf accuracy    <      92.90661937 Ry

     iteration #492     ecut=    60.00 Ry     beta=0.70
     Davidson diagonalization with overlap
     ethr =  1.00E-02,  avg # of iterations =  7.0

     negative rho (up, down):  8.679E-01 0.000E+00

     total cpu time spent up to now is     1646.6 secs

     total energy              =      59.29534671 Ry
     Harris-Foulkes estimate   =  -67858.38911756 Ry
     estimated scf accuracy    <      74.74285668 Ry

     iteration #493     ecut=    60.00 Ry     beta=0.70
     Davidson diagonalization with overlap
     ethr =  1.00E-02,  avg # of iterations =  8.0

     negative rho (up, down):  9.820E-01 0.000E+00

     total cpu time spent up to now is     1646.8 secs

     total energy              =     -83.03549960 Ry
     Harris-Foulkes estimate   =   -3774.34022932 Ry
     estimated scf accuracy    <      74.61104064 Ry

     iteration #494     ecut=    60.00 Ry     beta=0.70
     Davidson diagonalization with overlap
     ethr =  1.00E-02,  avg # of iterations =  7.0

     negative rho (up, down):  1.215E+00 0.000E+00

     total cpu time spent up to now is     1647.0 secs

     total energy              =    -196.53876946 Ry
     Harris-Foulkes estimate   =  -42227.85283223 Ry
     estimated scf accuracy    <      76.69417087 Ry

     iteration #495     ecut=    60.00 Ry     beta=0.70
     Davidson diagonalization with overlap
     ethr =  1.00E-02,  avg # of iterations =  8.0

     negative rho (up, down):  1.395E-01 0.000E+00

     total cpu time spent up to now is     1647.2 secs

     total energy              =     433.02200320 Ry
     Harris-Foulkes estimate   =  -69219.59356433 Ry
     estimated scf accuracy    <      58.71722400 Ry

     iteration #496     ecut=    60.00 Ry     beta=0.70
     Davidson diagonalization with overlap
     ethr =  1.00E-02,  avg # of iterations =  8.0

     negative rho (up, down):  3.057E-01 0.000E+00

     total cpu time spent up to now is     1647.4 secs

     total energy              =     486.95217641 Ry
     Harris-Foulkes estimate   =  -10223.02439323 Ry
     estimated scf accuracy    <      92.08754776 Ry

     iteration #497     ecut=    60.00 Ry     beta=0.70
     Davidson diagonalization with overlap
     ethr =  1.00E-02,  avg # of iterations = 14.0

     negative rho (up, down):  4.262E-01 0.000E+00

     total cpu time spent up to now is     1647.6 secs

     total energy              =     278.82427100 Ry
     Harris-Foulkes estimate   =   -8707.32502630 Ry
     estimated scf accuracy    <      84.09196561 Ry

     iteration #498     ecut=    60.00 Ry     beta=0.70
     Davidson diagonalization with overlap
     ethr =  1.00E-02,  avg # of iterations = 10.0

     negative rho (up, down):  4.324E-01 0.000E+00

     total cpu time spent up to now is     1647.8 secs

     total energy              =    -172.01228477 Ry
     Harris-Foulkes estimate   =  -13169.93436306 Ry
     estimated scf accuracy    <     110.75696820 Ry

     iteration #499     ecut=    60.00 Ry     beta=0.70
     Davidson diagonalization with overlap
     ethr =  1.00E-02,  avg # of iterations = 11.0

     negative rho (up, down):  4.071E-01 0.000E+00

     total cpu time spent up to now is     1648.1 secs

     total energy              =     -82.80812758 Ry
     Harris-Foulkes estimate   = -238644.13155517 Ry
     estimated scf accuracy    <      80.67252071 Ry

     iteration #500     ecut=    60.00 Ry     beta=0.70
     Davidson diagonalization with overlap
     ethr =  1.00E-02,  avg # of iterations = 10.0

     total cpu time spent up to now is     1648.3 secs

     End of self-consistent calculation

          k = 0.0000 0.0000 0.0000 ( 62669 PWs)   bands (ev):

  *********************************************-277.0070-119.4971 -98.5045
   -89.5126 -77.5346 -69.6995 -61.9838

     the Fermi energy is   -92.3411 ev

!    total energy              =     432.05029098 Ry
     Harris-Foulkes estimate   = -102356.85129001 Ry
     estimated scf accuracy    <      76.63797916 Ry

     convergence has been achieved in 500 iterations

     Forces acting on atoms (Ry/au):

     atom    1 type  2   force =  -112.82522768  -24.47233130   89.72072956
     atom    2 type  1   force =  -120.74976389  -58.26917820   91.40828713
     atom    3 type  1   force =  -120.73333295  -58.39571425   91.49677188
     atom    4 type  2   force =   -71.63458446   28.19787253  123.50254125
     atom    5 type  1   force =  -120.69488869  -58.57872384   91.40183070
     atom    6 type  1   force =   546.63779766  171.51807506 -487.53016052

     Total force =   829.166623     Total SCF correction =   930.767383
     SCF correction compared to forces is large: reduce conv_thr to get better values

     Entering Dynamics:    iteration =    65
                           time      =   0.0314 pico-seconds


     Andersen thermostat:    6 collisions

ATOMIC_POSITIONS (angstrom)
O       -0.899199839  -0.977904014   0.104611397
H       -6.844812961   0.360435125   4.376838544
H       -7.005702063  -1.452754638   5.047190877
O        5.221698810   5.417010405   5.966082261
H       -1.860935938   6.056173875  -0.426614726
H       36.444140516   3.921588959 -34.088488373


     kinetic energy (Ekin) =  8787.86536394 Ry
     temperature           = ************** K 
     Ekin + Etot (const)   =  9219.91565492 Ry
     Message from routine dynamics:
     Total linear momentum <> 0

     Linear momentum :    0.1322840229    0.3230851910   -0.0088105449

     Writing output data file pwscf.save

     second order wave-functions extrapolation
     Message from extrapolate_wfcs: 
     the matrix <psi(t-dt)|psi(t)> has 12 small (< 0.1) eigenvalues
     Check: negative starting charge=   -0.080456
     second order charge density extrapolation
     Check: negative starting charge=   -0.076874

     negative rho (up, down):  1.735E+04 0.000E+00

     total cpu time spent up to now is     1649.2 secs

     per-process dynamical memory:    37.7 Mb

     Self-consistent Calculation

     iteration #  1     ecut=    60.00 Ry     beta=0.70
     Davidson diagonalization with overlap

 %%%%%%%%%%%%%%%%%%%%%%%%%%%%%%%%%%%%%%%%%%%%%%%%%%%%%%%%%%%%%%%%%%%%%%%%%%%%%%
     Error in routine cdiaghg (61):
     S matrix not positive definite
 %%%%%%%%%%%%%%%%%%%%%%%%%%%%%%%%%%%%%%%%%%%%%%%%%%%%%%%%%%%%%%%%%%%%%%%%%%%%%%

     stopping ...
