
     Program PWSCF v.6.0 (svn rev. 13079) starts on 13Apr2018 at 19:26:22 

     This program is part of the open-source Quantum ESPRESSO suite
     for quantum simulation of materials; please cite
         "P. Giannozzi et al., J. Phys.:Condens. Matter 21 395502 (2009);
          URL http://www.quantum-espresso.org", 
     in publications or presentations arising from this work. More details at
     http://www.quantum-espresso.org/quote

     Parallel version (MPI), running on    28 processors
     R & G space division:  proc/nbgrp/npool/nimage =      28
     Reading input from ../H2O-400.in

     Current dimensions of program PWSCF are:
     Max number of different atomic species (ntypx) = 10
     Max number of k-points (npk) =  40000
     Max angular momentum in pseudopotentials (lmaxx) =  3

     Subspace diagonalization in iterative solution of the eigenvalue problem:
     a serial algorithm will be used

 
     Parallelization info
     --------------------
     sticks:   dense  smooth     PW     G-vecs:    dense   smooth      PW
     Min         273     273     67                17945    17945    2235
     Max         274     274     68                17950    17950    2240
     Sum        7645    7645   1901               502479   502479   62669
 


     bravais-lattice index     =            1
     lattice parameter (alat)  =      20.0000  a.u.
     unit-cell volume          =    8000.0000 (a.u.)^3
     number of atoms/cell      =            3
     number of atomic types    =            2
     number of electrons       =         8.00
     number of Kohn-Sham states=            8
     kinetic-energy cutoff     =      60.0000  Ry
     charge density cutoff     =     240.0000  Ry
     convergence threshold     =      1.0E-08
     mixing beta               =       0.7000
     number of iterations used =            8  plain     mixing
     Exchange-correlation      = BLYP ( 1  3  1  3 0 0)
     nstep                     =         5000


     celldm(1)=  20.000000  celldm(2)=   0.000000  celldm(3)=   0.000000
     celldm(4)=   0.000000  celldm(5)=   0.000000  celldm(6)=   0.000000

     crystal axes: (cart. coord. in units of alat)
               a(1) = (   1.000000   0.000000   0.000000 )  
               a(2) = (   0.000000   1.000000   0.000000 )  
               a(3) = (   0.000000   0.000000   1.000000 )  

     reciprocal axes: (cart. coord. in units 2 pi/alat)
               b(1) = (  1.000000  0.000000  0.000000 )  
               b(2) = (  0.000000  1.000000  0.000000 )  
               b(3) = (  0.000000  0.000000  1.000000 )  


     PseudoPot. # 1 for  H read from file:
     ./H.blyp-hgh.UPF
     MD5 check sum: c576e69559cde411e611be972c763230
     Pseudo is Norm-conserving, Zval =  1.0
     Generated in analytical, separable form
     Using radial grid of  929 points,  0 beta functions with: 

     PseudoPot. # 2 for  O read from file:
     ./O.blyp-hgh.UPF
     MD5 check sum: d0b7156309aa9befef28faac7bc56342
     Pseudo is Norm-conserving, Zval =  6.0
     Generated in analytical, separable form
     Using radial grid of 1095 points,  1 beta functions with: 
                l(1) =   0

     atomic species   valence    mass     pseudopotential
        H              1.00     1.01000      H( 1.00)
        O              6.00    16.00000      O( 1.00)

     No symmetry found



   Cartesian axes

     site n.     atom                  positions (alat units)
         1           O   tau(   1) = (   0.0000000   0.0000000   0.0112686  )
         2           H   tau(   2) = (   0.0000000   0.0721156  -0.0450744  )
         3           H   tau(   3) = (   0.0000000  -0.0721156  -0.0450744  )

     number of k points=     1  Marzari-Vanderbilt smearing, width (Ry)=  0.0250
                       cart. coord. in units 2pi/alat
        k(    1) = (   0.0000000   0.0000000   0.0000000), wk =   2.0000000

     Dense  grid:   502479 G-vectors     FFT dimensions: ( 100, 100, 100)

     Estimated max dynamical RAM per process >      17.25Mb

     Estimated total allocated dynamical RAM >     483.03Mb

     Initial potential from superposition of free atoms
     Check: negative starting charge=   -0.071145

     starting charge    7.99998, renormalised to    8.00000

     negative rho (up, down):  7.115E-02 0.000E+00
     Starting wfc are    6 randomized atomic wfcs +    2 random wfc

     total cpu time spent up to now is       12.1 secs

     per-process dynamical memory:    31.0 Mb

     Self-consistent Calculation

     iteration #  1     ecut=    60.00 Ry     beta=0.70
     Davidson diagonalization with overlap
     ethr =  1.00E-02,  avg # of iterations =  8.0

     negative rho (up, down):  2.059E-02 0.000E+00

     total cpu time spent up to now is       16.3 secs

     total energy              =     -33.66095752 Ry
     Harris-Foulkes estimate   =     -33.73037087 Ry
     estimated scf accuracy    <       0.20731731 Ry

     iteration #  2     ecut=    60.00 Ry     beta=0.70
     Davidson diagonalization with overlap
     ethr =  2.59E-03,  avg # of iterations =  2.0

     negative rho (up, down):  1.160E-02 0.000E+00

     total cpu time spent up to now is       18.7 secs

     total energy              =     -33.69154141 Ry
     Harris-Foulkes estimate   =     -33.75067961 Ry
     estimated scf accuracy    <       0.13672646 Ry

     iteration #  3     ecut=    60.00 Ry     beta=0.70
     Davidson diagonalization with overlap
     ethr =  1.71E-03,  avg # of iterations =  2.0

     negative rho (up, down):  2.425E-04 0.000E+00

     total cpu time spent up to now is       21.2 secs

     total energy              =     -33.73645651 Ry
     Harris-Foulkes estimate   =     -33.72668477 Ry
     estimated scf accuracy    <       0.00681938 Ry

     iteration #  4     ecut=    60.00 Ry     beta=0.70
     Davidson diagonalization with overlap
     ethr =  8.52E-05,  avg # of iterations =  8.0

     negative rho (up, down):  2.472E-04 0.000E+00

     total cpu time spent up to now is       25.3 secs

     total energy              =     -33.73796938 Ry
     Harris-Foulkes estimate   =     -33.73799256 Ry
     estimated scf accuracy    <       0.00005665 Ry

     iteration #  5     ecut=    60.00 Ry     beta=0.70
     Davidson diagonalization with overlap
     ethr =  7.08E-07,  avg # of iterations = 12.0

     negative rho (up, down):  1.549E-05 0.000E+00

     total cpu time spent up to now is       29.3 secs

     total energy              =     -33.73797920 Ry
     Harris-Foulkes estimate   =     -33.73798342 Ry
     estimated scf accuracy    <       0.00000504 Ry

     iteration #  6     ecut=    60.00 Ry     beta=0.70
     Davidson diagonalization with overlap
     ethr =  6.29E-08,  avg # of iterations = 10.0

     total cpu time spent up to now is       33.0 secs

     total energy              =     -33.74205619 Ry
     Harris-Foulkes estimate   =     -33.74205731 Ry
     estimated scf accuracy    <       0.00000017 Ry

     iteration #  7     ecut=    60.00 Ry     beta=0.70
     Davidson diagonalization with overlap
     ethr =  2.09E-09,  avg # of iterations =  2.0

     total cpu time spent up to now is       35.1 secs

     End of self-consistent calculation

          k = 0.0000 0.0000 0.0000 ( 62669 PWs)   bands (ev):

   -25.4812 -12.9157  -9.2080  -7.0609  -0.9110   0.4220   0.7968   1.1102

     the Fermi energy is    -5.1975 ev

!    total energy              =     -33.74205615 Ry
     Harris-Foulkes estimate   =     -33.74205623 Ry
     estimated scf accuracy    <          9.0E-09 Ry

     convergence has been achieved in   7 iterations

     Forces acting on atoms (Ry/au):

     atom    1 type  2   force =     0.00000338    0.00000165    0.05215122
     atom    2 type  1   force =    -0.00000165    0.02843773   -0.02607547
     atom    3 type  1   force =    -0.00000173   -0.02843938   -0.02607575

     Total force =     0.075479     Total SCF correction =     0.000161

     Molecular Dynamics Calculation

     Starting temperature  =   500.00 K

     temperature is controlled by Andersen thermostat
     Collision frequency = 1.0000/timestep
     mass H                =     1.01
     mass O                =    16.00
     Time step             =    10.00 a.u.,  0.4838 femto-seconds

     Entering Dynamics:    iteration =     1
                           time      =   0.0005 pico-seconds


     Andersen thermostat:    3 collisions

ATOMIC_POSITIONS (angstrom)
O       -0.000468070  -0.000278028   0.118543470
H        0.000057303   0.770808645  -0.481438593
H        0.007357663  -0.766404242  -0.461272754


     kinetic energy (Ekin) =     0.00668510 Ry
     temperature           =   351.83062231 K 
     Ekin + Etot (const)   =   -33.73537105 Ry

     Linear momentum :   -0.0000000000   -0.0000000000    0.0000000000

     Writing output data file pwscf.save
     Check: negative starting charge=   -0.071145
     NEW-OLD atomic charge density approx. for the potential
     Check: negative starting charge=   -0.071127

     negative rho (up, down):  9.184E-04 0.000E+00

     total cpu time spent up to now is       44.6 secs

     per-process dynamical memory:    32.6 Mb

     Self-consistent Calculation

     iteration #  1     ecut=    60.00 Ry     beta=0.70
     Davidson diagonalization with overlap
     c_bands:  1 eigenvalues not converged
     ethr =  1.00E-06,  avg # of iterations = 20.0

     negative rho (up, down):  1.964E-04 0.000E+00

     total cpu time spent up to now is       50.0 secs

     total energy              =     -33.73768744 Ry
     Harris-Foulkes estimate   =     -33.73767081 Ry
     estimated scf accuracy    <       0.00005317 Ry

     iteration #  2     ecut=    60.00 Ry     beta=0.70
     Davidson diagonalization with overlap
     ethr =  6.65E-07,  avg # of iterations =  4.0

     negative rho (up, down):  1.440E-05 0.000E+00

     total cpu time spent up to now is       53.0 secs

     total energy              =     -33.73768807 Ry
     Harris-Foulkes estimate   =     -33.73769304 Ry
     estimated scf accuracy    <       0.00000426 Ry

     iteration #  3     ecut=    60.00 Ry     beta=0.70
     Davidson diagonalization with overlap
     ethr =  5.32E-08,  avg # of iterations =  2.0

     negative rho (up, down):  6.658E-07 0.000E+00

     total cpu time spent up to now is       55.2 secs

     total energy              =     -33.74176510 Ry
     Harris-Foulkes estimate   =     -33.74176647 Ry
     estimated scf accuracy    <       0.00000100 Ry

     iteration #  4     ecut=    60.00 Ry     beta=0.70
     Davidson diagonalization with overlap
     ethr =  1.24E-08,  avg # of iterations =  2.0

     total cpu time spent up to now is       57.9 secs

     total energy              =     -33.74176516 Ry
     Harris-Foulkes estimate   =     -33.74176544 Ry
     estimated scf accuracy    <       0.00000017 Ry

     iteration #  5     ecut=    60.00 Ry     beta=0.70
     Davidson diagonalization with overlap
     ethr =  2.10E-09,  avg # of iterations =  2.0

     total cpu time spent up to now is       60.0 secs

     End of self-consistent calculation

          k = 0.0000 0.0000 0.0000 ( 62669 PWs)   bands (ev):

   -25.4615 -12.9606  -9.1572  -7.0557  -0.9109   0.4223   0.7937   1.1134

     the Fermi energy is    -5.1902 ev

!    total energy              =     -33.74176500 Ry
     Harris-Foulkes estimate   =     -33.74176519 Ry
     estimated scf accuracy    <          1.7E-09 Ry

     convergence has been achieved in   5 iterations

     Forces acting on atoms (Ry/au):

     atom    1 type  2   force =    -0.00074700    0.02420896    0.05525296
     atom    2 type  1   force =     0.00018534    0.01378464   -0.01857918
     atom    3 type  1   force =     0.00056166   -0.03799360   -0.03667377

     Total force =     0.083448     Total SCF correction =     0.000392

     Entering Dynamics:    iteration =     2
                           time      =   0.0010 pico-seconds


     Andersen thermostat:    3 collisions

ATOMIC_POSITIONS (angstrom)
O       -0.000376875  -0.000776847   0.118590651
H        0.001706742   0.766903350  -0.477113470
H        0.004263559  -0.754596859  -0.466345305


     kinetic energy (Ekin) =     0.00499826 Ry
     temperature           =   263.05415647 K 
     Ekin + Etot (const)   =   -33.73676674 Ry
     Message from routine dynamics:
     Total linear momentum <> 0

     Linear momentum :    0.0223735093    0.2599878526    0.1259978928

     Writing output data file pwscf.save

     first order wave-functions extrapolation
     Check: negative starting charge=   -0.071127
     first order charge density extrapolation
     Check: negative starting charge=   -0.071136

     negative rho (up, down):  1.232E-03 0.000E+00

     total cpu time spent up to now is       72.8 secs

     per-process dynamical memory:    32.7 Mb

     Self-consistent Calculation

     iteration #  1     ecut=    60.00 Ry     beta=0.70
     Davidson diagonalization with overlap
     ethr =  1.00E-06,  avg # of iterations = 12.0

     negative rho (up, down):  2.731E-04 0.000E+00

     total cpu time spent up to now is       77.4 secs

     total energy              =     -33.73672276 Ry
     Harris-Foulkes estimate   =     -33.73667631 Ry
     estimated scf accuracy    <       0.00016355 Ry

     iteration #  2     ecut=    60.00 Ry     beta=0.70
     Davidson diagonalization with overlap
     ethr =  2.04E-06,  avg # of iterations =  5.0

     negative rho (up, down):  1.095E-04 0.000E+00

     total cpu time spent up to now is       80.6 secs

     total energy              =     -33.73674143 Ry
     Harris-Foulkes estimate   =     -33.73677192 Ry
     estimated scf accuracy    <       0.00006076 Ry

     iteration #  3     ecut=    60.00 Ry     beta=0.70
     Davidson diagonalization with overlap
     ethr =  7.60E-07,  avg # of iterations =  2.0

     negative rho (up, down):  2.298E-06 0.000E+00

     total cpu time spent up to now is       83.0 secs

     total energy              =     -33.74083512 Ry
     Harris-Foulkes estimate   =     -33.74083858 Ry
     estimated scf accuracy    <       0.00000964 Ry

     iteration #  4     ecut=    60.00 Ry     beta=0.70
     Davidson diagonalization with overlap
     ethr =  1.20E-07,  avg # of iterations =  3.0

     total cpu time spent up to now is       85.7 secs

     total energy              =     -33.74083733 Ry
     Harris-Foulkes estimate   =     -33.74083693 Ry
     estimated scf accuracy    <       0.00000008 Ry

     iteration #  5     ecut=    60.00 Ry     beta=0.70
     Davidson diagonalization with overlap
     ethr =  9.50E-10,  avg # of iterations =  2.0

     total cpu time spent up to now is       87.9 secs

     End of self-consistent calculation

          k = 0.0000 0.0000 0.0000 ( 62669 PWs)   bands (ev):

   -25.5389 -12.9870  -9.1974  -7.0700  -0.8960   0.4272   0.8060   1.1192

     the Fermi energy is    -5.2052 ev

!    total energy              =     -33.74083739 Ry
     Harris-Foulkes estimate   =     -33.74083736 Ry
     estimated scf accuracy    <          4.2E-09 Ry

     convergence has been achieved in   5 iterations

     Forces acting on atoms (Ry/au):

     atom    1 type  2   force =    -0.00080549    0.02670410    0.06576201
     atom    2 type  1   force =     0.00027599    0.02330597   -0.02239421
     atom    3 type  1   force =     0.00052951   -0.05001008   -0.04336780

     Total force =     0.102300     Total SCF correction =     0.000261

     Entering Dynamics:    iteration =     3
                           time      =   0.0015 pico-seconds


     Andersen thermostat:    3 collisions

ATOMIC_POSITIONS (angstrom)
O       -0.000951616  -0.000440189   0.118750016
H        0.006511100   0.771467121  -0.467562939
H        0.008564008  -0.764493823  -0.478420428


     kinetic energy (Ekin) =     0.00770231 Ry
     temperature           =   405.36563776 K 
     Ekin + Etot (const)   =   -33.73313508 Ry
     Message from routine dynamics:
     Total linear momentum <> 0

     Linear momentum :    0.2601745899   -0.2870316394    0.0463430833

     Writing output data file pwscf.save

     second order wave-functions extrapolation
     Check: negative starting charge=   -0.071136
     second order charge density extrapolation
     Check: negative starting charge=   -0.071132

     negative rho (up, down):  8.783E-04 0.000E+00

     total cpu time spent up to now is      104.9 secs

     per-process dynamical memory:    32.7 Mb

     Self-consistent Calculation

     iteration #  1     ecut=    60.00 Ry     beta=0.70
     Davidson diagonalization with overlap
     c_bands:  1 eigenvalues not converged
     ethr =  1.00E-06,  avg # of iterations = 20.0

     negative rho (up, down):  1.871E-04 0.000E+00

     total cpu time spent up to now is      110.1 secs

     total energy              =     -33.73796737 Ry
     Harris-Foulkes estimate   =     -33.73809091 Ry
     estimated scf accuracy    <       0.00024254 Ry

     iteration #  2     ecut=    60.00 Ry     beta=0.70
     Davidson diagonalization with overlap
     ethr =  3.03E-06,  avg # of iterations =  3.0

     negative rho (up, down):  8.942E-05 0.000E+00

     total cpu time spent up to now is      112.8 secs

     total energy              =     -33.74208106 Ry
     Harris-Foulkes estimate   =     -33.74216777 Ry
     estimated scf accuracy    <       0.00015979 Ry

     iteration #  3     ecut=    60.00 Ry     beta=0.70
     Davidson diagonalization with overlap
     ethr =  2.00E-06,  avg # of iterations =  2.0

     negative rho (up, down):  3.100E-06 0.000E+00

     total cpu time spent up to now is      115.2 secs

     total energy              =     -33.73803934 Ry
     Harris-Foulkes estimate   =     -33.73804265 Ry
     estimated scf accuracy    <       0.00000517 Ry

     iteration #  4     ecut=    60.00 Ry     beta=0.70
     Davidson diagonalization with overlap
     ethr =  6.47E-08,  avg # of iterations =  2.0

     negative rho (up, down):  4.627E-08 0.000E+00

     total cpu time spent up to now is      117.5 secs

     total energy              =     -33.74211771 Ry
     Harris-Foulkes estimate   =     -33.74211787 Ry
     estimated scf accuracy    <       0.00000007 Ry

     iteration #  5     ecut=    60.00 Ry     beta=0.70
     Davidson diagonalization with overlap
     ethr =  8.39E-10,  avg # of iterations =  2.0

     total cpu time spent up to now is      119.7 secs

     End of self-consistent calculation

          k = 0.0000 0.0000 0.0000 ( 62669 PWs)   bands (ev):

   -25.4566 -12.9432  -9.1676  -7.0553  -0.9123   0.4221   0.7931   1.1085

     the Fermi energy is    -5.1926 ev

!    total energy              =     -33.74211767 Ry
     Harris-Foulkes estimate   =     -33.74211773 Ry
     estimated scf accuracy    <          4.0E-09 Ry

     convergence has been achieved in   5 iterations

     Forces acting on atoms (Ry/au):

     atom    1 type  2   force =    -0.00117809   -0.00143277    0.05241889
     atom    2 type  1   force =     0.00055861    0.02576814   -0.02629430
     atom    3 type  1   force =     0.00061948   -0.02433537   -0.02612458

     Total force =     0.073362     Total SCF correction =     0.000553

     Entering Dynamics:    iteration =     4
                           time      =   0.0019 pico-seconds


     Andersen thermostat:    3 collisions

ATOMIC_POSITIONS (angstrom)
O       -0.002171243  -0.001169601   0.119786831
H        0.002564930   0.764062843  -0.476726988
H        0.031831004  -0.745534517  -0.485681173


     kinetic energy (Ekin) =     0.02013365 Ry
     temperature           =  1059.61591528 K 
     Ekin + Etot (const)   =   -33.72198403 Ry
     Message from routine dynamics:
     Total linear momentum <> 0

     Linear momentum :    0.2028503765    0.0372680662   -0.1851162792

     Writing output data file pwscf.save

     second order wave-functions extrapolation
     Check: negative starting charge=   -0.071132
     second order charge density extrapolation
     Check: negative starting charge=   -0.071162

     negative rho (up, down):  1.890E-03 0.000E+00

     total cpu time spent up to now is      134.1 secs

     per-process dynamical memory:    32.7 Mb

     Self-consistent Calculation

     iteration #  1     ecut=    60.00 Ry     beta=0.70
     Davidson diagonalization with overlap
     c_bands:  1 eigenvalues not converged
     ethr =  1.00E-06,  avg # of iterations = 20.0

     negative rho (up, down):  4.431E-04 0.000E+00

     total cpu time spent up to now is      139.8 secs

     total energy              =     -33.73735326 Ry
     Harris-Foulkes estimate   =     -33.73690132 Ry
     estimated scf accuracy    <       0.00008051 Ry

     iteration #  2     ecut=    60.00 Ry     beta=0.70
     Davidson diagonalization with overlap
     ethr =  1.01E-06,  avg # of iterations = 12.0

     negative rho (up, down):  1.453E-04 0.000E+00

     total cpu time spent up to now is      143.8 secs

     total energy              =     -33.73735957 Ry
     Harris-Foulkes estimate   =     -33.73736896 Ry
     estimated scf accuracy    <       0.00002206 Ry

     iteration #  3     ecut=    60.00 Ry     beta=0.70
     Davidson diagonalization with overlap
     ethr =  2.76E-07,  avg # of iterations =  3.0

     negative rho (up, down):  1.457E-08 0.000E+00

     total cpu time spent up to now is      146.5 secs

     total energy              =     -33.73736449 Ry
     Harris-Foulkes estimate   =     -33.73736815 Ry
     estimated scf accuracy    <       0.00000790 Ry

     iteration #  4     ecut=    60.00 Ry     beta=0.70
     Davidson diagonalization with overlap
     ethr =  9.88E-08,  avg # of iterations =  4.0

     total cpu time spent up to now is      149.3 secs

     total energy              =     -33.74144355 Ry
     Harris-Foulkes estimate   =     -33.74144351 Ry
     estimated scf accuracy    <       0.00000002 Ry

     iteration #  5     ecut=    60.00 Ry     beta=0.70
     Davidson diagonalization with overlap
     ethr =  2.42E-10,  avg # of iterations =  3.0

     total cpu time spent up to now is      151.6 secs

     End of self-consistent calculation

          k = 0.0000 0.0000 0.0000 ( 62669 PWs)   bands (ev):

   -25.5378 -12.8929  -9.2676  -7.0721  -0.9042   0.4238   0.8058   1.1133

     the Fermi energy is    -5.2094 ev

!    total energy              =     -33.74144353 Ry
     Harris-Foulkes estimate   =     -33.74144357 Ry
     estimated scf accuracy    <          3.3E-09 Ry

     convergence has been achieved in   5 iterations

     Forces acting on atoms (Ry/au):

     atom    1 type  2   force =    -0.00317810    0.01426397    0.05577850
     atom    2 type  1   force =     0.00067645    0.02926037   -0.02148437
     atom    3 type  1   force =     0.00250165   -0.04352434   -0.03429413

     Total force =     0.087862     Total SCF correction =     0.000186

     Entering Dynamics:    iteration =     5
                           time      =   0.0024 pico-seconds


     Andersen thermostat:    3 collisions

ATOMIC_POSITIONS (angstrom)
O       -0.002217476  -0.001084219   0.121261316
H       -0.013969615   0.771357180  -0.491032731
H        0.049097946  -0.754181430  -0.494733606


     kinetic energy (Ekin) =     0.01637341 Ry
     temperature           =   861.71781829 K 
     Ekin + Etot (const)   =   -33.72507012 Ry
     Message from routine dynamics:
     Total linear momentum <> 0

     Linear momentum :   -0.0856235935    0.2185461768    0.0963387573

     Writing output data file pwscf.save

     second order wave-functions extrapolation
     Check: negative starting charge=   -0.071162
     second order charge density extrapolation
     Check: negative starting charge=   -0.071181

     negative rho (up, down):  1.325E-03 0.000E+00

     total cpu time spent up to now is      165.9 secs

     per-process dynamical memory:    32.7 Mb

     Self-consistent Calculation

     iteration #  1     ecut=    60.00 Ry     beta=0.70
     Davidson diagonalization with overlap
     c_bands:  1 eigenvalues not converged
     ethr =  1.00E-06,  avg # of iterations = 20.0

     negative rho (up, down):  2.995E-04 0.000E+00

     total cpu time spent up to now is      171.0 secs

     total energy              =     -33.73892603 Ry
     Harris-Foulkes estimate   =     -33.73913176 Ry
     estimated scf accuracy    <       0.00049849 Ry

     iteration #  2     ecut=    60.00 Ry     beta=0.70
     Davidson diagonalization with overlap
     ethr =  6.23E-06,  avg # of iterations =  3.0

     negative rho (up, down):  1.624E-04 0.000E+00

     total cpu time spent up to now is      173.9 secs

     total energy              =     -33.74309831 Ry
     Harris-Foulkes estimate   =     -33.74332252 Ry
     estimated scf accuracy    <       0.00044436 Ry

     iteration #  3     ecut=    60.00 Ry     beta=0.70
     Davidson diagonalization with overlap
     ethr =  5.55E-06,  avg # of iterations =  2.0

     negative rho (up, down):  4.549E-06 0.000E+00

     total cpu time spent up to now is      176.2 secs

     total energy              =     -33.73911237 Ry
     Harris-Foulkes estimate   =     -33.73911620 Ry
     estimated scf accuracy    <       0.00000464 Ry

     iteration #  4     ecut=    60.00 Ry     beta=0.70
     Davidson diagonalization with overlap
     ethr =  5.81E-08,  avg # of iterations =  9.0

     negative rho (up, down):  4.721E-08 0.000E+00

     total cpu time spent up to now is      179.5 secs

     total energy              =     -33.74319109 Ry
     Harris-Foulkes estimate   =     -33.74319101 Ry
     estimated scf accuracy    <       0.00000009 Ry

     iteration #  5     ecut=    60.00 Ry     beta=0.70
     Davidson diagonalization with overlap
     ethr =  1.08E-09,  avg # of iterations =  2.0

     total cpu time spent up to now is      181.6 secs

     End of self-consistent calculation

          k = 0.0000 0.0000 0.0000 ( 62669 PWs)   bands (ev):

   -25.3844 -12.7280  -9.2745  -7.0465  -0.9455   0.4097   0.7795   1.1093

     the Fermi energy is    -5.1740 ev

!    total energy              =     -33.74319111 Ry
     Harris-Foulkes estimate   =     -33.74319111 Ry
     estimated scf accuracy    <          4.0E-09 Ry

     convergence has been achieved in   5 iterations

     Forces acting on atoms (Ry/au):

     atom    1 type  2   force =    -0.00242861    0.01471075    0.02351228
     atom    2 type  1   force =     0.00033136    0.00897849   -0.00550695
     atom    3 type  1   force =     0.00209725   -0.02368924   -0.01800534

     Total force =     0.042142     Total SCF correction =     0.000756

     Entering Dynamics:    iteration =     6
                           time      =   0.0029 pico-seconds


     Andersen thermostat:    3 collisions

ATOMIC_POSITIONS (angstrom)
O       -0.001752718  -0.001453211   0.121097282
H       -0.026776631   0.768356058  -0.478830272
H        0.054542459  -0.745334901  -0.504337499


     kinetic energy (Ekin) =     0.01101770 Ry
     temperature           =   579.85159732 K 
     Ekin + Etot (const)   =   -33.73217341 Ry
     Message from routine dynamics:
     Total linear momentum <> 0

     Linear momentum :   -0.0504780560   -0.4084883665   -0.1049197790

     Writing output data file pwscf.save

     second order wave-functions extrapolation
     Check: negative starting charge=   -0.071181
     second order charge density extrapolation
     Check: negative starting charge=   -0.071187

     negative rho (up, down):  9.952E-04 0.000E+00

     total cpu time spent up to now is      195.6 secs

     per-process dynamical memory:    32.7 Mb

     Self-consistent Calculation

     iteration #  1     ecut=    60.00 Ry     beta=0.70
     Davidson diagonalization with overlap
     ethr =  1.00E-06,  avg # of iterations = 20.0

     negative rho (up, down):  2.153E-04 0.000E+00

     total cpu time spent up to now is      200.9 secs

     total energy              =     -33.73871640 Ry
     Harris-Foulkes estimate   =     -33.73869811 Ry
     estimated scf accuracy    <       0.00006982 Ry

     iteration #  2     ecut=    60.00 Ry     beta=0.70
     Davidson diagonalization with overlap
     ethr =  8.73E-07,  avg # of iterations =  4.0

     negative rho (up, down):  9.161E-05 0.000E+00

     total cpu time spent up to now is      203.9 secs

     total energy              =     -33.73872205 Ry
     Harris-Foulkes estimate   =     -33.73874083 Ry
     estimated scf accuracy    <       0.00003324 Ry

     iteration #  3     ecut=    60.00 Ry     beta=0.70
     Davidson diagonalization with overlap
     ethr =  4.15E-07,  avg # of iterations =  2.0

     negative rho (up, down):  4.603E-07 0.000E+00

     total cpu time spent up to now is      206.2 secs

     total energy              =     -33.74280519 Ry
     Harris-Foulkes estimate   =     -33.74280933 Ry
     estimated scf accuracy    <       0.00000371 Ry

     iteration #  4     ecut=    60.00 Ry     beta=0.70
     Davidson diagonalization with overlap
     ethr =  4.63E-08,  avg # of iterations =  2.0

     total cpu time spent up to now is      208.8 secs

     total energy              =     -33.74280584 Ry
     Harris-Foulkes estimate   =     -33.74280588 Ry
     estimated scf accuracy    <       0.00000002 Ry

     iteration #  5     ecut=    60.00 Ry     beta=0.70
     Davidson diagonalization with overlap
     ethr =  2.55E-10,  avg # of iterations =  3.0

     total cpu time spent up to now is      211.1 secs

     End of self-consistent calculation

          k = 0.0000 0.0000 0.0000 ( 62669 PWs)   bands (ev):

   -25.4444 -12.7616  -9.2952  -7.0572  -0.9316   0.4142   0.7900   1.1112

     the Fermi energy is    -5.1876 ev

!    total energy              =     -33.74280575 Ry
     Harris-Foulkes estimate   =     -33.74280585 Ry
     estimated scf accuracy    <          2.5E-09 Ry

     convergence has been achieved in   5 iterations

     Forces acting on atoms (Ry/au):

     atom    1 type  2   force =    -0.00191636    0.00293461    0.03289884
     atom    2 type  1   force =    -0.00039171    0.02259491   -0.01447321
     atom    3 type  1   force =     0.00230807   -0.02552952   -0.01842563

     Total force =     0.053022     Total SCF correction =     0.000408

     Entering Dynamics:    iteration =     7
                           time      =   0.0034 pico-seconds


     Andersen thermostat:    3 collisions

ATOMIC_POSITIONS (angstrom)
O       -0.002129012  -0.001054796   0.120505188
H       -0.027254410   0.763350080  -0.468086026
H        0.060981327  -0.746640441  -0.505702036


     kinetic energy (Ekin) =     0.00524504 Ry
     temperature           =   276.04171573 K 
     Ekin + Etot (const)   =   -33.73756071 Ry
     Message from routine dynamics:
     Total linear momentum <> 0

     Linear momentum :    0.0237784386   -0.0084371606    0.3833382656

     Writing output data file pwscf.save

     second order wave-functions extrapolation
     Check: negative starting charge=   -0.071187
     second order charge density extrapolation
     Check: negative starting charge=   -0.071178

     negative rho (up, down):  7.698E-04 0.000E+00

     total cpu time spent up to now is      225.5 secs

     per-process dynamical memory:    32.7 Mb

     Self-consistent Calculation

     iteration #  1     ecut=    60.00 Ry     beta=0.70
     Davidson diagonalization with overlap
     c_bands:  1 eigenvalues not converged
     ethr =  1.00E-06,  avg # of iterations = 20.0

     negative rho (up, down):  1.592E-04 0.000E+00

     total cpu time spent up to now is      230.9 secs

     total energy              =     -33.73812363 Ry
     Harris-Foulkes estimate   =     -33.73812438 Ry
     estimated scf accuracy    <       0.00002154 Ry

     iteration #  2     ecut=    60.00 Ry     beta=0.70
     Davidson diagonalization with overlap
     ethr =  2.69E-07,  avg # of iterations =  3.0

     negative rho (up, down):  5.108E-05 0.000E+00

     total cpu time spent up to now is      233.6 secs

     total energy              =     -33.73812378 Ry
     Harris-Foulkes estimate   =     -33.73812960 Ry
     estimated scf accuracy    <       0.00000631 Ry

     iteration #  3     ecut=    60.00 Ry     beta=0.70
     Davidson diagonalization with overlap
     ethr =  7.88E-08,  avg # of iterations =  2.0

     negative rho (up, down):  1.334E-06 0.000E+00

     total cpu time spent up to now is      236.0 secs

     total energy              =     -33.74220177 Ry
     Harris-Foulkes estimate   =     -33.74220349 Ry
     estimated scf accuracy    <       0.00000142 Ry

     iteration #  4     ecut=    60.00 Ry     beta=0.70
     Davidson diagonalization with overlap
     ethr =  1.77E-08,  avg # of iterations =  2.0

     negative rho (up, down):  1.224E-08 0.000E+00

     total cpu time spent up to now is      238.5 secs

     total energy              =     -33.74220204 Ry
     Harris-Foulkes estimate   =     -33.74220209 Ry
     estimated scf accuracy    <       0.00000002 Ry

     iteration #  5     ecut=    60.00 Ry     beta=0.70
     Davidson diagonalization with overlap
     ethr =  2.84E-10,  avg # of iterations =  2.0

     total cpu time spent up to now is      240.5 secs

     End of self-consistent calculation

          k = 0.0000 0.0000 0.0000 ( 62669 PWs)   bands (ev):

   -25.4883 -12.8212  -9.2835  -7.0642  -0.9190   0.4185   0.7975   1.1091

     the Fermi energy is    -5.2001 ev

!    total energy              =     -33.74220203 Ry
     Harris-Foulkes estimate   =     -33.74220205 Ry
     estimated scf accuracy    <          7.6E-10 Ry

     convergence has been achieved in   5 iterations

     Forces acting on atoms (Ry/au):

     atom    1 type  2   force =    -0.00120570   -0.01665647    0.04307087
     atom    2 type  1   force =    -0.00096169    0.03823945   -0.02702692
     atom    3 type  1   force =     0.00216739   -0.02158298   -0.01604395

     Total force =     0.071102     Total SCF correction =     0.000499

     Entering Dynamics:    iteration =     8
                           time      =   0.0039 pico-seconds


     Andersen thermostat:    3 collisions

ATOMIC_POSITIONS (angstrom)
O       -0.002285013  -0.001019397   0.121603652
H       -0.031696773   0.772399586  -0.484873647
H        0.067894995  -0.756250731  -0.506315832


     kinetic energy (Ekin) =     0.01012143 Ry
     temperature           =   532.68179390 K 
     Ekin + Etot (const)   =   -33.73208060 Ry
     Message from routine dynamics:
     Total linear momentum <> 0

     Linear momentum :    0.1749948785   -0.2295199831   -0.3080411676

     Writing output data file pwscf.save

     second order wave-functions extrapolation
     Check: negative starting charge=   -0.071178
     second order charge density extrapolation
     Check: negative starting charge=   -0.071185

     negative rho (up, down):  7.923E-04 0.000E+00

     total cpu time spent up to now is      254.7 secs

     per-process dynamical memory:    32.7 Mb

     Self-consistent Calculation

     iteration #  1     ecut=    60.00 Ry     beta=0.70
     Davidson diagonalization with overlap
     ethr =  1.00E-06,  avg # of iterations =  4.0

     negative rho (up, down):  1.654E-04 0.000E+00

     total cpu time spent up to now is      257.8 secs

     total energy              =     -33.73937746 Ry
     Harris-Foulkes estimate   =     -33.73950512 Ry
     estimated scf accuracy    <       0.00021801 Ry

     iteration #  2     ecut=    60.00 Ry     beta=0.70
     Davidson diagonalization with overlap
     ethr =  2.73E-06,  avg # of iterations =  3.0

     negative rho (up, down):  8.499E-05 0.000E+00

     total cpu time spent up to now is      260.5 secs

     total energy              =     -33.74349399 Ry
     Harris-Foulkes estimate   =     -33.74359633 Ry
     estimated scf accuracy    <       0.00019998 Ry

     iteration #  3     ecut=    60.00 Ry     beta=0.70
     Davidson diagonalization with overlap
     ethr =  2.50E-06,  avg # of iterations =  2.0

     negative rho (up, down):  1.360E-06 0.000E+00

     total cpu time spent up to now is      262.8 secs

     total energy              =     -33.74353494 Ry
     Harris-Foulkes estimate   =     -33.74353650 Ry
     estimated scf accuracy    <       0.00000204 Ry

     iteration #  4     ecut=    60.00 Ry     beta=0.70
     Davidson diagonalization with overlap
     ethr =  2.55E-08,  avg # of iterations =  2.0

     negative rho (up, down):  1.302E-08 0.000E+00

     total cpu time spent up to now is      265.4 secs

     total energy              =     -33.74353556 Ry
     Harris-Foulkes estimate   =     -33.74353547 Ry
     estimated scf accuracy    <       0.00000004 Ry

     iteration #  5     ecut=    60.00 Ry     beta=0.70
     Davidson diagonalization with overlap
     ethr =  5.27E-10,  avg # of iterations =  2.0

     total cpu time spent up to now is      267.3 secs

     End of self-consistent calculation

          k = 0.0000 0.0000 0.0000 ( 62669 PWs)   bands (ev):

   -25.3424 -12.6880  -9.2730  -7.0394  -0.9565   0.4061   0.7713   1.1058

     the Fermi energy is    -5.1661 ev

!    total energy              =     -33.74353556 Ry
     Harris-Foulkes estimate   =     -33.74353557 Ry
     estimated scf accuracy    <          2.0E-09 Ry

     convergence has been achieved in   5 iterations

     Forces acting on atoms (Ry/au):

     atom    1 type  2   force =    -0.00103829   -0.00236590    0.01540675
     atom    2 type  1   force =    -0.00018964    0.01227376   -0.00827130
     atom    3 type  1   force =     0.00122793   -0.00990786   -0.00713546

     Total force =     0.024774     Total SCF correction =     0.000592

     Entering Dynamics:    iteration =     9
                           time      =   0.0044 pico-seconds


     Andersen thermostat:    3 collisions

ATOMIC_POSITIONS (angstrom)
O       -0.001186049  -0.001432815   0.121226159
H       -0.037434413   0.781141837  -0.487768750
H        0.056223301  -0.758443773  -0.497440641


     kinetic energy (Ekin) =     0.00871424 Ry
     temperature           =   458.62267243 K 
     Ekin + Etot (const)   =   -33.73482132 Ry
     Message from routine dynamics:
     Total linear momentum <> 0

     Linear momentum :    0.2735851324   -0.1362053208   -0.3729874739

     Writing output data file pwscf.save

     second order wave-functions extrapolation
     Check: negative starting charge=   -0.071185
     second order charge density extrapolation
     Check: negative starting charge=   -0.071170

     negative rho (up, down):  9.880E-04 0.000E+00

     total cpu time spent up to now is      281.6 secs

     per-process dynamical memory:    32.7 Mb

     Self-consistent Calculation

     iteration #  1     ecut=    60.00 Ry     beta=0.70
     Davidson diagonalization with overlap
     ethr =  1.00E-06,  avg # of iterations =  4.0

     negative rho (up, down):  2.136E-04 0.000E+00

     total cpu time spent up to now is      284.8 secs

     total energy              =     -33.73941747 Ry
     Harris-Foulkes estimate   =     -33.73938859 Ry
     estimated scf accuracy    <       0.00001802 Ry

     iteration #  2     ecut=    60.00 Ry     beta=0.70
     Davidson diagonalization with overlap
     ethr =  2.25E-07,  avg # of iterations =  3.0

     negative rho (up, down):  8.263E-05 0.000E+00

     total cpu time spent up to now is      287.5 secs

     total energy              =     -33.73941566 Ry
     Harris-Foulkes estimate   =     -33.73942333 Ry
     estimated scf accuracy    <       0.00000746 Ry

     iteration #  3     ecut=    60.00 Ry     beta=0.70
     Davidson diagonalization with overlap
     ethr =  9.33E-08,  avg # of iterations =  2.0

     negative rho (up, down):  9.072E-08 0.000E+00

     total cpu time spent up to now is      289.9 secs

     total energy              =     -33.74349229 Ry
     Harris-Foulkes estimate   =     -33.74349555 Ry
     estimated scf accuracy    <       0.00000132 Ry

     iteration #  4     ecut=    60.00 Ry     beta=0.70
     Davidson diagonalization with overlap
     ethr =  1.65E-08,  avg # of iterations =  2.0

     total cpu time spent up to now is      291.9 secs

     End of self-consistent calculation

          k = 0.0000 0.0000 0.0000 ( 62669 PWs)   bands (ev):

   -25.3117 -12.7057  -9.2344  -7.0327  -0.9609   0.4050   0.7660   1.1139

     the Fermi energy is    -5.1523 ev

!    total energy              =     -33.74349228 Ry
     Harris-Foulkes estimate   =     -33.74349257 Ry
     estimated scf accuracy    <          6.8E-09 Ry

     convergence has been achieved in   4 iterations

     Forces acting on atoms (Ry/au):

     atom    1 type  2   force =    -0.00215368    0.01601856    0.01597710
     atom    2 type  1   force =     0.00051863   -0.00108907   -0.00130360
     atom    3 type  1   force =     0.00163504   -0.01492949   -0.01467351

     Total force =     0.030992     Total SCF correction =     0.000780

     Entering Dynamics:    iteration =    10
                           time      =   0.0048 pico-seconds


     Andersen thermostat:    3 collisions

ATOMIC_POSITIONS (angstrom)
O       -0.001736770  -0.002393067   0.120427254
H       -0.037626966   0.793054415  -0.481673305
H        0.065140160  -0.755144439  -0.490880159


     kinetic energy (Ekin) =     0.00731365 Ry
     temperature           =   384.91095948 K 
     Ekin + Etot (const)   =   -33.73617863 Ry
     Message from routine dynamics:
     Total linear momentum <> 0

     Linear momentum :    0.2768640857    0.1569651519   -0.1522549706

     Writing output data file pwscf.save

     second order wave-functions extrapolation
     Check: negative starting charge=   -0.071170
     second order charge density extrapolation
     Check: negative starting charge=   -0.071145

     negative rho (up, down):  1.330E-03 0.000E+00

     total cpu time spent up to now is      306.3 secs

     per-process dynamical memory:    32.7 Mb

     Self-consistent Calculation

     iteration #  1     ecut=    60.00 Ry     beta=0.70
     Davidson diagonalization with overlap
     ethr =  1.00E-06,  avg # of iterations = 19.0

     negative rho (up, down):  3.008E-04 0.000E+00

     total cpu time spent up to now is      311.7 secs

     total energy              =     -33.73891503 Ry
     Harris-Foulkes estimate   =     -33.73881835 Ry
     estimated scf accuracy    <       0.00004024 Ry

     iteration #  2     ecut=    60.00 Ry     beta=0.70
     Davidson diagonalization with overlap
     ethr =  5.03E-07,  avg # of iterations =  5.0

     negative rho (up, down):  1.183E-04 0.000E+00

     total cpu time spent up to now is      314.9 secs

     total energy              =     -33.73891771 Ry
     Harris-Foulkes estimate   =     -33.73892740 Ry
     estimated scf accuracy    <       0.00001484 Ry

     iteration #  3     ecut=    60.00 Ry     beta=0.70
     Davidson diagonalization with overlap
     ethr =  1.86E-07,  avg # of iterations =  2.0

     negative rho (up, down):  1.892E-06 0.000E+00

     total cpu time spent up to now is      317.3 secs

     total energy              =     -33.74299610 Ry
     Harris-Foulkes estimate   =     -33.74300006 Ry
     estimated scf accuracy    <       0.00000267 Ry

     iteration #  4     ecut=    60.00 Ry     beta=0.70
     Davidson diagonalization with overlap
     ethr =  3.34E-08,  avg # of iterations =  3.0

     total cpu time spent up to now is      319.9 secs

     total energy              =     -33.74299635 Ry
     Harris-Foulkes estimate   =     -33.74299666 Ry
     estimated scf accuracy    <       0.00000003 Ry

     iteration #  5     ecut=    60.00 Ry     beta=0.70
     Davidson diagonalization with overlap
     ethr =  3.36E-10,  avg # of iterations =  2.0

     total cpu time spent up to now is      321.9 secs

     End of self-consistent calculation

          k = 0.0000 0.0000 0.0000 ( 62669 PWs)   bands (ev):

   -25.3059 -12.7579  -9.1872  -7.0297  -0.9591   0.4049   0.7651   1.1100

     the Fermi energy is    -5.1539 ev

!    total energy              =     -33.74299625 Ry
     Harris-Foulkes estimate   =     -33.74299636 Ry
     estimated scf accuracy    <          1.1E-09 Ry

     convergence has been achieved in   5 iterations

     Forces acting on atoms (Ry/au):

     atom    1 type  2   force =    -0.00351160    0.03319395    0.02143321
     atom    2 type  1   force =     0.00098465   -0.01081785    0.00277423
     atom    3 type  1   force =     0.00252694   -0.02237610   -0.02420743

     Total force =     0.052842     Total SCF correction =     0.000454

     Entering Dynamics:    iteration =    11
                           time      =   0.0053 pico-seconds


     Andersen thermostat:    3 collisions

ATOMIC_POSITIONS (angstrom)
O       -0.002126500  -0.002321570   0.119911923
H       -0.031115618   0.801925730  -0.472581146
H        0.064802745  -0.765148388  -0.491808670


     kinetic energy (Ekin) =     0.00751190 Ry
     temperature           =   395.34482066 K 
     Ekin + Etot (const)   =   -33.73548434 Ry
     Message from routine dynamics:
     Total linear momentum <> 0

     Linear momentum :   -0.3185811349    0.1441658007   -0.2934969654

     Writing output data file pwscf.save

     second order wave-functions extrapolation
     Check: negative starting charge=   -0.071145
     second order charge density extrapolation
     Check: negative starting charge=   -0.071123

     negative rho (up, down):  5.702E-04 0.000E+00

     total cpu time spent up to now is      336.1 secs

     per-process dynamical memory:    32.7 Mb

     Self-consistent Calculation

     iteration #  1     ecut=    60.00 Ry     beta=0.70
     Davidson diagonalization with overlap
     ethr =  1.00E-06,  avg # of iterations =  4.0

     negative rho (up, down):  1.112E-04 0.000E+00

     total cpu time spent up to now is      338.9 secs

     total energy              =     -33.73906297 Ry
     Harris-Foulkes estimate   =     -33.73909709 Ry
     estimated scf accuracy    <       0.00007169 Ry

     iteration #  2     ecut=    60.00 Ry     beta=0.70
     Davidson diagonalization with overlap
     ethr =  8.96E-07,  avg # of iterations =  3.0

     negative rho (up, down):  4.540E-05 0.000E+00

     total cpu time spent up to now is      341.7 secs

     total energy              =     -33.74315025 Ry
     Harris-Foulkes estimate   =     -33.74317248 Ry
     estimated scf accuracy    <       0.00003763 Ry

     iteration #  3     ecut=    60.00 Ry     beta=0.70
     Davidson diagonalization with overlap
     ethr =  4.70E-07,  avg # of iterations =  2.0

     negative rho (up, down):  7.682E-07 0.000E+00

     total cpu time spent up to now is      344.1 secs

     total energy              =     -33.74315901 Ry
     Harris-Foulkes estimate   =     -33.74316079 Ry
     estimated scf accuracy    <       0.00000301 Ry

     iteration #  4     ecut=    60.00 Ry     beta=0.70
     Davidson diagonalization with overlap
     ethr =  3.77E-08,  avg # of iterations =  2.0

     total cpu time spent up to now is      346.6 secs

     total energy              =     -33.74315939 Ry
     Harris-Foulkes estimate   =     -33.74315960 Ry
     estimated scf accuracy    <       0.00000003 Ry

     iteration #  5     ecut=    60.00 Ry     beta=0.70
     Davidson diagonalization with overlap
     ethr =  3.14E-10,  avg # of iterations =  2.0

     total cpu time spent up to now is      348.7 secs

     End of self-consistent calculation

          k = 0.0000 0.0000 0.0000 ( 62669 PWs)   bands (ev):

   -25.2382 -12.7670  -9.1265  -7.0161  -0.9704   0.4021   0.7525   1.1131

     the Fermi energy is    -5.1346 ev

!    total energy              =     -33.74315937 Ry
     Harris-Foulkes estimate   =     -33.74315940 Ry
     estimated scf accuracy    <          1.4E-09 Ry

     convergence has been achieved in   5 iterations

     Forces acting on atoms (Ry/au):

     atom    1 type  2   force =    -0.00297848    0.02308319    0.01626277
     atom    2 type  1   force =     0.00135612   -0.01477135    0.00121552
     atom    3 type  1   force =     0.00162236   -0.00831183   -0.01747828

     Total force =     0.037482     Total SCF correction =     0.000299

     Entering Dynamics:    iteration =    12
                           time      =   0.0058 pico-seconds


     Andersen thermostat:    3 collisions

ATOMIC_POSITIONS (angstrom)
O       -0.002307242  -0.001426976   0.121130963
H       -0.029125781   0.792247687  -0.484109589
H        0.065676149  -0.769642122  -0.499591739


     kinetic energy (Ekin) =     0.00634876 Ry
     temperature           =   334.12934063 K 
     Ekin + Etot (const)   =   -33.73681061 Ry
     Message from routine dynamics:
     Total linear momentum <> 0

     Linear momentum :   -0.2170315562   -0.0989359919   -0.1410624171

     Writing output data file pwscf.save

     second order wave-functions extrapolation
     Check: negative starting charge=   -0.071123
     second order charge density extrapolation
     Check: negative starting charge=   -0.071146

     negative rho (up, down):  7.498E-04 0.000E+00

     total cpu time spent up to now is      363.0 secs

     per-process dynamical memory:    32.7 Mb

     Self-consistent Calculation

     iteration #  1     ecut=    60.00 Ry     beta=0.70
     Davidson diagonalization with overlap
     ethr =  1.00E-06,  avg # of iterations =  3.0

     negative rho (up, down):  1.546E-04 0.000E+00

     total cpu time spent up to now is      365.7 secs

     total energy              =     -33.73948195 Ry
     Harris-Foulkes estimate   =     -33.73950957 Ry
     estimated scf accuracy    <       0.00005390 Ry

     iteration #  2     ecut=    60.00 Ry     beta=0.70
     Davidson diagonalization with overlap
     ethr =  6.74E-07,  avg # of iterations =  2.0

     negative rho (up, down):  7.957E-05 0.000E+00

     total cpu time spent up to now is      368.3 secs

     total energy              =     -33.74356764 Ry
     Harris-Foulkes estimate   =     -33.74359552 Ry
     estimated scf accuracy    <       0.00005161 Ry

     iteration #  3     ecut=    60.00 Ry     beta=0.70
     Davidson diagonalization with overlap
     ethr =  6.45E-07,  avg # of iterations =  2.0

     negative rho (up, down):  3.046E-07 0.000E+00

     total cpu time spent up to now is      370.7 secs

     total energy              =     -33.74357697 Ry
     Harris-Foulkes estimate   =     -33.74357854 Ry
     estimated scf accuracy    <       0.00000054 Ry

     iteration #  4     ecut=    60.00 Ry     beta=0.70
     Davidson diagonalization with overlap
     ethr =  6.70E-09,  avg # of iterations =  2.0

     total cpu time spent up to now is      373.1 secs

     total energy              =     -33.74357725 Ry
     Harris-Foulkes estimate   =     -33.74357719 Ry
     estimated scf accuracy    <       0.00000001 Ry

     iteration #  5     ecut=    60.00 Ry     beta=0.70
     Davidson diagonalization with overlap
     ethr =  1.64E-10,  avg # of iterations =  2.0

     total cpu time spent up to now is      375.2 secs

     End of self-consistent calculation

          k = 0.0000 0.0000 0.0000 ( 62669 PWs)   bands (ev):

   -25.2084 -12.6717  -9.1787  -7.0132  -0.9845   0.3977   0.7453   1.1058

     the Fermi energy is    -5.1326 ev

!    total energy              =     -33.74357716 Ry
     Harris-Foulkes estimate   =     -33.74357725 Ry
     estimated scf accuracy    <          8.7E-10 Ry

     convergence has been achieved in   5 iterations

     Forces acting on atoms (Ry/au):

     atom    1 type  2   force =    -0.00141720    0.00982285    0.00315426
     atom    2 type  1   force =     0.00093240   -0.01108540    0.00239581
     atom    3 type  1   force =     0.00048480    0.00126255   -0.00555007

     Total force =     0.016449     Total SCF correction =     0.000489

     Entering Dynamics:    iteration =    13
                           time      =   0.0063 pico-seconds


     Andersen thermostat:    3 collisions

ATOMIC_POSITIONS (angstrom)
O       -0.002638238  -0.001381131   0.121185879
H       -0.034520762   0.800309261  -0.489986848
H        0.076314624  -0.778429961  -0.494584438


     kinetic energy (Ekin) =     0.00759799 Ry
     temperature           =   399.87544863 K 
     Ekin + Etot (const)   =   -33.73597916 Ry
     Message from routine dynamics:
     Total linear momentum <> 0

     Linear momentum :   -0.0615132332    0.2632412770    0.2698084312

     Writing output data file pwscf.save

     second order wave-functions extrapolation
     Check: negative starting charge=   -0.071146
     second order charge density extrapolation
     Check: negative starting charge=   -0.071120

     negative rho (up, down):  4.473E-04 0.000E+00

     total cpu time spent up to now is      389.5 secs

     per-process dynamical memory:    32.7 Mb

     Self-consistent Calculation

     iteration #  1     ecut=    60.00 Ry     beta=0.70
     Davidson diagonalization with overlap
     ethr =  1.00E-06,  avg # of iterations =  4.0

     negative rho (up, down):  8.247E-05 0.000E+00

     total cpu time spent up to now is      392.5 secs

     total energy              =     -33.73900529 Ry
     Harris-Foulkes estimate   =     -33.73904893 Ry
     estimated scf accuracy    <       0.00008880 Ry

     iteration #  2     ecut=    60.00 Ry     beta=0.70
     Davidson diagonalization with overlap
     ethr =  1.11E-06,  avg # of iterations =  3.0

     negative rho (up, down):  3.664E-05 0.000E+00

     total cpu time spent up to now is      395.2 secs

     total energy              =     -33.74309406 Ry
     Harris-Foulkes estimate   =     -33.74312928 Ry
     estimated scf accuracy    <       0.00006589 Ry

     iteration #  3     ecut=    60.00 Ry     beta=0.70
     Davidson diagonalization with overlap
     ethr =  8.24E-07,  avg # of iterations =  2.0

     negative rho (up, down):  2.975E-07 0.000E+00

     total cpu time spent up to now is      397.5 secs

     total energy              =     -33.74310869 Ry
     Harris-Foulkes estimate   =     -33.74310983 Ry
     estimated scf accuracy    <       0.00000227 Ry

     iteration #  4     ecut=    60.00 Ry     beta=0.70
     Davidson diagonalization with overlap
     ethr =  2.84E-08,  avg # of iterations =  2.0

     total cpu time spent up to now is      399.8 secs

     total energy              =     -33.74310913 Ry
     Harris-Foulkes estimate   =     -33.74310911 Ry
     estimated scf accuracy    <       0.00000003 Ry

     iteration #  5     ecut=    60.00 Ry     beta=0.70
     Davidson diagonalization with overlap
     ethr =  3.36E-10,  avg # of iterations =  2.0

     total cpu time spent up to now is      401.8 secs

     End of self-consistent calculation

          k = 0.0000 0.0000 0.0000 ( 62669 PWs)   bands (ev):

   -25.1238 -12.6333  -9.1389  -6.9970  -1.0071   0.3906   0.7269   1.1047

     the Fermi energy is    -5.1123 ev

!    total energy              =     -33.74310913 Ry
     Harris-Foulkes estimate   =     -33.74310914 Ry
     estimated scf accuracy    <          1.4E-09 Ry

     convergence has been achieved in   5 iterations

     Forces acting on atoms (Ry/au):

     atom    1 type  2   force =    -0.00179771    0.01590026   -0.00639849
     atom    2 type  1   force =     0.00179998   -0.02438639    0.00940095
     atom    3 type  1   force =    -0.00000227    0.00848613   -0.00300246

     Total force =     0.032624     Total SCF correction =     0.000170

     Entering Dynamics:    iteration =    14
                           time      =   0.0068 pico-seconds


     Andersen thermostat:    3 collisions

ATOMIC_POSITIONS (angstrom)
O       -0.002846673  -0.001158991   0.121157108
H       -0.032639143   0.802432529  -0.493145145
H        0.077734955  -0.784072282  -0.490970369


     kinetic energy (Ekin) =     0.00149096 Ry
     temperature           =    78.46801628 K 
     Ekin + Etot (const)   =   -33.74161817 Ry
     Message from routine dynamics:
     Total linear momentum <> 0

     Linear momentum :   -0.1162806281    0.0778651459   -0.0449839042

     Writing output data file pwscf.save

     second order wave-functions extrapolation
     Check: negative starting charge=   -0.071120
     second order charge density extrapolation
     Check: negative starting charge=   -0.071106

     negative rho (up, down):  1.565E-04 0.000E+00

     total cpu time spent up to now is      416.1 secs

     per-process dynamical memory:    32.7 Mb

     Self-consistent Calculation

     iteration #  1     ecut=    60.00 Ry     beta=0.70
     Davidson diagonalization with overlap
     ethr =  1.00E-06,  avg # of iterations =  2.0

     Threshold (ethr) on eigenvalues was too large:
     Diagonalizing with lowered threshold

     Davidson diagonalization with overlap
     ethr =  2.11E-08,  avg # of iterations =  3.0

     negative rho (up, down):  2.046E-05 0.000E+00

     total cpu time spent up to now is      420.5 secs

     total energy              =     -33.74282881 Ry
     Harris-Foulkes estimate   =     -33.74283147 Ry
     estimated scf accuracy    <       0.00000182 Ry

     iteration #  2     ecut=    60.00 Ry     beta=0.70
     Davidson diagonalization with overlap
     ethr =  2.27E-08,  avg # of iterations =  1.0

     negative rho (up, down):  1.528E-08 0.000E+00

     total cpu time spent up to now is      422.6 secs

     total energy              =     -33.74282837 Ry
     Harris-Foulkes estimate   =     -33.74282892 Ry
     estimated scf accuracy    <       0.00000017 Ry

     iteration #  3     ecut=    60.00 Ry     beta=0.70
     Davidson diagonalization with overlap
     ethr =  2.07E-09,  avg # of iterations =  2.0

     total cpu time spent up to now is      424.9 secs

     total energy              =     -33.74282836 Ry
     Harris-Foulkes estimate   =     -33.74282841 Ry
     estimated scf accuracy    <       0.00000003 Ry

     iteration #  4     ecut=    60.00 Ry     beta=0.70
     Davidson diagonalization with overlap
     ethr =  3.17E-10,  avg # of iterations =  2.0

     total cpu time spent up to now is      426.9 secs

     End of self-consistent calculation

          k = 0.0000 0.0000 0.0000 ( 62669 PWs)   bands (ev):

   -25.0901 -12.6212  -9.1202  -6.9905  -1.0163   0.3878   0.7193   1.1048

     the Fermi energy is    -5.1038 ev

!    total energy              =     -33.74282830 Ry
     Harris-Foulkes estimate   =     -33.74282836 Ry
     estimated scf accuracy    <          1.8E-09 Ry

     convergence has been achieved in   4 iterations

     Forces acting on atoms (Ry/au):

     atom    1 type  2   force =    -0.00175044    0.01650635   -0.00979653
     atom    2 type  1   force =     0.00201556   -0.02878797    0.01139027
     atom    3 type  1   force =    -0.00026512    0.01228163   -0.00159374

     Total force =     0.038568     Total SCF correction =     0.000214

     Entering Dynamics:    iteration =    15
                           time      =   0.0073 pico-seconds


     Andersen thermostat:    3 collisions

ATOMIC_POSITIONS (angstrom)
O       -0.001891173  -0.002024700   0.120141734
H       -0.036974280   0.803834058  -0.487032603
H        0.066933451  -0.771759595  -0.480997780


     kinetic energy (Ekin) =     0.00820015 Ry
     temperature           =   431.56682159 K 
     Ekin + Etot (const)   =   -33.73462814 Ry
     Message from routine dynamics:
     Total linear momentum <> 0

     Linear momentum :    0.1977816185    0.1114936518   -0.0051453401

     Writing output data file pwscf.save

     second order wave-functions extrapolation
     Check: negative starting charge=   -0.071106
     second order charge density extrapolation
     Check: negative starting charge=   -0.071109

     negative rho (up, down):  1.368E-03 0.000E+00

     total cpu time spent up to now is      441.4 secs

     per-process dynamical memory:    32.7 Mb

     Self-consistent Calculation

     iteration #  1     ecut=    60.00 Ry     beta=0.70
     Davidson diagonalization with overlap
     ethr =  1.00E-06,  avg # of iterations = 20.0

     negative rho (up, down):  3.093E-04 0.000E+00

     total cpu time spent up to now is      446.7 secs

     total energy              =     -33.73856132 Ry
     Harris-Foulkes estimate   =     -33.73851649 Ry
     estimated scf accuracy    <       0.00013559 Ry

     iteration #  2     ecut=    60.00 Ry     beta=0.70
     Davidson diagonalization with overlap
     ethr =  1.69E-06,  avg # of iterations =  5.0

     negative rho (up, down):  1.615E-04 0.000E+00

     total cpu time spent up to now is      449.9 secs

     total energy              =     -33.73858312 Ry
     Harris-Foulkes estimate   =     -33.73863613 Ry
     estimated scf accuracy    <       0.00010525 Ry

     iteration #  3     ecut=    60.00 Ry     beta=0.70
     Davidson diagonalization with overlap
     ethr =  1.32E-06,  avg # of iterations =  2.0

     negative rho (up, down):  3.565E-06 0.000E+00

     total cpu time spent up to now is      452.3 secs

     total energy              =     -33.74268080 Ry
     Harris-Foulkes estimate   =     -33.74268516 Ry
     estimated scf accuracy    <       0.00000278 Ry

     iteration #  4     ecut=    60.00 Ry     beta=0.70
     Davidson diagonalization with overlap
     ethr =  3.48E-08,  avg # of iterations =  3.0

     negative rho (up, down):  9.332E-08 0.000E+00

     total cpu time spent up to now is      454.9 secs

     total energy              =     -33.74268132 Ry
     Harris-Foulkes estimate   =     -33.74268144 Ry
     estimated scf accuracy    <       0.00000004 Ry

     iteration #  5     ecut=    60.00 Ry     beta=0.70
     Davidson diagonalization with overlap
     ethr =  4.63E-10,  avg # of iterations =  2.0

     total cpu time spent up to now is      456.9 secs

     End of self-consistent calculation

          k = 0.0000 0.0000 0.0000 ( 62669 PWs)   bands (ev):

   -25.1906 -12.7319  -9.1124  -7.0069  -0.9862   0.3964   0.7424   1.1120

     the Fermi energy is    -5.1235 ev

!    total energy              =     -33.74268109 Ry
     Harris-Foulkes estimate   =     -33.74268133 Ry
     estimated scf accuracy    <          2.3E-09 Ry

     convergence has been achieved in   5 iterations

     Forces acting on atoms (Ry/au):

     atom    1 type  2   force =    -0.00397924    0.03697334    0.01016608
     atom    2 type  1   force =     0.00213054   -0.02726457    0.00931495
     atom    3 type  1   force =     0.00184870   -0.00970877   -0.01948103

     Total force =     0.052897     Total SCF correction =     0.000963

     Entering Dynamics:    iteration =    16
                           time      =   0.0077 pico-seconds


     Andersen thermostat:    3 collisions

ATOMIC_POSITIONS (angstrom)
O       -0.001560906  -0.002183107   0.120243746
H       -0.040556535   0.814611594  -0.482550206
H        0.065283755  -0.780027723  -0.487096202


     kinetic energy (Ekin) =     0.00566832 Ry
     temperature           =   298.31845693 K 
     Ekin + Etot (const)   =   -33.73701277 Ry
     Message from routine dynamics:
     Total linear momentum <> 0

     Linear momentum :   -0.0439177883   -0.2650858760    0.1892931882

     Writing output data file pwscf.save

     second order wave-functions extrapolation
     Check: negative starting charge=   -0.071109
     second order charge density extrapolation
     Check: negative starting charge=   -0.071084

     negative rho (up, down):  6.163E-04 0.000E+00

     total cpu time spent up to now is      471.1 secs

     per-process dynamical memory:    32.7 Mb

     Self-consistent Calculation

     iteration #  1     ecut=    60.00 Ry     beta=0.70
     Davidson diagonalization with overlap
     ethr =  1.00E-06,  avg # of iterations =  4.0

     negative rho (up, down):  1.227E-04 0.000E+00

     total cpu time spent up to now is      474.2 secs

     total energy              =     -33.73821341 Ry
     Harris-Foulkes estimate   =     -33.73825324 Ry
     estimated scf accuracy    <       0.00007778 Ry

     iteration #  2     ecut=    60.00 Ry     beta=0.70
     Davidson diagonalization with overlap
     ethr =  9.72E-07,  avg # of iterations =  3.0

     negative rho (up, down):  5.894E-05 0.000E+00

     total cpu time spent up to now is      476.9 secs

     total energy              =     -33.74230138 Ry
     Harris-Foulkes estimate   =     -33.74233568 Ry
     estimated scf accuracy    <       0.00006294 Ry

     iteration #  3     ecut=    60.00 Ry     beta=0.70
     Davidson diagonalization with overlap
     ethr =  7.87E-07,  avg # of iterations =  2.0

     negative rho (up, down):  1.038E-06 0.000E+00

     total cpu time spent up to now is      479.3 secs

     total energy              =     -33.74231381 Ry
     Harris-Foulkes estimate   =     -33.74231589 Ry
     estimated scf accuracy    <       0.00000146 Ry

     iteration #  4     ecut=    60.00 Ry     beta=0.70
     Davidson diagonalization with overlap
     ethr =  1.82E-08,  avg # of iterations =  2.0

     total cpu time spent up to now is      481.6 secs

     total energy              =     -33.74231398 Ry
     Harris-Foulkes estimate   =     -33.74231413 Ry
     estimated scf accuracy    <       0.00000002 Ry

     iteration #  5     ecut=    60.00 Ry     beta=0.70
     Davidson diagonalization with overlap
     ethr =  2.51E-10,  avg # of iterations =  2.0

     total cpu time spent up to now is      483.6 secs

     End of self-consistent calculation

          k = 0.0000 0.0000 0.0000 ( 62669 PWs)   bands (ev):

   -25.0967 -12.6858  -9.0714  -6.9891  -1.0110   0.3888   0.7221   1.1091

     the Fermi energy is    -5.1022 ev

!    total energy              =     -33.74231393 Ry
     Harris-Foulkes estimate   =     -33.74231399 Ry
     estimated scf accuracy    <          7.6E-10 Ry

     convergence has been achieved in   5 iterations

     Forces acting on atoms (Ry/au):

     atom    1 type  2   force =    -0.00294069    0.03048881   -0.00149104
     atom    2 type  1   force =     0.00252527   -0.03563941    0.01240404
     atom    3 type  1   force =     0.00041542    0.00515060   -0.01091300

     Total force =     0.050166     Total SCF correction =     0.000275

     Entering Dynamics:    iteration =    17
                           time      =   0.0082 pico-seconds


     Andersen thermostat:    3 collisions

ATOMIC_POSITIONS (angstrom)
O       -0.000729294  -0.002793840   0.119681695
H       -0.034084701   0.810196301  -0.478569198
H        0.045637876  -0.765937454  -0.482173430


     kinetic energy (Ekin) =     0.01175828 Ry
     temperature           =   618.82786423 K 
     Ekin + Etot (const)   =   -33.73055564 Ry
     Message from routine dynamics:
     Total linear momentum <> 0

     Linear momentum :    0.1311748541    0.0669661894    0.0567708723

     Writing output data file pwscf.save

     second order wave-functions extrapolation
     Check: negative starting charge=   -0.071084
     second order charge density extrapolation
     Check: negative starting charge=   -0.071100

     negative rho (up, down):  5.156E-04 0.000E+00

     total cpu time spent up to now is      510.3 secs

     per-process dynamical memory:    32.7 Mb

     Self-consistent Calculation

     iteration #  1     ecut=    60.00 Ry     beta=0.70
     Davidson diagonalization with overlap
     ethr =  1.00E-06,  avg # of iterations =  4.0

     negative rho (up, down):  9.804E-05 0.000E+00

     total cpu time spent up to now is      513.7 secs

     total energy              =     -33.73821182 Ry
     Harris-Foulkes estimate   =     -33.73821084 Ry
     estimated scf accuracy    <       0.00002113 Ry

     iteration #  2     ecut=    60.00 Ry     beta=0.70
     Davidson diagonalization with overlap
     ethr =  2.64E-07,  avg # of iterations =  2.0

     negative rho (up, down):  2.531E-05 0.000E+00

     total cpu time spent up to now is      515.9 secs

     total energy              =     -33.74228893 Ry
     Harris-Foulkes estimate   =     -33.74229349 Ry
     estimated scf accuracy    <       0.00000638 Ry

     iteration #  3     ecut=    60.00 Ry     beta=0.70
     Davidson diagonalization with overlap
     ethr =  7.98E-08,  avg # of iterations =  2.0

     total cpu time spent up to now is      518.4 secs

     total energy              =     -33.74229074 Ry
     Harris-Foulkes estimate   =     -33.74229136 Ry
     estimated scf accuracy    <       0.00000218 Ry

     iteration #  4     ecut=    60.00 Ry     beta=0.70
     Davidson diagonalization with overlap
     ethr =  2.72E-08,  avg # of iterations =  2.0

     total cpu time spent up to now is      520.5 secs

     End of self-consistent calculation

          k = 0.0000 0.0000 0.0000 ( 62669 PWs)   bands (ev):

   -25.2174 -12.7741  -9.0996  -7.0109  -0.9785   0.3981   0.7482   1.1164

     the Fermi energy is    -5.1269 ev

!    total energy              =     -33.74229123 Ry
     Harris-Foulkes estimate   =     -33.74229114 Ry
     estimated scf accuracy    <          6.9E-09 Ry

     convergence has been achieved in   4 iterations

     Forces acting on atoms (Ry/au):

     atom    1 type  2   force =    -0.00301731    0.04509681    0.01693660
     atom    2 type  1   force =     0.00155538   -0.02824790    0.00925703
     atom    3 type  1   force =     0.00146193   -0.01684891   -0.02619363

     Total force =     0.064714     Total SCF correction =     0.000392

     Entering Dynamics:    iteration =    18
                           time      =   0.0087 pico-seconds


     Andersen thermostat:    3 collisions

ATOMIC_POSITIONS (angstrom)
O       -0.000756377  -0.001039993   0.120056837
H       -0.028736968   0.788852723  -0.483471541
H        0.040719172  -0.772377588  -0.483213939


     kinetic energy (Ekin) =     0.01064508 Ry
     temperature           =   560.24081549 K 
     Ekin + Etot (const)   =   -33.73164615 Ry
     Message from routine dynamics:
     Total linear momentum <> 0

     Linear momentum :   -0.0981147486   -0.1451764500    0.2385704818

     Writing output data file pwscf.save

     second order wave-functions extrapolation
     Check: negative starting charge=   -0.071100
     second order charge density extrapolation
     Check: negative starting charge=   -0.071135

     negative rho (up, down):  1.602E-03 0.000E+00

     total cpu time spent up to now is      534.6 secs

     per-process dynamical memory:    32.7 Mb

     Self-consistent Calculation

     iteration #  1     ecut=    60.00 Ry     beta=0.70
     Davidson diagonalization with overlap
     ethr =  1.00E-06,  avg # of iterations = 19.0

     negative rho (up, down):  3.716E-04 0.000E+00

     total cpu time spent up to now is      540.3 secs

     total energy              =     -33.73922584 Ry
     Harris-Foulkes estimate   =     -33.73898179 Ry
     estimated scf accuracy    <       0.00009166 Ry

     iteration #  2     ecut=    60.00 Ry     beta=0.70
     Davidson diagonalization with overlap
     ethr =  1.15E-06,  avg # of iterations = 15.0

     negative rho (up, down):  1.195E-04 0.000E+00

     total cpu time spent up to now is      544.7 secs

     total energy              =     -33.74331012 Ry
     Harris-Foulkes estimate   =     -33.74332395 Ry
     estimated scf accuracy    <       0.00001977 Ry

     iteration #  3     ecut=    60.00 Ry     beta=0.70
     Davidson diagonalization with overlap
     ethr =  2.47E-07,  avg # of iterations =  2.0

     negative rho (up, down):  8.915E-06 0.000E+00

     total cpu time spent up to now is      547.3 secs

     total energy              =     -33.74331353 Ry
     Harris-Foulkes estimate   =     -33.74331782 Ry
     estimated scf accuracy    <       0.00000651 Ry

     iteration #  4     ecut=    60.00 Ry     beta=0.70
     Davidson diagonalization with overlap
     ethr =  8.14E-08,  avg # of iterations =  3.0

     negative rho (up, down):  1.334E-07 0.000E+00

     total cpu time spent up to now is      549.9 secs

     total energy              =     -33.74331503 Ry
     Harris-Foulkes estimate   =     -33.74331509 Ry
     estimated scf accuracy    <       0.00000018 Ry

     iteration #  5     ecut=    60.00 Ry     beta=0.70
     Davidson diagonalization with overlap
     ethr =  2.26E-09,  avg # of iterations =  2.0

     total cpu time spent up to now is      551.9 secs

     End of self-consistent calculation

          k = 0.0000 0.0000 0.0000 ( 62669 PWs)   bands (ev):

   -25.2683 -12.7734  -9.1467  -7.0221  -0.9631   0.4048   0.7588   1.1209

     the Fermi energy is    -5.1363 ev

!    total energy              =     -33.74331500 Ry
     Harris-Foulkes estimate   =     -33.74331508 Ry
     estimated scf accuracy    <          3.1E-09 Ry

     convergence has been achieved in   5 iterations

     Forces acting on atoms (Ry/au):

     atom    1 type  2   force =    -0.00156806    0.01720865    0.01876903
     atom    2 type  1   force =     0.00065414   -0.00786784   -0.00222910
     atom    3 type  1   force =     0.00091392   -0.00934081   -0.01653993

     Total force =     0.032861     Total SCF correction =     0.001178

     Entering Dynamics:    iteration =    19
                           time      =   0.0092 pico-seconds


     Andersen thermostat:    3 collisions

ATOMIC_POSITIONS (angstrom)
O       -0.000438330   0.000225212   0.119252578
H       -0.036858100   0.787825796  -0.478497122
H        0.043801946  -0.791393517  -0.475447623


     kinetic energy (Ekin) =     0.00999657 Ry
     temperature           =   526.11080785 K 
     Ekin + Etot (const)   =   -33.73331842 Ry
     Message from routine dynamics:
     Total linear momentum <> 0

     Linear momentum :   -0.2474428575   -0.0805044827    0.0122167611

     Writing output data file pwscf.save

     second order wave-functions extrapolation
     Check: negative starting charge=   -0.071135
     second order charge density extrapolation
     Check: negative starting charge=   -0.071109

     negative rho (up, down):  1.448E-03 0.000E+00

     total cpu time spent up to now is      566.2 secs

     per-process dynamical memory:    32.7 Mb

     Self-consistent Calculation

     iteration #  1     ecut=    60.00 Ry     beta=0.70
     Davidson diagonalization with overlap
     ethr =  1.00E-06,  avg # of iterations = 14.0

     negative rho (up, down):  3.307E-04 0.000E+00

     total cpu time spent up to now is      570.9 secs

     total energy              =     -33.73906772 Ry
     Harris-Foulkes estimate   =     -33.73891461 Ry
     estimated scf accuracy    <       0.00003896 Ry

     iteration #  2     ecut=    60.00 Ry     beta=0.70
     Davidson diagonalization with overlap
     ethr =  4.87E-07,  avg # of iterations =  5.0

     negative rho (up, down):  1.534E-04 0.000E+00

     total cpu time spent up to now is      574.3 secs

     total energy              =     -33.73907135 Ry
     Harris-Foulkes estimate   =     -33.73908335 Ry
     estimated scf accuracy    <       0.00002082 Ry

     iteration #  3     ecut=    60.00 Ry     beta=0.70
     Davidson diagonalization with overlap
     ethr =  2.60E-07,  avg # of iterations =  2.0

     negative rho (up, down):  6.139E-07 0.000E+00

     total cpu time spent up to now is      576.5 secs

     total energy              =     -33.74314981 Ry
     Harris-Foulkes estimate   =     -33.74315470 Ry
     estimated scf accuracy    <       0.00000209 Ry

     iteration #  4     ecut=    60.00 Ry     beta=0.70
     Davidson diagonalization with overlap
     ethr =  2.62E-08,  avg # of iterations =  2.0

     total cpu time spent up to now is      578.9 secs

     total energy              =     -33.74314992 Ry
     Harris-Foulkes estimate   =     -33.74315024 Ry
     estimated scf accuracy    <       0.00000002 Ry

     iteration #  5     ecut=    60.00 Ry     beta=0.70
     Davidson diagonalization with overlap
     ethr =  2.17E-10,  avg # of iterations =  3.0

     total cpu time spent up to now is      581.2 secs

     End of self-consistent calculation

          k = 0.0000 0.0000 0.0000 ( 62669 PWs)   bands (ev):

   -25.2150 -12.8082  -9.0760  -7.0104  -0.9704   0.4029   0.7488   1.1131

     the Fermi energy is    -5.1288 ev

!    total energy              =     -33.74314987 Ry
     Harris-Foulkes estimate   =     -33.74314993 Ry
     estimated scf accuracy    <          1.1E-09 Ry

     convergence has been achieved in   5 iterations

     Forces acting on atoms (Ry/au):

     atom    1 type  2   force =    -0.00034506   -0.00208711    0.01838622
     atom    2 type  1   force =     0.00050973   -0.00549770   -0.00999040
     atom    3 type  1   force =    -0.00016466    0.00758480   -0.00839582

     Total force =     0.024513     Total SCF correction =     0.000304

     Entering Dynamics:    iteration =    20
                           time      =   0.0097 pico-seconds


     Andersen thermostat:    3 collisions

ATOMIC_POSITIONS (angstrom)
O       -0.001781442   0.000905212   0.119988805
H       -0.041790583   0.781148539  -0.479226308
H        0.070011453  -0.795488530  -0.486381433


     kinetic energy (Ekin) =     0.01604465 Ry
     temperature           =   844.41555758 K 
     Ekin + Etot (const)   =   -33.72710522 Ry
     Message from routine dynamics:
     Total linear momentum <> 0

     Linear momentum :   -0.2127061329   -0.1169465421   -0.0437023416

     Writing output data file pwscf.save

     second order wave-functions extrapolation
     Check: negative starting charge=   -0.071109
     second order charge density extrapolation
     Check: negative starting charge=   -0.071114

     negative rho (up, down):  1.749E-03 0.000E+00

     total cpu time spent up to now is      595.3 secs

     per-process dynamical memory:    32.7 Mb

     Self-consistent Calculation

     iteration #  1     ecut=    60.00 Ry     beta=0.70
     Davidson diagonalization with overlap
     ethr =  1.00E-06,  avg # of iterations = 11.0

     negative rho (up, down):  4.074E-04 0.000E+00

     total cpu time spent up to now is      599.9 secs

     total energy              =     -33.73895458 Ry
     Harris-Foulkes estimate   =     -33.73862257 Ry
     estimated scf accuracy    <       0.00009217 Ry

     iteration #  2     ecut=    60.00 Ry     beta=0.70
     Davidson diagonalization with overlap
     ethr =  1.15E-06,  avg # of iterations =  6.0

     negative rho (up, down):  1.644E-04 0.000E+00

     total cpu time spent up to now is      603.3 secs

     total energy              =     -33.74303947 Ry
     Harris-Foulkes estimate   =     -33.74305642 Ry
     estimated scf accuracy    <       0.00003365 Ry

     iteration #  3     ecut=    60.00 Ry     beta=0.70
     Davidson diagonalization with overlap
     ethr =  4.21E-07,  avg # of iterations =  9.0

     negative rho (up, down):  7.515E-07 0.000E+00

     total cpu time spent up to now is      606.5 secs

     total energy              =     -33.73896888 Ry
     Harris-Foulkes estimate   =     -33.73897361 Ry
     estimated scf accuracy    <       0.00000739 Ry

     iteration #  4     ecut=    60.00 Ry     beta=0.70
     Davidson diagonalization with overlap
     ethr =  9.24E-08,  avg # of iterations =  3.0

     total cpu time spent up to now is      609.1 secs

     total energy              =     -33.74304765 Ry
     Harris-Foulkes estimate   =     -33.74304784 Ry
     estimated scf accuracy    <       0.00000005 Ry

     iteration #  5     ecut=    60.00 Ry     beta=0.70
     Davidson diagonalization with overlap
     ethr =  5.90E-10,  avg # of iterations =  2.0

     total cpu time spent up to now is      611.2 secs

     End of self-consistent calculation

          k = 0.0000 0.0000 0.0000 ( 62669 PWs)   bands (ev):

   -25.1875 -12.7436  -9.1030  -7.0065  -0.9834   0.3980   0.7420   1.1101

     the Fermi energy is    -5.1241 ev

!    total energy              =     -33.74304761 Ry
[...]
     Davidson diagonalization with overlap
     ethr =  1.00E-06,  avg # of iterations =  4.0

     negative rho (up, down):  2.676E-04 0.000E+00

     total cpu time spent up to now is    13995.8 secs

     total energy              =     -33.73549851 Ry
     Harris-Foulkes estimate   =     -33.73558888 Ry
     estimated scf accuracy    <       0.00026477 Ry

     iteration #  2     ecut=    60.00 Ry     beta=0.70
     Davidson diagonalization with overlap
     ethr =  3.31E-06,  avg # of iterations =  4.0

     negative rho (up, down):  1.464E-04 0.000E+00

     total cpu time spent up to now is    13998.1 secs

     total energy              =     -33.73962039 Ry
     Harris-Foulkes estimate   =     -33.73975042 Ry
     estimated scf accuracy    <       0.00025945 Ry

     iteration #  3     ecut=    60.00 Ry     beta=0.70
     Davidson diagonalization with overlap
     ethr =  3.24E-06,  avg # of iterations =  2.0

     negative rho (up, down):  3.371E-06 0.000E+00

     total cpu time spent up to now is    13999.9 secs

     total energy              =     -33.73967158 Ry
     Harris-Foulkes estimate   =     -33.73967588 Ry
     estimated scf accuracy    <       0.00000295 Ry

     iteration #  4     ecut=    60.00 Ry     beta=0.70
     Davidson diagonalization with overlap
     ethr =  3.69E-08,  avg # of iterations =  2.0

     negative rho (up, down):  3.919E-08 0.000E+00

     total cpu time spent up to now is    14001.9 secs

     total energy              =     -33.73967226 Ry
     Harris-Foulkes estimate   =     -33.73967235 Ry
     estimated scf accuracy    <       0.00000005 Ry

     iteration #  5     ecut=    60.00 Ry     beta=0.70
     Davidson diagonalization with overlap
     ethr =  6.40E-10,  avg # of iterations =  2.0

     total cpu time spent up to now is    14003.4 secs

     End of self-consistent calculation

          k = 0.0000 0.0000 0.0000 ( 62669 PWs)   bands (ev):

   -25.0326 -12.4975  -9.1545  -6.9794  -1.0597   0.3675   0.7013   1.1004

     the Fermi energy is    -5.0927 ev

!    total energy              =     -33.73967226 Ry
     Harris-Foulkes estimate   =     -33.73967227 Ry
     estimated scf accuracy    <          2.4E-09 Ry

     convergence has been achieved in   5 iterations

     Forces acting on atoms (Ry/au):

     atom    1 type  2   force =    -0.00422775    0.06933253   -0.02309602
     atom    2 type  1   force =    -0.00311766   -0.06099475    0.03733257
     atom    3 type  1   force =     0.00734540   -0.00833777   -0.01423655

     Total force =     0.103963     Total SCF correction =     0.000731

     Entering Dynamics:    iteration =   475
                           time      =   0.2298 pico-seconds


     Andersen thermostat:    3 collisions

ATOMIC_POSITIONS (angstrom)
O       -0.024744649  -0.008591990   0.117067805
H        0.042995918   0.841878295  -0.492740944
H        0.348998526  -0.705767568  -0.426593528


     kinetic energy (Ekin) =     0.00940979 Ry
     temperature           =   495.22903232 K 
     Ekin + Etot (const)   =   -33.73026247 Ry
     Message from routine dynamics:
     Total linear momentum <> 0

     Linear momentum :   -0.0264771062    0.2267152751   -0.0884166364

     Writing output data file pwscf.save

     second order wave-functions extrapolation
     Check: negative starting charge=   -0.071012
     second order charge density extrapolation
     Check: negative starting charge=   -0.070998

     negative rho (up, down):  1.188E-03 0.000E+00

     total cpu time spent up to now is    14014.6 secs

     per-process dynamical memory:    32.7 Mb

     Self-consistent Calculation

     iteration #  1     ecut=    60.00 Ry     beta=0.70
     Davidson diagonalization with overlap
     ethr =  1.00E-06,  avg # of iterations =  7.0

     negative rho (up, down):  2.629E-04 0.000E+00

     total cpu time spent up to now is    14017.4 secs

     total energy              =     -33.73374341 Ry
     Harris-Foulkes estimate   =     -33.73375316 Ry
     estimated scf accuracy    <       0.00014772 Ry

     iteration #  2     ecut=    60.00 Ry     beta=0.70
     Davidson diagonalization with overlap
     ethr =  1.85E-06,  avg # of iterations =  5.0

     negative rho (up, down):  1.289E-04 0.000E+00

     total cpu time spent up to now is    14019.8 secs

     total energy              =     -33.73376401 Ry
     Harris-Foulkes estimate   =     -33.73381386 Ry
     estimated scf accuracy    <       0.00009669 Ry

     iteration #  3     ecut=    60.00 Ry     beta=0.70
     Davidson diagonalization with overlap
     ethr =  1.21E-06,  avg # of iterations =  2.0

     negative rho (up, down):  5.077E-06 0.000E+00

     total cpu time spent up to now is    14021.7 secs

     total energy              =     -33.73786234 Ry
     Harris-Foulkes estimate   =     -33.73786630 Ry
     estimated scf accuracy    <       0.00000472 Ry

     iteration #  4     ecut=    60.00 Ry     beta=0.70
     Davidson diagonalization with overlap
     ethr =  5.90E-08,  avg # of iterations =  2.0

     negative rho (up, down):  9.048E-08 0.000E+00

     total cpu time spent up to now is    14023.6 secs

     total energy              =     -33.73786324 Ry
     Harris-Foulkes estimate   =     -33.73786332 Ry
     estimated scf accuracy    <       0.00000005 Ry

     iteration #  5     ecut=    60.00 Ry     beta=0.70
     Davidson diagonalization with overlap
     ethr =  6.36E-10,  avg # of iterations =  2.0

     total cpu time spent up to now is    14025.2 secs

     End of self-consistent calculation

          k = 0.0000 0.0000 0.0000 ( 62669 PWs)   bands (ev):

   -25.1491 -12.5723  -9.1755  -6.9978  -1.0400   0.3683   0.7280   1.1006

     the Fermi energy is    -5.1217 ev

!    total energy              =     -33.73786306 Ry
     Harris-Foulkes estimate   =     -33.73786326 Ry
     estimated scf accuracy    <          3.2E-09 Ry

     convergence has been achieved in   5 iterations

     Forces acting on atoms (Ry/au):

     atom    1 type  2   force =    -0.01916417    0.10119058   -0.00423683
     atom    2 type  1   force =    -0.00338405   -0.06312861    0.04000643
     atom    3 type  1   force =     0.02254822   -0.03806197   -0.03576960

     Total force =     0.139494     Total SCF correction =     0.000857

     Entering Dynamics:    iteration =   476
                           time      =   0.2303 pico-seconds


     Andersen thermostat:    3 collisions

ATOMIC_POSITIONS (angstrom)
O       -0.025431019  -0.007776659   0.118297430
H        0.041639420   0.835946431  -0.509223613
H        0.361228210  -0.712751837  -0.429590072


     kinetic energy (Ekin) =     0.01015883 Ry
     temperature           =   534.65009106 K 
     Ekin + Etot (const)   =   -33.72770423 Ry
     Message from routine dynamics:
     Total linear momentum <> 0

     Linear momentum :   -0.1195478591   -0.0002282068    0.3029944109

     Writing output data file pwscf.save

     second order wave-functions extrapolation
     Check: negative starting charge=   -0.070998
     second order charge density extrapolation
     Check: negative starting charge=   -0.071002

     negative rho (up, down):  1.032E-03 0.000E+00

     total cpu time spent up to now is    14036.5 secs

     per-process dynamical memory:    32.7 Mb

     Self-consistent Calculation

     iteration #  1     ecut=    60.00 Ry     beta=0.70
     Davidson diagonalization with overlap
     ethr =  1.00E-06,  avg # of iterations =  5.0

     negative rho (up, down):  2.245E-04 0.000E+00

     total cpu time spent up to now is    14039.1 secs

     total energy              =     -33.73428684 Ry
     Harris-Foulkes estimate   =     -33.73425879 Ry
     estimated scf accuracy    <       0.00004317 Ry

     iteration #  2     ecut=    60.00 Ry     beta=0.70
     Davidson diagonalization with overlap
     ethr =  5.40E-07,  avg # of iterations =  4.0

     negative rho (up, down):  1.073E-04 0.000E+00

     total cpu time spent up to now is    14041.4 secs

     total energy              =     -33.73836545 Ry
     Harris-Foulkes estimate   =     -33.73838291 Ry
     estimated scf accuracy    <       0.00002816 Ry

     iteration #  3     ecut=    60.00 Ry     beta=0.70
     Davidson diagonalization with overlap
     ethr =  3.52E-07,  avg # of iterations =  2.0

     total cpu time spent up to now is    14043.2 secs

     total energy              =     -33.73837049 Ry
     Harris-Foulkes estimate   =     -33.73837284 Ry
     estimated scf accuracy    <       0.00000209 Ry

     iteration #  4     ecut=    60.00 Ry     beta=0.70
     Davidson diagonalization with overlap
     ethr =  2.62E-08,  avg # of iterations =  2.0

     total cpu time spent up to now is    14045.1 secs

     total energy              =     -33.73837077 Ry
     Harris-Foulkes estimate   =     -33.73837093 Ry
     estimated scf accuracy    <       0.00000001 Ry

     iteration #  5     ecut=    60.00 Ry     beta=0.70
     Davidson diagonalization with overlap
     ethr =  1.39E-10,  avg # of iterations =  3.0

     total cpu time spent up to now is    14046.8 secs

     End of self-consistent calculation

          k = 0.0000 0.0000 0.0000 ( 62669 PWs)   bands (ev):

   -25.0644 -12.4535  -9.2073  -6.9858  -1.0664   0.3614   0.7075   1.0994

     the Fermi energy is    -5.1014 ev

!    total energy              =     -33.73837073 Ry
     Harris-Foulkes estimate   =     -33.73837078 Ry
     estimated scf accuracy    <          1.0E-09 Ry

     convergence has been achieved in   5 iterations

     Forces acting on atoms (Ry/au):

     atom    1 type  2   force =    -0.00869527    0.08618812   -0.02352374
     atom    2 type  1   force =    -0.00438675   -0.06453890    0.04453325
     atom    3 type  1   force =     0.01308202   -0.02164922   -0.02100951

     Total force =     0.123719     Total SCF correction =     0.000139

     Entering Dynamics:    iteration =   477
                           time      =   0.2308 pico-seconds


     Andersen thermostat:    3 collisions

ATOMIC_POSITIONS (angstrom)
O       -0.025399989  -0.007342610   0.118216008
H        0.030995737   0.841540561  -0.509524171
H        0.371380323  -0.725221979  -0.427999664


     kinetic energy (Ekin) =     0.00744958 Ry
     temperature           =   392.06479225 K 
     Ekin + Etot (const)   =   -33.73092115 Ry
     Message from routine dynamics:
     Total linear momentum <> 0

     Linear momentum :   -0.0627492713   -0.1943235167    0.1255849578

     Writing output data file pwscf.save

     second order wave-functions extrapolation
     Check: negative starting charge=   -0.071002
     second order charge density extrapolation
     Check: negative starting charge=   -0.070970

     negative rho (up, down):  7.172E-04 0.000E+00

     total cpu time spent up to now is    14058.2 secs

     per-process dynamical memory:    32.7 Mb

     Self-consistent Calculation

     iteration #  1     ecut=    60.00 Ry     beta=0.70
     Davidson diagonalization with overlap
     ethr =  1.00E-06,  avg # of iterations =  4.0

     negative rho (up, down):  1.473E-04 0.000E+00

     total cpu time spent up to now is    14060.7 secs

     total energy              =     -33.73411696 Ry
     Harris-Foulkes estimate   =     -33.73411055 Ry
     estimated scf accuracy    <       0.00002093 Ry

     iteration #  2     ecut=    60.00 Ry     beta=0.70
     Davidson diagonalization with overlap
     ethr =  2.62E-07,  avg # of iterations =  3.0

     negative rho (up, down):  3.051E-05 0.000E+00

     total cpu time spent up to now is    14062.8 secs

     total energy              =     -33.73819342 Ry
     Harris-Foulkes estimate   =     -33.73819793 Ry
     estimated scf accuracy    <       0.00000394 Ry

     iteration #  3     ecut=    60.00 Ry     beta=0.70
     Davidson diagonalization with overlap
     ethr =  4.92E-08,  avg # of iterations =  2.0

     negative rho (up, down):  4.030E-07 0.000E+00

     total cpu time spent up to now is    14064.7 secs

     total energy              =     -33.73819305 Ry
     Harris-Foulkes estimate   =     -33.73819519 Ry
     estimated scf accuracy    <       0.00000217 Ry

     iteration #  4     ecut=    60.00 Ry     beta=0.70
     Davidson diagonalization with overlap
     ethr =  2.71E-08,  avg # of iterations =  2.0

     total cpu time spent up to now is    14066.6 secs

     total energy              =     -33.73819311 Ry
     Harris-Foulkes estimate   =     -33.73819352 Ry
     estimated scf accuracy    <       0.00000003 Ry

     iteration #  5     ecut=    60.00 Ry     beta=0.70
     Davidson diagonalization with overlap
     ethr =  3.30E-10,  avg # of iterations =  2.0

     total cpu time spent up to now is    14068.2 secs

     End of self-consistent calculation

          k = 0.0000 0.0000 0.0000 ( 62669 PWs)   bands (ev):

   -24.9645 -12.4249  -9.1520  -6.9671  -1.0890   0.3566   0.6835   1.0991

     the Fermi energy is    -5.0767 ev

!    total energy              =     -33.73819301 Ry
     Harris-Foulkes estimate   =     -33.73819313 Ry
     estimated scf accuracy    <          8.1E-10 Ry

     convergence has been achieved in   5 iterations

     Forces acting on atoms (Ry/au):

     atom    1 type  2   force =    -0.00254551    0.07359061   -0.03352888
     atom    2 type  1   force =    -0.00241754   -0.06993227    0.04466603
     atom    3 type  1   force =     0.00496305   -0.00365835   -0.01113715

     Total force =     0.116618     Total SCF correction =     0.000054

     Entering Dynamics:    iteration =   478
                           time      =   0.2312 pico-seconds


     Andersen thermostat:    3 collisions

ATOMIC_POSITIONS (angstrom)
O       -0.024067389  -0.006817896   0.118957621
H        0.013215999   0.840632039  -0.518051813
H        0.368049563  -0.732625760  -0.431220336


     kinetic energy (Ekin) =     0.01054147 Ry
     temperature           =   554.78804714 K 
     Ekin + Etot (const)   =   -33.72765154 Ry
     Message from routine dynamics:
     Total linear momentum <> 0

     Linear momentum :   -0.1144279698   -0.2839428972    0.2493709735

     Writing output data file pwscf.save

     second order wave-functions extrapolation
     Check: negative starting charge=   -0.070970
     second order charge density extrapolation
     Check: negative starting charge=   -0.070951

     negative rho (up, down):  1.448E-03 0.000E+00

     total cpu time spent up to now is    14079.5 secs

     per-process dynamical memory:    32.7 Mb

     Self-consistent Calculation

     iteration #  1     ecut=    60.00 Ry     beta=0.70
     Davidson diagonalization with overlap
     ethr =  1.00E-06,  avg # of iterations = 13.0

     negative rho (up, down):  3.293E-04 0.000E+00

     total cpu time spent up to now is    14083.0 secs

     total energy              =     -33.73357591 Ry
     Harris-Foulkes estimate   =     -33.73339103 Ry
     estimated scf accuracy    <       0.00002372 Ry

     iteration #  2     ecut=    60.00 Ry     beta=0.70
     Davidson diagonalization with overlap
     ethr =  2.97E-07,  avg # of iterations =  5.0

     negative rho (up, down):  8.406E-05 0.000E+00

     total cpu time spent up to now is    14085.5 secs

     total energy              =     -33.73357771 Ry
     Harris-Foulkes estimate   =     -33.73358092 Ry
     estimated scf accuracy    <       0.00000524 Ry

     iteration #  3     ecut=    60.00 Ry     beta=0.70
     Davidson diagonalization with overlap
     ethr =  6.55E-08,  avg # of iterations =  7.0

     negative rho (up, down):  5.022E-07 0.000E+00

     total cpu time spent up to now is    14087.9 secs

     total energy              =     -33.73765387 Ry
     Harris-Foulkes estimate   =     -33.73765766 Ry
     estimated scf accuracy    <       0.00000286 Ry

     iteration #  4     ecut=    60.00 Ry     beta=0.70
     Davidson diagonalization with overlap
     ethr =  3.57E-08,  avg # of iterations =  2.0

     total cpu time spent up to now is    14089.8 secs

     total energy              =     -33.73765414 Ry
     Harris-Foulkes estimate   =     -33.73765447 Ry
     estimated scf accuracy    <       0.00000001 Ry

     iteration #  5     ecut=    60.00 Ry     beta=0.70
     Davidson diagonalization with overlap
     ethr =  1.38E-10,  avg # of iterations =  2.0

     total cpu time spent up to now is    14091.4 secs

     End of self-consistent calculation

          k = 0.0000 0.0000 0.0000 ( 62669 PWs)   bands (ev):

   -24.9130 -12.3932  -9.1354  -6.9578  -1.1048   0.3524   0.6696   1.0979

     the Fermi energy is    -5.0647 ev

!    total energy              =     -33.73765408 Ry
     Harris-Foulkes estimate   =     -33.73765415 Ry
     estimated scf accuracy    <          9.2E-10 Ry

     convergence has been achieved in   5 iterations

     Forces acting on atoms (Ry/au):

     atom    1 type  2   force =    -0.00041086    0.06894374   -0.04029461
     atom    2 type  1   force =    -0.00065205   -0.07304730    0.04675212
     atom    3 type  1   force =     0.00106291    0.00410355   -0.00645751

     Total force =     0.118147     Total SCF correction =     0.000154

     Entering Dynamics:    iteration =   479
                           time      =   0.2317 pico-seconds


     Andersen thermostat:    3 collisions

ATOMIC_POSITIONS (angstrom)
O       -0.024574538  -0.006589312   0.117852219
H        0.020149158   0.837822428  -0.506105971
H        0.369150461  -0.733437285  -0.425654871


     kinetic energy (Ekin) =     0.00381078 Ry
     temperature           =   200.55805914 K 
     Ekin + Etot (const)   =   -33.73384329 Ry
     Message from routine dynamics:
     Total linear momentum <> 0

     Linear momentum :    0.1366525004   -0.0272900126    0.0054819210

     Writing output data file pwscf.save

     second order wave-functions extrapolation
     Check: negative starting charge=   -0.070951
     second order charge density extrapolation
     Check: negative starting charge=   -0.070981

     negative rho (up, down):  7.108E-04 0.000E+00

     total cpu time spent up to now is    14102.8 secs

     per-process dynamical memory:    32.7 Mb

     Self-consistent Calculation

     iteration #  1     ecut=    60.00 Ry     beta=0.70
     Davidson diagonalization with overlap
     ethr =  1.00E-06,  avg # of iterations =  5.0

     negative rho (up, down):  1.440E-04 0.000E+00

     total cpu time spent up to now is    14105.3 secs

     total energy              =     -33.73900196 Ry
     Harris-Foulkes estimate   =     -33.73902906 Ry
     estimated scf accuracy    <       0.00004810 Ry

     iteration #  2     ecut=    60.00 Ry     beta=0.70
     Davidson diagonalization with overlap
     ethr =  6.01E-07,  avg # of iterations =  3.0

     negative rho (up, down):  7.454E-05 0.000E+00

     total cpu time spent up to now is    14107.5 secs

     total energy              =     -33.73493372 Ry
     Harris-Foulkes estimate   =     -33.73495761 Ry
     estimated scf accuracy    <       0.00005014 Ry

     iteration #  3     ecut=    60.00 Ry     beta=0.70
     Davidson diagonalization with overlap
     ethr =  6.01E-07,  avg # of iterations =  2.0

     negative rho (up, down):  4.521E-07 0.000E+00

     total cpu time spent up to now is    14109.3 secs

     total energy              =     -33.73902082 Ry
     Harris-Foulkes estimate   =     -33.73902172 Ry
     estimated scf accuracy    <       0.00000051 Ry

     iteration #  4     ecut=    60.00 Ry     beta=0.70
     Davidson diagonalization with overlap
     ethr =  6.39E-09,  avg # of iterations =  2.0

     negative rho (up, down):  1.733E-08 0.000E+00

     total cpu time spent up to now is    14111.3 secs

     total energy              =     -33.73902086 Ry
     Harris-Foulkes estimate   =     -33.73902103 Ry
     estimated scf accuracy    <       0.00000001 Ry

     iteration #  5     ecut=    60.00 Ry     beta=0.70
     Davidson diagonalization with overlap
