
     Program PWSCF v.6.2 (svn rev. 14038) starts on 12May2018 at  5:33: 1 

     This program is part of the open-source Quantum ESPRESSO suite
     for quantum simulation of materials; please cite
         "P. Giannozzi et al., J. Phys.:Condens. Matter 21 395502 (2009);
         "P. Giannozzi et al., J. Phys.:Condens. Matter 29 465901 (2017);
          URL http://www.quantum-espresso.org", 
     in publications or presentations arising from this work. More details at
     http://www.quantum-espresso.org/quote

     Parallel version (MPI), running on    28 processors

     MPI processes distributed on     1 nodes
     R & G space division:  proc/nbgrp/npool/nimage =      28
     Reading input from ../ecut120/11500.in
Warning: card &IONS ignored
Warning: card     POT_EXTRAPOLATION='SECOND-ORDER' ignored
Warning: card     WFC_EXTRAPOLATION='SECOND-ORDER' ignored
Warning: card     ION_TEMPERATURE = 'ANDERSEN' ignored
Warning: card / ignored

     Current dimensions of program PWSCF are:
     Max number of different atomic species (ntypx) = 10
     Max number of k-points (npk) =  40000
     Max angular momentum in pseudopotentials (lmaxx) =  3

     Subspace diagonalization in iterative solution of the eigenvalue problem:
     a serial algorithm will be used

 
     Parallelization info
     --------------------
     sticks:   dense  smooth     PW     G-vecs:    dense   smooth      PW
     Min         545     545    136                50739    50739    6338
     Max         546     546    137                50746    50746    6341
     Sum       15273   15273   3809              1420755  1420755  177509
 


     bravais-lattice index     =            1
     lattice parameter (alat)  =      20.0000  a.u.
     unit-cell volume          =    8000.0000 (a.u.)^3
     number of atoms/cell      =            3
     number of atomic types    =            2
     number of electrons       =         8.00
     number of Kohn-Sham states=            8
     kinetic-energy cutoff     =     120.0000  Ry
     charge density cutoff     =     480.0000  Ry
     convergence threshold     =      1.0E-08
     mixing beta               =       0.7000
     number of iterations used =            8  plain     mixing
     Exchange-correlation      = PBE ( 1  4  3  4 0 0)

     celldm(1)=  20.000000  celldm(2)=   0.000000  celldm(3)=   0.000000
     celldm(4)=   0.000000  celldm(5)=   0.000000  celldm(6)=   0.000000

     crystal axes: (cart. coord. in units of alat)
               a(1) = (   1.000000   0.000000   0.000000 )  
               a(2) = (   0.000000   1.000000   0.000000 )  
               a(3) = (   0.000000   0.000000   1.000000 )  

     reciprocal axes: (cart. coord. in units 2 pi/alat)
               b(1) = (  1.000000  0.000000  0.000000 )  
               b(2) = (  0.000000  1.000000  0.000000 )  
               b(3) = (  0.000000  0.000000  1.000000 )  


     PseudoPot. # 1 for H  read from file:
     ../pslibrary/pbe/PSEUDOPOTENTIALS/H.pbe-rrkjus_psl.1.0.0.UPF
     MD5 check sum: b2b1ff84b4ceabe23335d1bf25025923
     Pseudo is Ultrasoft, Zval =  1.0
     Generated using "atomic" code by A. Dal Corso v.6.2 svn rev. 14038
     Using radial grid of  929 points,  2 beta functions with: 
                l(1) =   0
                l(2) =   0
     Q(r) pseudized with 0 coefficients 


     PseudoPot. # 2 for O  read from file:
     ../pslibrary/pbe/PSEUDOPOTENTIALS/O.pbe-n-rrkjus_psl.1.0.0.UPF
     MD5 check sum: 61455b21a47f6823f888c3bfb9bd1235
     Pseudo is Ultrasoft + core correction, Zval =  6.0
     Generated using "atomic" code by A. Dal Corso v.6.2 svn rev. 14038
     Using radial grid of 1095 points,  4 beta functions with: 
                l(1) =   0
                l(2) =   0
                l(3) =   1
                l(4) =   1
     Q(r) pseudized with 0 coefficients 


     atomic species   valence    mass     pseudopotential
        H              1.00     1.01000     H ( 1.00)
        O              6.00    16.00000     O ( 1.00)

     No symmetry found



   Cartesian axes

     site n.     atom                  positions (alat units)
         1           O   tau(   1) = (   0.0000498   0.0070069   0.0076937  )
         2           H   tau(   2) = (   0.0502607  -0.1216775   0.0361254  )
         3           H   tau(   3) = (  -0.0510497   0.0106766  -0.0696418  )

     number of k points=     1  Marzari-Vanderbilt smearing, width (Ry)=  0.0250
                       cart. coord. in units 2pi/alat
        k(    1) = (   0.0000000   0.0000000   0.0000000), wk =   2.0000000

     Dense  grid:  1420755 G-vectors     FFT dimensions: ( 144, 144, 144)

     Estimated max dynamical RAM per process >      58.78 MB

     Estimated total dynamical RAM >       1.61 GB

     Initial potential from superposition of free atoms
     Check: negative starting charge=   -0.000711

     starting charge    7.99998, renormalised to    8.00000

     negative rho (up, down):  7.107E-04 0.000E+00
     Starting wfc are    6 randomized atomic wfcs +    2 random wfc

     total cpu time spent up to now is        1.8 secs

     Self-consistent Calculation

     iteration #  1     ecut=   120.00 Ry     beta= 0.70
     Davidson diagonalization with overlap
     ethr =  1.00E-02,  avg # of iterations =  7.0

     negative rho (up, down):  1.123E-03 0.000E+00

     total cpu time spent up to now is        2.9 secs

     total energy              =     -34.30474109 Ry
     Harris-Foulkes estimate   =     -34.73734399 Ry
     estimated scf accuracy    <       0.57616403 Ry

     iteration #  2     ecut=   120.00 Ry     beta= 0.70
     Davidson diagonalization with overlap
     ethr =  7.20E-03,  avg # of iterations =  3.0

     negative rho (up, down):  6.779E-04 0.000E+00

     total cpu time spent up to now is        3.5 secs

     total energy              =     -34.24357182 Ry
     Harris-Foulkes estimate   =     -34.97490992 Ry
     estimated scf accuracy    <       2.07153764 Ry

     iteration #  3     ecut=   120.00 Ry     beta= 0.70
     Davidson diagonalization with overlap
     ethr =  7.20E-03,  avg # of iterations =  1.0

     negative rho (up, down):  3.786E-04 0.000E+00

     total cpu time spent up to now is        4.1 secs

     total energy              =     -34.46104691 Ry
     Harris-Foulkes estimate   =     -34.48108159 Ry
     estimated scf accuracy    <       0.11532491 Ry

     iteration #  4     ecut=   120.00 Ry     beta= 0.70
     Davidson diagonalization with overlap
     ethr =  1.44E-03,  avg # of iterations =  3.0

     negative rho (up, down):  5.375E-04 0.000E+00

     total cpu time spent up to now is        4.8 secs

     total energy              =     -34.58532590 Ry
     Harris-Foulkes estimate   =     -34.59828573 Ry
     estimated scf accuracy    <       0.04413274 Ry

     iteration #  5     ecut=   120.00 Ry     beta= 0.70
     Davidson diagonalization with overlap
     ethr =  5.52E-04,  avg # of iterations =  1.0

     negative rho (up, down):  5.758E-04 0.000E+00

     total cpu time spent up to now is        5.4 secs

     total energy              =     -34.58742844 Ry
     Harris-Foulkes estimate   =     -34.58791333 Ry
     estimated scf accuracy    <       0.00783261 Ry

     iteration #  6     ecut=   120.00 Ry     beta= 0.70
     Davidson diagonalization with overlap
     ethr =  9.79E-05,  avg # of iterations =  4.0

     negative rho (up, down):  6.156E-04 0.000E+00

     total cpu time spent up to now is        6.1 secs

     total energy              =     -34.58717967 Ry
     Harris-Foulkes estimate   =     -34.58783300 Ry
     estimated scf accuracy    <       0.00727922 Ry

     iteration #  7     ecut=   120.00 Ry     beta= 0.70
     Davidson diagonalization with overlap
     ethr =  9.10E-05,  avg # of iterations =  1.0

     negative rho (up, down):  6.717E-04 0.000E+00

     total cpu time spent up to now is        6.7 secs

     total energy              =     -34.58703363 Ry
     Harris-Foulkes estimate   =     -34.58744934 Ry
     estimated scf accuracy    <       0.00428704 Ry

     iteration #  8     ecut=   120.00 Ry     beta= 0.70
     Davidson diagonalization with overlap
     ethr =  5.36E-05,  avg # of iterations =  1.0

     negative rho (up, down):  6.801E-04 0.000E+00

     total cpu time spent up to now is        7.3 secs

     total energy              =     -34.59123824 Ry
     Harris-Foulkes estimate   =     -34.59128807 Ry
     estimated scf accuracy    <       0.00319223 Ry

     iteration #  9     ecut=   120.00 Ry     beta= 0.70
     Davidson diagonalization with overlap
     ethr =  3.99E-05,  avg # of iterations =  2.0

     negative rho (up, down):  6.756E-04 0.000E+00

     total cpu time spent up to now is        8.0 secs

     total energy              =     -34.59179027 Ry
     Harris-Foulkes estimate   =     -34.59174432 Ry
     estimated scf accuracy    <       0.00131866 Ry

     iteration # 10     ecut=   120.00 Ry     beta= 0.70
     Davidson diagonalization with overlap
     ethr =  1.65E-05,  avg # of iterations =  4.0

     negative rho (up, down):  7.184E-04 0.000E+00

     total cpu time spent up to now is        8.8 secs

     total energy              =     -34.59203891 Ry
     Harris-Foulkes estimate   =     -34.59206395 Ry
     estimated scf accuracy    <       0.00079404 Ry

     iteration # 11     ecut=   120.00 Ry     beta= 0.70
     Davidson diagonalization with overlap
     ethr =  9.93E-06,  avg # of iterations =  2.0

     negative rho (up, down):  1.041E-03 0.000E+00

     total cpu time spent up to now is        9.5 secs

     total energy              =     -34.58784423 Ry
     Harris-Foulkes estimate   =     -34.58796301 Ry
     estimated scf accuracy    <       0.00068333 Ry

     iteration # 12     ecut=   120.00 Ry     beta= 0.70
     Davidson diagonalization with overlap
     ethr =  8.54E-06,  avg # of iterations =  1.0

     negative rho (up, down):  1.097E-03 0.000E+00

     total cpu time spent up to now is       10.1 secs

     total energy              =     -34.58783917 Ry
     Harris-Foulkes estimate   =     -34.58786199 Ry
     estimated scf accuracy    <       0.00027261 Ry

     iteration # 13     ecut=   120.00 Ry     beta= 0.70
     Davidson diagonalization with overlap
     ethr =  3.41E-06,  avg # of iterations = 13.0

     negative rho (up, down):  1.101E-03 0.000E+00

     total cpu time spent up to now is       11.1 secs

     total energy              =     -34.58785604 Ry
     Harris-Foulkes estimate   =     -34.58784641 Ry
     estimated scf accuracy    <       0.00015620 Ry

     iteration # 14     ecut=   120.00 Ry     beta= 0.70
     Davidson diagonalization with overlap
     ethr =  1.95E-06,  avg # of iterations =  1.0

     negative rho (up, down):  1.107E-03 0.000E+00

     total cpu time spent up to now is       11.7 secs

     total energy              =     -34.58786789 Ry
     Harris-Foulkes estimate   =     -34.58785694 Ry
     estimated scf accuracy    <       0.00017444 Ry

     iteration # 15     ecut=   120.00 Ry     beta= 0.70
     Davidson diagonalization with overlap
     ethr =  1.95E-06,  avg # of iterations =  1.0

     negative rho (up, down):  1.108E-03 0.000E+00

     total cpu time spent up to now is       12.4 secs

     total energy              =     -34.58787567 Ry
     Harris-Foulkes estimate   =     -34.58786823 Ry
     estimated scf accuracy    <       0.00020587 Ry

     iteration # 16     ecut=   120.00 Ry     beta= 0.70
     Davidson diagonalization with overlap
     ethr =  1.95E-06,  avg # of iterations =  1.0

     negative rho (up, down):  1.116E-03 0.000E+00

     total cpu time spent up to now is       13.0 secs

     total energy              =     -34.58791875 Ry
     Harris-Foulkes estimate   =     -34.58787597 Ry
     estimated scf accuracy    <       0.00022930 Ry

     iteration # 17     ecut=   120.00 Ry     beta= 0.70
     Davidson diagonalization with overlap
     ethr =  1.95E-06,  avg # of iterations =  1.0

     negative rho (up, down):  1.100E-03 0.000E+00

     total cpu time spent up to now is       13.7 secs

     total energy              =     -34.58782274 Ry
     Harris-Foulkes estimate   =     -34.58792125 Ry
     estimated scf accuracy    <       0.00035140 Ry

     iteration # 18     ecut=   120.00 Ry     beta= 0.70
     Davidson diagonalization with overlap
     ethr =  1.95E-06,  avg # of iterations =  1.0

     negative rho (up, down):  1.100E-03 0.000E+00

     total cpu time spent up to now is       14.3 secs

     total energy              =     -34.58781544 Ry
     Harris-Foulkes estimate   =     -34.58783270 Ry
     estimated scf accuracy    <       0.00013300 Ry

     iteration # 19     ecut=   120.00 Ry     beta= 0.70
     Davidson diagonalization with overlap
     ethr =  1.66E-06,  avg # of iterations =  1.0

     negative rho (up, down):  1.076E-03 0.000E+00

     total cpu time spent up to now is       14.9 secs

     total energy              =     -34.58780910 Ry
     Harris-Foulkes estimate   =     -34.58782166 Ry
     estimated scf accuracy    <       0.00004947 Ry

     iteration # 20     ecut=   120.00 Ry     beta= 0.70
     Davidson diagonalization with overlap
     ethr =  6.18E-07,  avg # of iterations =  1.0

     negative rho (up, down):  1.075E-03 0.000E+00

     total cpu time spent up to now is       15.6 secs

     total energy              =     -34.58780737 Ry
     Harris-Foulkes estimate   =     -34.58781237 Ry
     estimated scf accuracy    <       0.00001480 Ry

     iteration # 21     ecut=   120.00 Ry     beta= 0.70
     Davidson diagonalization with overlap
     ethr =  1.85E-07,  avg # of iterations =  3.0

     negative rho (up, down):  1.071E-03 0.000E+00

     total cpu time spent up to now is       16.3 secs

     total energy              =     -34.58781441 Ry
     Harris-Foulkes estimate   =     -34.58781481 Ry
     estimated scf accuracy    <       0.00000146 Ry

     iteration # 22     ecut=   120.00 Ry     beta= 0.70
     Davidson diagonalization with overlap
     ethr =  1.83E-08,  avg # of iterations =  1.0

     negative rho (up, down):  1.071E-03 0.000E+00

     total cpu time spent up to now is       17.0 secs

     total energy              =     -34.58781430 Ry
     Harris-Foulkes estimate   =     -34.58781445 Ry
     estimated scf accuracy    <       0.00000055 Ry

     iteration # 23     ecut=   120.00 Ry     beta= 0.70
     Davidson diagonalization with overlap
     ethr =  6.92E-09,  avg # of iterations =  2.0

     negative rho (up, down):  1.071E-03 0.000E+00

     total cpu time spent up to now is       17.6 secs

     total energy              =     -34.58781444 Ry
     Harris-Foulkes estimate   =     -34.58781445 Ry
     estimated scf accuracy    <       0.00000001 Ry

     iteration # 24     ecut=   120.00 Ry     beta= 0.70
     Davidson diagonalization with overlap
     ethr =  1.59E-10,  avg # of iterations =  4.0

     negative rho (up, down):  1.071E-03 0.000E+00

     total cpu time spent up to now is       18.4 secs

     total energy              =     -34.58781445 Ry
     Harris-Foulkes estimate   =     -34.58781446 Ry
     estimated scf accuracy    <       0.00000001 Ry

     iteration # 25     ecut=   120.00 Ry     beta= 0.70
     Davidson diagonalization with overlap
     ethr =  1.59E-10,  avg # of iterations =  3.0

     negative rho (up, down):  1.071E-03 0.000E+00

     total cpu time spent up to now is       19.0 secs

     End of self-consistent calculation

          k = 0.0000 0.0000 0.0000 (177509 PWs)   bands (ev):

   -23.6891 -11.3244  -8.4347  -6.7084  -3.4710  -0.3297   0.3789   0.9086

     the Fermi energy is    -6.3951 ev

!    total energy              =     -34.58781445 Ry
     Harris-Foulkes estimate   =     -34.58781445 Ry
     estimated scf accuracy    <          2.4E-09 Ry

     The total energy is the sum of the following terms:

     one-electron contribution =     -59.75110966 Ry
     hartree contribution      =      31.49977646 Ry
     xc contribution           =      -8.53404024 Ry
     ewald contribution        =       2.19348152 Ry
     smearing contrib. (-TS)   =       0.00407747 Ry

     convergence has been achieved in  25 iterations

     Writing output data file pwscf.save
 
     init_run     :      1.10s CPU      1.23s WALL (       1 calls)
     electrons    :     15.59s CPU     17.28s WALL (       1 calls)

     Called by init_run:
     wfcinit      :      0.12s CPU      0.19s WALL (       1 calls)
     potinit      :      0.21s CPU      0.22s WALL (       1 calls)

     Called by electrons:
     c_bands      :      5.72s CPU      5.92s WALL (      25 calls)
     sum_band     :      3.65s CPU      3.71s WALL (      25 calls)
     v_of_rho     :      3.16s CPU      3.19s WALL (      26 calls)
     newd         :      1.31s CPU      1.34s WALL (      26 calls)
     mix_rho      :      1.64s CPU      2.90s WALL (      25 calls)

     Called by c_bands:
     init_us_2    :      0.11s CPU      0.11s WALL (      51 calls)
     cegterg      :      5.62s CPU      5.80s WALL (      25 calls)

     Called by sum_band:
     sum_band:bec :      0.00s CPU      0.00s WALL (      25 calls)
     addusdens    :      1.78s CPU      1.81s WALL (      25 calls)

     Called by *egterg:
     h_psi        :      5.35s CPU      5.53s WALL (      89 calls)
     s_psi        :      0.03s CPU      0.03s WALL (      89 calls)
     g_psi        :      0.02s CPU      0.02s WALL (      63 calls)
     cdiaghg      :      0.02s CPU      0.02s WALL (      88 calls)

     Called by h_psi:
     h_psi:pot    :      5.33s CPU      5.50s WALL (      89 calls)
     h_psi:calbec :      0.09s CPU      0.09s WALL (      89 calls)
     vloc_psi     :      5.21s CPU      5.38s WALL (      89 calls)
     add_vuspsi   :      0.03s CPU      0.03s WALL (      89 calls)

     General routines
     calbec       :      0.13s CPU      0.14s WALL (     114 calls)
     fft          :      3.22s CPU      3.27s WALL (     337 calls)
     fftw         :      5.54s CPU      5.72s WALL (    1168 calls)
     davcio       :      0.22s CPU      1.36s WALL (     407 calls)
 
     Parallel routines
     fft_scatt_xy :      0.89s CPU      0.90s WALL (    1505 calls)
     fft_scatt_yz :      2.20s CPU      2.39s WALL (    1505 calls)
 
     PWSCF        :    17.28s CPU        19.39s WALL

 
   This run was terminated on:   5:33:20  12May2018            

=------------------------------------------------------------------------------=
   JOB DONE.
=------------------------------------------------------------------------------=
