
     Program PWSCF v.6.2 (svn rev. 14038) starts on 12May2018 at  5:34:30 

     This program is part of the open-source Quantum ESPRESSO suite
     for quantum simulation of materials; please cite
         "P. Giannozzi et al., J. Phys.:Condens. Matter 21 395502 (2009);
         "P. Giannozzi et al., J. Phys.:Condens. Matter 29 465901 (2017);
          URL http://www.quantum-espresso.org", 
     in publications or presentations arising from this work. More details at
     http://www.quantum-espresso.org/quote

     Parallel version (MPI), running on    28 processors

     MPI processes distributed on     1 nodes
     R & G space division:  proc/nbgrp/npool/nimage =      28
     Reading input from ../ecut120/14000.in
Warning: card &IONS ignored
Warning: card     POT_EXTRAPOLATION='SECOND-ORDER' ignored
Warning: card     WFC_EXTRAPOLATION='SECOND-ORDER' ignored
Warning: card     ION_TEMPERATURE = 'ANDERSEN' ignored
Warning: card / ignored

     Current dimensions of program PWSCF are:
     Max number of different atomic species (ntypx) = 10
     Max number of k-points (npk) =  40000
     Max angular momentum in pseudopotentials (lmaxx) =  3

     Subspace diagonalization in iterative solution of the eigenvalue problem:
     a serial algorithm will be used

 
     Parallelization info
     --------------------
     sticks:   dense  smooth     PW     G-vecs:    dense   smooth      PW
     Min         545     545    136                50739    50739    6338
     Max         546     546    137                50746    50746    6341
     Sum       15273   15273   3809              1420755  1420755  177509
 


     bravais-lattice index     =            1
     lattice parameter (alat)  =      20.0000  a.u.
     unit-cell volume          =    8000.0000 (a.u.)^3
     number of atoms/cell      =            3
     number of atomic types    =            2
     number of electrons       =         8.00
     number of Kohn-Sham states=            8
     kinetic-energy cutoff     =     120.0000  Ry
     charge density cutoff     =     480.0000  Ry
     convergence threshold     =      1.0E-08
     mixing beta               =       0.7000
     number of iterations used =            8  plain     mixing
     Exchange-correlation      = PBE ( 1  4  3  4 0 0)

     celldm(1)=  20.000000  celldm(2)=   0.000000  celldm(3)=   0.000000
     celldm(4)=   0.000000  celldm(5)=   0.000000  celldm(6)=   0.000000

     crystal axes: (cart. coord. in units of alat)
               a(1) = (   1.000000   0.000000   0.000000 )  
               a(2) = (   0.000000   1.000000   0.000000 )  
               a(3) = (   0.000000   0.000000   1.000000 )  

     reciprocal axes: (cart. coord. in units 2 pi/alat)
               b(1) = (  1.000000  0.000000  0.000000 )  
               b(2) = (  0.000000  1.000000  0.000000 )  
               b(3) = (  0.000000  0.000000  1.000000 )  


     PseudoPot. # 1 for H  read from file:
     ../pslibrary/pbe/PSEUDOPOTENTIALS/H.pbe-rrkjus_psl.1.0.0.UPF
     MD5 check sum: b2b1ff84b4ceabe23335d1bf25025923
     Pseudo is Ultrasoft, Zval =  1.0
     Generated using "atomic" code by A. Dal Corso v.6.2 svn rev. 14038
     Using radial grid of  929 points,  2 beta functions with: 
                l(1) =   0
                l(2) =   0
     Q(r) pseudized with 0 coefficients 


     PseudoPot. # 2 for O  read from file:
     ../pslibrary/pbe/PSEUDOPOTENTIALS/O.pbe-n-rrkjus_psl.1.0.0.UPF
     MD5 check sum: 61455b21a47f6823f888c3bfb9bd1235
     Pseudo is Ultrasoft + core correction, Zval =  6.0
     Generated using "atomic" code by A. Dal Corso v.6.2 svn rev. 14038
     Using radial grid of 1095 points,  4 beta functions with: 
                l(1) =   0
                l(2) =   0
                l(3) =   1
                l(4) =   1
     Q(r) pseudized with 0 coefficients 


     atomic species   valence    mass     pseudopotential
        H              1.00     1.01000     H ( 1.00)
        O              6.00    16.00000     O ( 1.00)

     No symmetry found



   Cartesian axes

     site n.     atom                  positions (alat units)
         1           O   tau(   1) = (   0.0062309   0.0093030   0.0070980  )
         2           H   tau(   2) = (  -0.0408952  -0.1613837   0.0381657  )
         3           H   tau(   3) = (  -0.0578115   0.0140092  -0.0622445  )

     number of k points=     1  Marzari-Vanderbilt smearing, width (Ry)=  0.0250
                       cart. coord. in units 2pi/alat
        k(    1) = (   0.0000000   0.0000000   0.0000000), wk =   2.0000000

     Dense  grid:  1420755 G-vectors     FFT dimensions: ( 144, 144, 144)

     Estimated max dynamical RAM per process >      58.78 MB

     Estimated total dynamical RAM >       1.61 GB

     Initial potential from superposition of free atoms
     Check: negative starting charge=   -0.000706

     starting charge    7.99998, renormalised to    8.00000

     negative rho (up, down):  7.063E-04 0.000E+00
     Starting wfc are    6 randomized atomic wfcs +    2 random wfc

     total cpu time spent up to now is        2.0 secs

     Self-consistent Calculation

     iteration #  1     ecut=   120.00 Ry     beta= 0.70
     Davidson diagonalization with overlap
     ethr =  1.00E-02,  avg # of iterations =  8.0

     negative rho (up, down):  1.114E-03 0.000E+00

     total cpu time spent up to now is        2.8 secs

     total energy              =     -33.99127697 Ry
     Harris-Foulkes estimate   =     -34.63049886 Ry
     estimated scf accuracy    <       0.83623417 Ry

     iteration #  2     ecut=   120.00 Ry     beta= 0.70
     Davidson diagonalization with overlap
     ethr =  1.00E-02,  avg # of iterations =  5.0

     negative rho (up, down):  4.266E-05 0.000E+00

     total cpu time spent up to now is        3.5 secs

     total energy              =     -33.96139212 Ry
     Harris-Foulkes estimate   =     -35.39356999 Ry
     estimated scf accuracy    <       4.51214623 Ry

     iteration #  3     ecut=   120.00 Ry     beta= 0.70
     Davidson diagonalization with overlap
     ethr =  1.00E-02,  avg # of iterations =  7.0

     negative rho (up, down):  9.504E-05 0.000E+00

     total cpu time spent up to now is        4.2 secs

     total energy              =     -34.46201686 Ry
     Harris-Foulkes estimate   =     -34.46596452 Ry
     estimated scf accuracy    <       0.02627659 Ry

     iteration #  4     ecut=   120.00 Ry     beta= 0.70
     Davidson diagonalization with overlap
     ethr =  3.28E-04,  avg # of iterations =  2.0

     negative rho (up, down):  6.678E-04 0.000E+00

     total cpu time spent up to now is        4.8 secs

     total energy              =     -34.46050284 Ry
     Harris-Foulkes estimate   =     -34.46321928 Ry
     estimated scf accuracy    <       0.00971295 Ry

     iteration #  5     ecut=   120.00 Ry     beta= 0.70
     Davidson diagonalization with overlap
     ethr =  1.21E-04,  avg # of iterations =  3.0

     negative rho (up, down):  9.443E-04 0.000E+00

     total cpu time spent up to now is        5.4 secs

     total energy              =     -34.46084557 Ry
     Harris-Foulkes estimate   =     -34.46109141 Ry
     estimated scf accuracy    <       0.00118576 Ry

     iteration #  6     ecut=   120.00 Ry     beta= 0.70
     Davidson diagonalization with overlap
     ethr =  1.48E-05,  avg # of iterations = 10.0

     negative rho (up, down):  9.328E-04 0.000E+00

     total cpu time spent up to now is        6.3 secs

     total energy              =     -34.46149451 Ry
     Harris-Foulkes estimate   =     -34.46150648 Ry
     estimated scf accuracy    <       0.00013892 Ry

     iteration #  7     ecut=   120.00 Ry     beta= 0.70
     Davidson diagonalization with overlap
     ethr =  1.74E-06,  avg # of iterations = 15.0

     negative rho (up, down):  9.961E-04 0.000E+00

     total cpu time spent up to now is        7.2 secs

     total energy              =     -34.46144979 Ry
     Harris-Foulkes estimate   =     -34.46149742 Ry
     estimated scf accuracy    <       0.00010860 Ry

     iteration #  8     ecut=   120.00 Ry     beta= 0.70
     Davidson diagonalization with overlap
     ethr =  1.36E-06,  avg # of iterations =  3.0

     negative rho (up, down):  1.004E-03 0.000E+00

     total cpu time spent up to now is        7.8 secs

     total energy              =     -34.46146494 Ry
     Harris-Foulkes estimate   =     -34.46146465 Ry
     estimated scf accuracy    <       0.00000431 Ry

     iteration #  9     ecut=   120.00 Ry     beta= 0.70
     Davidson diagonalization with overlap
     ethr =  5.39E-08,  avg # of iterations =  3.0

     negative rho (up, down):  1.012E-03 0.000E+00

     total cpu time spent up to now is        8.5 secs

     total energy              =     -34.46146610 Ry
     Harris-Foulkes estimate   =     -34.46146838 Ry
     estimated scf accuracy    <       0.00000702 Ry

     iteration # 10     ecut=   120.00 Ry     beta= 0.70
     Davidson diagonalization with overlap
     ethr =  5.39E-08,  avg # of iterations =  1.0

     negative rho (up, down):  1.022E-03 0.000E+00

     total cpu time spent up to now is        9.3 secs

     total energy              =     -34.46146587 Ry
     Harris-Foulkes estimate   =     -34.46146645 Ry
     estimated scf accuracy    <       0.00000100 Ry

     iteration # 11     ecut=   120.00 Ry     beta= 0.70
     Davidson diagonalization with overlap
     ethr =  1.25E-08,  avg # of iterations =  3.0

     negative rho (up, down):  1.024E-03 0.000E+00

     total cpu time spent up to now is       10.0 secs

     total energy              =     -34.46146627 Ry
     Harris-Foulkes estimate   =     -34.46146701 Ry
     estimated scf accuracy    <       0.00000159 Ry

     iteration # 12     ecut=   120.00 Ry     beta= 0.70
     Davidson diagonalization with overlap
     ethr =  1.25E-08,  avg # of iterations =  3.0

     negative rho (up, down):  1.024E-03 0.000E+00

     total cpu time spent up to now is       10.7 secs

     total energy              =     -34.46146644 Ry
     Harris-Foulkes estimate   =     -34.46146646 Ry
     estimated scf accuracy    <       0.00000009 Ry

     iteration # 13     ecut=   120.00 Ry     beta= 0.70
     Davidson diagonalization with overlap
     ethr =  1.17E-09,  avg # of iterations =  3.0

     negative rho (up, down):  1.024E-03 0.000E+00

     total cpu time spent up to now is       11.2 secs

     End of self-consistent calculation

          k = 0.0000 0.0000 0.0000 (177509 PWs)   bands (ev):

   -23.6336 -10.4489  -8.6757  -6.7816  -5.3493  -0.4703   0.2843   0.8120

     the Fermi energy is    -6.4683 ev

!    total energy              =     -34.46146652 Ry
     Harris-Foulkes estimate   =     -34.46146652 Ry
     estimated scf accuracy    <          3.0E-09 Ry

     The total energy is the sum of the following terms:

     one-electron contribution =     -57.60089554 Ry
     hartree contribution      =      30.39422771 Ry
     xc contribution           =      -8.42015773 Ry
     ewald contribution        =       1.16128158 Ry
     smearing contrib. (-TS)   =       0.00407746 Ry

     convergence has been achieved in  13 iterations

     Writing output data file pwscf.save
 
     init_run     :      1.25s CPU      1.37s WALL (       1 calls)
     electrons    :      8.66s CPU      9.42s WALL (       1 calls)

     Called by init_run:
     wfcinit      :      0.13s CPU      0.18s WALL (       1 calls)
     potinit      :      0.21s CPU      0.22s WALL (       1 calls)

     Called by electrons:
     c_bands      :      3.61s CPU      3.64s WALL (      13 calls)
     sum_band     :      1.87s CPU      1.91s WALL (      13 calls)
     v_of_rho     :      1.75s CPU      1.77s WALL (      14 calls)
     newd         :      0.70s CPU      0.73s WALL (      14 calls)
     mix_rho      :      0.74s CPU      1.27s WALL (      13 calls)

     Called by c_bands:
     init_us_2    :      0.05s CPU      0.06s WALL (      27 calls)
     cegterg      :      3.55s CPU      3.58s WALL (      13 calls)

     Called by sum_band:
     sum_band:bec :      0.00s CPU      0.00s WALL (      13 calls)
     addusdens    :      0.93s CPU      0.95s WALL (      13 calls)

     Called by *egterg:
     h_psi        :      3.36s CPU      3.40s WALL (      80 calls)
     s_psi        :      0.02s CPU      0.02s WALL (      80 calls)
     g_psi        :      0.01s CPU      0.01s WALL (      66 calls)
     cdiaghg      :      0.02s CPU      0.02s WALL (      79 calls)

     Called by h_psi:
     h_psi:pot    :      3.35s CPU      3.38s WALL (      80 calls)
     h_psi:calbec :      0.07s CPU      0.07s WALL (      80 calls)
     vloc_psi     :      3.26s CPU      3.29s WALL (      80 calls)
     add_vuspsi   :      0.02s CPU      0.02s WALL (      80 calls)

     General routines
     calbec       :      0.08s CPU      0.08s WALL (      93 calls)
     fft          :      1.77s CPU      1.79s WALL (     181 calls)
     fftw         :      3.31s CPU      3.35s WALL (     710 calls)
     davcio       :      0.07s CPU      0.55s WALL (     167 calls)
 
     Parallel routines
     fft_scatt_xy :      0.53s CPU      0.53s WALL (     891 calls)
     fft_scatt_yz :      1.23s CPU      1.26s WALL (     891 calls)
 
     PWSCF        :    10.60s CPU        11.73s WALL

 
   This run was terminated on:   5:34:42  12May2018            

=------------------------------------------------------------------------------=
   JOB DONE.
=------------------------------------------------------------------------------=
