
     Program PWSCF v.6.2 (svn rev. 14038) starts on 12May2018 at  5:34:42 

     This program is part of the open-source Quantum ESPRESSO suite
     for quantum simulation of materials; please cite
         "P. Giannozzi et al., J. Phys.:Condens. Matter 21 395502 (2009);
         "P. Giannozzi et al., J. Phys.:Condens. Matter 29 465901 (2017);
          URL http://www.quantum-espresso.org", 
     in publications or presentations arising from this work. More details at
     http://www.quantum-espresso.org/quote

     Parallel version (MPI), running on    28 processors

     MPI processes distributed on     1 nodes
     R & G space division:  proc/nbgrp/npool/nimage =      28
     Reading input from ../ecut120/14500.in
Warning: card &IONS ignored
Warning: card     POT_EXTRAPOLATION='SECOND-ORDER' ignored
Warning: card     WFC_EXTRAPOLATION='SECOND-ORDER' ignored
Warning: card     ION_TEMPERATURE = 'ANDERSEN' ignored
Warning: card / ignored

     Current dimensions of program PWSCF are:
     Max number of different atomic species (ntypx) = 10
     Max number of k-points (npk) =  40000
     Max angular momentum in pseudopotentials (lmaxx) =  3

     Subspace diagonalization in iterative solution of the eigenvalue problem:
     a serial algorithm will be used

 
     Parallelization info
     --------------------
     sticks:   dense  smooth     PW     G-vecs:    dense   smooth      PW
     Min         545     545    136                50739    50739    6338
     Max         546     546    137                50746    50746    6341
     Sum       15273   15273   3809              1420755  1420755  177509
 


     bravais-lattice index     =            1
     lattice parameter (alat)  =      20.0000  a.u.
     unit-cell volume          =    8000.0000 (a.u.)^3
     number of atoms/cell      =            3
     number of atomic types    =            2
     number of electrons       =         8.00
     number of Kohn-Sham states=            8
     kinetic-energy cutoff     =     120.0000  Ry
     charge density cutoff     =     480.0000  Ry
     convergence threshold     =      1.0E-08
     mixing beta               =       0.7000
     number of iterations used =            8  plain     mixing
     Exchange-correlation      = PBE ( 1  4  3  4 0 0)

     celldm(1)=  20.000000  celldm(2)=   0.000000  celldm(3)=   0.000000
     celldm(4)=   0.000000  celldm(5)=   0.000000  celldm(6)=   0.000000

     crystal axes: (cart. coord. in units of alat)
               a(1) = (   1.000000   0.000000   0.000000 )  
               a(2) = (   0.000000   1.000000   0.000000 )  
               a(3) = (   0.000000   0.000000   1.000000 )  

     reciprocal axes: (cart. coord. in units 2 pi/alat)
               b(1) = (  1.000000  0.000000  0.000000 )  
               b(2) = (  0.000000  1.000000  0.000000 )  
               b(3) = (  0.000000  0.000000  1.000000 )  


     PseudoPot. # 1 for H  read from file:
     ../pslibrary/pbe/PSEUDOPOTENTIALS/H.pbe-rrkjus_psl.1.0.0.UPF
     MD5 check sum: b2b1ff84b4ceabe23335d1bf25025923
     Pseudo is Ultrasoft, Zval =  1.0
     Generated using "atomic" code by A. Dal Corso v.6.2 svn rev. 14038
     Using radial grid of  929 points,  2 beta functions with: 
                l(1) =   0
                l(2) =   0
     Q(r) pseudized with 0 coefficients 


     PseudoPot. # 2 for O  read from file:
     ../pslibrary/pbe/PSEUDOPOTENTIALS/O.pbe-n-rrkjus_psl.1.0.0.UPF
     MD5 check sum: 61455b21a47f6823f888c3bfb9bd1235
     Pseudo is Ultrasoft + core correction, Zval =  6.0
     Generated using "atomic" code by A. Dal Corso v.6.2 svn rev. 14038
     Using radial grid of 1095 points,  4 beta functions with: 
                l(1) =   0
                l(2) =   0
                l(3) =   1
                l(4) =   1
     Q(r) pseudized with 0 coefficients 


     atomic species   valence    mass     pseudopotential
        H              1.00     1.01000     H ( 1.00)
        O              6.00    16.00000     O ( 1.00)

     No symmetry found



   Cartesian axes

     site n.     atom                  positions (alat units)
         1           O   tau(   1) = (  -0.0003056  -0.0048671   0.0144255  )
         2           H   tau(   2) = (   0.0578319   0.0438032  -0.0616627  )
         3           H   tau(   3) = (  -0.0529908   0.0332993  -0.0784969  )

     number of k points=     1  Marzari-Vanderbilt smearing, width (Ry)=  0.0250
                       cart. coord. in units 2pi/alat
        k(    1) = (   0.0000000   0.0000000   0.0000000), wk =   2.0000000

     Dense  grid:  1420755 G-vectors     FFT dimensions: ( 144, 144, 144)

     Estimated max dynamical RAM per process >      58.78 MB

     Estimated total dynamical RAM >       1.61 GB

     Initial potential from superposition of free atoms
     Check: negative starting charge=   -0.000759

     starting charge    7.99998, renormalised to    8.00000

     negative rho (up, down):  7.591E-04 0.000E+00
     Starting wfc are    6 randomized atomic wfcs +    2 random wfc

     total cpu time spent up to now is        2.0 secs

     Self-consistent Calculation

     iteration #  1     ecut=   120.00 Ry     beta= 0.70
     Davidson diagonalization with overlap
     ethr =  1.00E-02,  avg # of iterations =  7.0

     negative rho (up, down):  1.118E-03 0.000E+00

     total cpu time spent up to now is        2.8 secs

     total energy              =     -34.44509934 Ry
     Harris-Foulkes estimate   =     -34.73787060 Ry
     estimated scf accuracy    <       0.39598433 Ry

     iteration #  2     ecut=   120.00 Ry     beta= 0.70
     Davidson diagonalization with overlap
     ethr =  4.95E-03,  avg # of iterations =  3.0

     negative rho (up, down):  8.455E-04 0.000E+00

     total cpu time spent up to now is        3.5 secs

     total energy              =     -34.43966729 Ry
     Harris-Foulkes estimate   =     -34.82525222 Ry
     estimated scf accuracy    <       0.96244338 Ry

     iteration #  3     ecut=   120.00 Ry     beta= 0.70
     Davidson diagonalization with overlap
     ethr =  4.95E-03,  avg # of iterations =  3.0

     negative rho (up, down):  7.417E-04 0.000E+00

     total cpu time spent up to now is        4.1 secs

     total energy              =     -34.58767286 Ry
     Harris-Foulkes estimate   =     -34.59324851 Ry
     estimated scf accuracy    <       0.01782108 Ry

     iteration #  4     ecut=   120.00 Ry     beta= 0.70
     Davidson diagonalization with overlap
     ethr =  2.23E-04,  avg # of iterations =  4.0

     negative rho (up, down):  8.767E-04 0.000E+00

     total cpu time spent up to now is        4.8 secs

     total energy              =     -34.63334772 Ry
     Harris-Foulkes estimate   =     -34.63955082 Ry
     estimated scf accuracy    <       0.02579515 Ry

     iteration #  5     ecut=   120.00 Ry     beta= 0.70
     Davidson diagonalization with overlap
     ethr =  2.23E-04,  avg # of iterations =  1.0

     negative rho (up, down):  9.152E-04 0.000E+00

     total cpu time spent up to now is        5.4 secs

     total energy              =     -34.63198519 Ry
     Harris-Foulkes estimate   =     -34.63396128 Ry
     estimated scf accuracy    <       0.01033783 Ry

     iteration #  6     ecut=   120.00 Ry     beta= 0.70
     Davidson diagonalization with overlap
     ethr =  1.29E-04,  avg # of iterations =  1.0

     negative rho (up, down):  9.232E-04 0.000E+00

     total cpu time spent up to now is        6.0 secs

     total energy              =     -34.63238649 Ry
     Harris-Foulkes estimate   =     -34.63252312 Ry
     estimated scf accuracy    <       0.00408126 Ry

     iteration #  7     ecut=   120.00 Ry     beta= 0.70
     Davidson diagonalization with overlap
     ethr =  5.10E-05,  avg # of iterations = 14.0

     negative rho (up, down):  9.165E-04 0.000E+00

     total cpu time spent up to now is        7.0 secs

     total energy              =     -34.63296731 Ry
     Harris-Foulkes estimate   =     -34.63296451 Ry
     estimated scf accuracy    <       0.00145407 Ry

     iteration #  8     ecut=   120.00 Ry     beta= 0.70
     Davidson diagonalization with overlap
     ethr =  1.82E-05,  avg # of iterations =  1.0

     negative rho (up, down):  9.696E-04 0.000E+00

     total cpu time spent up to now is        7.7 secs

     total energy              =     -34.63281946 Ry
     Harris-Foulkes estimate   =     -34.63298618 Ry
     estimated scf accuracy    <       0.00139375 Ry

     iteration #  9     ecut=   120.00 Ry     beta= 0.70
     Davidson diagonalization with overlap
     ethr =  1.74E-05,  avg # of iterations =  1.0

     negative rho (up, down):  1.070E-03 0.000E+00

     total cpu time spent up to now is        8.3 secs

     total energy              =     -34.63262698 Ry
     Harris-Foulkes estimate   =     -34.63283828 Ry
     estimated scf accuracy    <       0.00080458 Ry

     iteration # 10     ecut=   120.00 Ry     beta= 0.70
     Davidson diagonalization with overlap
     ethr =  1.01E-05,  avg # of iterations =  3.0

     negative rho (up, down):  1.067E-03 0.000E+00

     total cpu time spent up to now is        9.0 secs

     total energy              =     -34.63270001 Ry
     Harris-Foulkes estimate   =     -34.63269654 Ry
     estimated scf accuracy    <       0.00010820 Ry

     iteration # 11     ecut=   120.00 Ry     beta= 0.70
     Davidson diagonalization with overlap
     ethr =  1.35E-06,  avg # of iterations =  9.0

     negative rho (up, down):  1.071E-03 0.000E+00

     total cpu time spent up to now is        9.8 secs

     total energy              =     -34.63271390 Ry
     Harris-Foulkes estimate   =     -34.63270475 Ry
     estimated scf accuracy    <       0.00011559 Ry

     iteration # 12     ecut=   120.00 Ry     beta= 0.70
     Davidson diagonalization with overlap
     ethr =  1.35E-06,  avg # of iterations =  1.0

     negative rho (up, down):  1.103E-03 0.000E+00

     total cpu time spent up to now is       10.4 secs

     total energy              =     -34.63272347 Ry
     Harris-Foulkes estimate   =     -34.63271658 Ry
     estimated scf accuracy    <       0.00014088 Ry

     iteration # 13     ecut=   120.00 Ry     beta= 0.70
     Davidson diagonalization with overlap
     ethr =  1.35E-06,  avg # of iterations =  1.0

     negative rho (up, down):  1.099E-03 0.000E+00

     total cpu time spent up to now is       11.0 secs

     total energy              =     -34.63271706 Ry
     Harris-Foulkes estimate   =     -34.63272644 Ry
     estimated scf accuracy    <       0.00017078 Ry

     iteration # 14     ecut=   120.00 Ry     beta= 0.70
     Davidson diagonalization with overlap
     ethr =  1.35E-06,  avg # of iterations =  1.0

     negative rho (up, down):  1.103E-03 0.000E+00

     total cpu time spent up to now is       11.7 secs

     total energy              =     -34.63271669 Ry
     Harris-Foulkes estimate   =     -34.63271793 Ry
     estimated scf accuracy    <       0.00014117 Ry

     iteration # 15     ecut=   120.00 Ry     beta= 0.70
     Davidson diagonalization with overlap
     ethr =  1.35E-06,  avg # of iterations =  1.0

     negative rho (up, down):  1.108E-03 0.000E+00

     total cpu time spent up to now is       12.3 secs

     total energy              =     -34.63268498 Ry
     Harris-Foulkes estimate   =     -34.63271749 Ry
     estimated scf accuracy    <       0.00014666 Ry

     iteration # 16     ecut=   120.00 Ry     beta= 0.70
     Davidson diagonalization with overlap
     ethr =  1.35E-06,  avg # of iterations =  1.0

     negative rho (up, down):  1.093E-03 0.000E+00

     total cpu time spent up to now is       13.0 secs

     total energy              =     -34.63266575 Ry
     Harris-Foulkes estimate   =     -34.63268858 Ry
     estimated scf accuracy    <       0.00007863 Ry

     iteration # 17     ecut=   120.00 Ry     beta= 0.70
     Davidson diagonalization with overlap
     ethr =  9.83E-07,  avg # of iterations =  1.0

     negative rho (up, down):  1.091E-03 0.000E+00

     total cpu time spent up to now is       13.6 secs

     total energy              =     -34.63267140 Ry
     Harris-Foulkes estimate   =     -34.63267367 Ry
     estimated scf accuracy    <       0.00000682 Ry

     iteration # 18     ecut=   120.00 Ry     beta= 0.70
     Davidson diagonalization with overlap
     ethr =  8.53E-08,  avg # of iterations =  4.0

     negative rho (up, down):  1.092E-03 0.000E+00

     total cpu time spent up to now is       14.4 secs

     total energy              =     -34.63268120 Ry
     Harris-Foulkes estimate   =     -34.63268281 Ry
     estimated scf accuracy    <       0.00000619 Ry

     iteration # 19     ecut=   120.00 Ry     beta= 0.70
     Davidson diagonalization with overlap
     ethr =  7.73E-08,  avg # of iterations =  1.0

     negative rho (up, down):  1.095E-03 0.000E+00

     total cpu time spent up to now is       15.0 secs

     total energy              =     -34.63268051 Ry
     Harris-Foulkes estimate   =     -34.63268137 Ry
     estimated scf accuracy    <       0.00000228 Ry

     iteration # 20     ecut=   120.00 Ry     beta= 0.70
     Davidson diagonalization with overlap
     ethr =  2.85E-08,  avg # of iterations =  3.0

     negative rho (up, down):  1.095E-03 0.000E+00

     total cpu time spent up to now is       15.8 secs

     total energy              =     -34.63268126 Ry
     Harris-Foulkes estimate   =     -34.63268129 Ry
     estimated scf accuracy    <       0.00000015 Ry

     iteration # 21     ecut=   120.00 Ry     beta= 0.70
     Davidson diagonalization with overlap
     ethr =  1.82E-09,  avg # of iterations =  1.0

     negative rho (up, down):  1.094E-03 0.000E+00

     total cpu time spent up to now is       16.4 secs

     total energy              =     -34.63268125 Ry
     Harris-Foulkes estimate   =     -34.63268127 Ry
     estimated scf accuracy    <       0.00000005 Ry

     iteration # 22     ecut=   120.00 Ry     beta= 0.70
     Davidson diagonalization with overlap
     ethr =  6.87E-10,  avg # of iterations =  2.0

     negative rho (up, down):  1.094E-03 0.000E+00

     total cpu time spent up to now is       17.0 secs

     End of self-consistent calculation

          k = 0.0000 0.0000 0.0000 (177509 PWs)   bands (ev):

   -24.1451 -11.3349  -9.4283  -7.0245  -2.2826  -0.0619   0.1106   0.8614

     the Fermi energy is    -5.0501 ev

!    total energy              =     -34.63268126 Ry
     Harris-Foulkes estimate   =     -34.63268126 Ry
     estimated scf accuracy    <          8.9E-10 Ry

     The total energy is the sum of the following terms:

     one-electron contribution =     -60.60725253 Ry
     hartree contribution      =      31.81342434 Ry
     xc contribution           =      -8.55612663 Ry
     ewald contribution        =       2.71727356 Ry
     smearing contrib. (-TS)   =       0.00000000 Ry

     convergence has been achieved in  22 iterations

     Writing output data file pwscf.save
 
     init_run     :      1.10s CPU      1.19s WALL (       1 calls)
     electrons    :     13.75s CPU     15.16s WALL (       1 calls)

     Called by init_run:
     wfcinit      :      0.10s CPU      0.13s WALL (       1 calls)
     potinit      :      0.21s CPU      0.22s WALL (       1 calls)

     Called by electrons:
     c_bands      :      5.26s CPU      5.34s WALL (      22 calls)
     sum_band     :      3.20s CPU      3.25s WALL (      22 calls)
     v_of_rho     :      2.75s CPU      2.79s WALL (      23 calls)
     newd         :      1.19s CPU      1.21s WALL (      23 calls)
     mix_rho      :      1.35s CPU      2.42s WALL (      22 calls)

     Called by c_bands:
     init_us_2    :      0.09s CPU      0.10s WALL (      45 calls)
     cegterg      :      5.16s CPU      5.23s WALL (      22 calls)

     Called by sum_band:
     sum_band:bec :      0.00s CPU      0.00s WALL (      22 calls)
     addusdens    :      1.59s CPU      1.61s WALL (      22 calls)

     Called by *egterg:
     h_psi        :      4.89s CPU      4.94s WALL (      87 calls)
     s_psi        :      0.03s CPU      0.03s WALL (      87 calls)
     g_psi        :      0.01s CPU      0.01s WALL (      64 calls)
     cdiaghg      :      0.02s CPU      0.02s WALL (      86 calls)

     Called by h_psi:
     h_psi:pot    :      4.87s CPU      4.91s WALL (      87 calls)
     h_psi:calbec :      0.08s CPU      0.09s WALL (      87 calls)
     vloc_psi     :      4.76s CPU      4.80s WALL (      87 calls)
     add_vuspsi   :      0.02s CPU      0.03s WALL (      87 calls)

     General routines
     calbec       :      0.10s CPU      0.10s WALL (     109 calls)
     fft          :      2.82s CPU      2.85s WALL (     298 calls)
     fftw         :      4.87s CPU      4.92s WALL (    1046 calls)
     davcio       :      0.18s CPU      1.17s WALL (     347 calls)
 
     Parallel routines
     fft_scatt_xy :      0.80s CPU      0.80s WALL (    1344 calls)
     fft_scatt_yz :      1.78s CPU      1.80s WALL (    1344 calls)
 
     PWSCF        :    15.70s CPU        17.56s WALL

 
   This run was terminated on:   5:35: 0  12May2018            

=------------------------------------------------------------------------------=
   JOB DONE.
=------------------------------------------------------------------------------=
