
     Program PWSCF v.6.2 (svn rev. 14038) starts on 12May2018 at  5:35:38 

     This program is part of the open-source Quantum ESPRESSO suite
     for quantum simulation of materials; please cite
         "P. Giannozzi et al., J. Phys.:Condens. Matter 21 395502 (2009);
         "P. Giannozzi et al., J. Phys.:Condens. Matter 29 465901 (2017);
          URL http://www.quantum-espresso.org", 
     in publications or presentations arising from this work. More details at
     http://www.quantum-espresso.org/quote

     Parallel version (MPI), running on    28 processors

     MPI processes distributed on     1 nodes
     R & G space division:  proc/nbgrp/npool/nimage =      28
     Reading input from ../ecut120/16000.in
Warning: card &IONS ignored
Warning: card     POT_EXTRAPOLATION='SECOND-ORDER' ignored
Warning: card     WFC_EXTRAPOLATION='SECOND-ORDER' ignored
Warning: card     ION_TEMPERATURE = 'ANDERSEN' ignored
Warning: card / ignored

     Current dimensions of program PWSCF are:
     Max number of different atomic species (ntypx) = 10
     Max number of k-points (npk) =  40000
     Max angular momentum in pseudopotentials (lmaxx) =  3

     Subspace diagonalization in iterative solution of the eigenvalue problem:
     a serial algorithm will be used

 
     Parallelization info
     --------------------
     sticks:   dense  smooth     PW     G-vecs:    dense   smooth      PW
     Min         545     545    136                50739    50739    6338
     Max         546     546    137                50746    50746    6341
     Sum       15273   15273   3809              1420755  1420755  177509
 


     bravais-lattice index     =            1
     lattice parameter (alat)  =      20.0000  a.u.
     unit-cell volume          =    8000.0000 (a.u.)^3
     number of atoms/cell      =            3
     number of atomic types    =            2
     number of electrons       =         8.00
     number of Kohn-Sham states=            8
     kinetic-energy cutoff     =     120.0000  Ry
     charge density cutoff     =     480.0000  Ry
     convergence threshold     =      1.0E-08
     mixing beta               =       0.7000
     number of iterations used =            8  plain     mixing
     Exchange-correlation      = PBE ( 1  4  3  4 0 0)

     celldm(1)=  20.000000  celldm(2)=   0.000000  celldm(3)=   0.000000
     celldm(4)=   0.000000  celldm(5)=   0.000000  celldm(6)=   0.000000

     crystal axes: (cart. coord. in units of alat)
               a(1) = (   1.000000   0.000000   0.000000 )  
               a(2) = (   0.000000   1.000000   0.000000 )  
               a(3) = (   0.000000   0.000000   1.000000 )  

     reciprocal axes: (cart. coord. in units 2 pi/alat)
               b(1) = (  1.000000  0.000000  0.000000 )  
               b(2) = (  0.000000  1.000000  0.000000 )  
               b(3) = (  0.000000  0.000000  1.000000 )  


     PseudoPot. # 1 for H  read from file:
     ../pslibrary/pbe/PSEUDOPOTENTIALS/H.pbe-rrkjus_psl.1.0.0.UPF
     MD5 check sum: b2b1ff84b4ceabe23335d1bf25025923
     Pseudo is Ultrasoft, Zval =  1.0
     Generated using "atomic" code by A. Dal Corso v.6.2 svn rev. 14038
     Using radial grid of  929 points,  2 beta functions with: 
                l(1) =   0
                l(2) =   0
     Q(r) pseudized with 0 coefficients 


     PseudoPot. # 2 for O  read from file:
     ../pslibrary/pbe/PSEUDOPOTENTIALS/O.pbe-n-rrkjus_psl.1.0.0.UPF
     MD5 check sum: 61455b21a47f6823f888c3bfb9bd1235
     Pseudo is Ultrasoft + core correction, Zval =  6.0
     Generated using "atomic" code by A. Dal Corso v.6.2 svn rev. 14038
     Using radial grid of 1095 points,  4 beta functions with: 
                l(1) =   0
                l(2) =   0
                l(3) =   1
                l(4) =   1
     Q(r) pseudized with 0 coefficients 


     atomic species   valence    mass     pseudopotential
        H              1.00     1.01000     H ( 1.00)
        O              6.00    16.00000     O ( 1.00)

     No symmetry found



   Cartesian axes

     site n.     atom                  positions (alat units)
         1           O   tau(   1) = (  -0.0040208  -0.0097288   0.0055931  )
         2           H   tau(   2) = (  -0.0252565   0.1165225   0.0567062  )
         3           H   tau(   3) = (   0.0889514   0.0375970  -0.0569466  )

     number of k points=     1  Marzari-Vanderbilt smearing, width (Ry)=  0.0250
                       cart. coord. in units 2pi/alat
        k(    1) = (   0.0000000   0.0000000   0.0000000), wk =   2.0000000

     Dense  grid:  1420755 G-vectors     FFT dimensions: ( 144, 144, 144)

     Estimated max dynamical RAM per process >      58.78 MB

     Estimated total dynamical RAM >       1.61 GB

     Initial potential from superposition of free atoms
     Check: negative starting charge=   -0.000719

     starting charge    7.99998, renormalised to    8.00000

     negative rho (up, down):  7.191E-04 0.000E+00
     Starting wfc are    6 randomized atomic wfcs +    2 random wfc

     total cpu time spent up to now is        2.2 secs

     Self-consistent Calculation

     iteration #  1     ecut=   120.00 Ry     beta= 0.70
     Davidson diagonalization with overlap
     ethr =  1.00E-02,  avg # of iterations =  7.0

     negative rho (up, down):  1.044E-03 0.000E+00

     total cpu time spent up to now is        2.9 secs

     total energy              =     -34.29496335 Ry
     Harris-Foulkes estimate   =     -34.62659348 Ry
     estimated scf accuracy    <       0.44352503 Ry

     iteration #  2     ecut=   120.00 Ry     beta= 0.70
     Davidson diagonalization with overlap
     ethr =  5.54E-03,  avg # of iterations =  3.0

     negative rho (up, down):  7.532E-04 0.000E+00

     total cpu time spent up to now is        3.7 secs

     total energy              =     -34.20314093 Ry
     Harris-Foulkes estimate   =     -34.90160043 Ry
     estimated scf accuracy    <       2.12721733 Ry

     iteration #  3     ecut=   120.00 Ry     beta= 0.70
     Davidson diagonalization with overlap
     ethr =  5.54E-03,  avg # of iterations =  3.0

     negative rho (up, down):  5.051E-04 0.000E+00

     total cpu time spent up to now is        4.4 secs

     total energy              =     -34.44930889 Ry
     Harris-Foulkes estimate   =     -34.46029059 Ry
     estimated scf accuracy    <       0.04257301 Ry

     iteration #  4     ecut=   120.00 Ry     beta= 0.70
     Davidson diagonalization with overlap
     ethr =  5.32E-04,  avg # of iterations =  4.0

     negative rho (up, down):  6.049E-04 0.000E+00

     total cpu time spent up to now is        5.0 secs

     total energy              =     -34.52756102 Ry
     Harris-Foulkes estimate   =     -34.53563543 Ry
     estimated scf accuracy    <       0.04141488 Ry

     iteration #  5     ecut=   120.00 Ry     beta= 0.70
     Davidson diagonalization with overlap
     ethr =  5.18E-04,  avg # of iterations =  1.0

     negative rho (up, down):  6.739E-04 0.000E+00

     total cpu time spent up to now is        5.6 secs

     total energy              =     -34.52658678 Ry
     Harris-Foulkes estimate   =     -34.52870248 Ry
     estimated scf accuracy    <       0.01511826 Ry

     iteration #  6     ecut=   120.00 Ry     beta= 0.70
     Davidson diagonalization with overlap
     ethr =  1.89E-04,  avg # of iterations =  1.0

     negative rho (up, down):  7.187E-04 0.000E+00

     total cpu time spent up to now is        6.3 secs

     total energy              =     -34.52608337 Ry
     Harris-Foulkes estimate   =     -34.52696754 Ry
     estimated scf accuracy    <       0.00792317 Ry

     iteration #  7     ecut=   120.00 Ry     beta= 0.70
     Davidson diagonalization with overlap
     ethr =  9.90E-05,  avg # of iterations =  8.0

     negative rho (up, down):  7.983E-04 0.000E+00

     total cpu time spent up to now is        7.0 secs

     total energy              =     -34.52988668 Ry
     Harris-Foulkes estimate   =     -34.53057643 Ry
     estimated scf accuracy    <       0.00357671 Ry

     iteration #  8     ecut=   120.00 Ry     beta= 0.70
     Davidson diagonalization with overlap
     ethr =  4.47E-05,  avg # of iterations =  4.0

     negative rho (up, down):  8.343E-04 0.000E+00

     total cpu time spent up to now is        7.7 secs

     total energy              =     -34.53068783 Ry
     Harris-Foulkes estimate   =     -34.53069175 Ry
     estimated scf accuracy    <       0.00019338 Ry

     iteration #  9     ecut=   120.00 Ry     beta= 0.70
     Davidson diagonalization with overlap
     ethr =  2.42E-06,  avg # of iterations =  2.0

     negative rho (up, down):  9.712E-04 0.000E+00

     total cpu time spent up to now is        8.4 secs

     total energy              =     -34.53066312 Ry
     Harris-Foulkes estimate   =     -34.53069343 Ry
     estimated scf accuracy    <       0.00016179 Ry

     iteration # 10     ecut=   120.00 Ry     beta= 0.70
     Davidson diagonalization with overlap
     ethr =  2.02E-06,  avg # of iterations =  9.0

     negative rho (up, down):  9.881E-04 0.000E+00

     total cpu time spent up to now is        9.1 secs

     total energy              =     -34.53067403 Ry
     Harris-Foulkes estimate   =     -34.53067295 Ry
     estimated scf accuracy    <       0.00002743 Ry

     iteration # 11     ecut=   120.00 Ry     beta= 0.70
     Davidson diagonalization with overlap
     ethr =  3.43E-07,  avg # of iterations =  3.0

     negative rho (up, down):  1.002E-03 0.000E+00

     total cpu time spent up to now is        9.8 secs

     total energy              =     -34.53067710 Ry
     Harris-Foulkes estimate   =     -34.53067836 Ry
     estimated scf accuracy    <       0.00002418 Ry

     iteration # 12     ecut=   120.00 Ry     beta= 0.70
     Davidson diagonalization with overlap
     ethr =  3.02E-07,  avg # of iterations =  1.0

     negative rho (up, down):  1.013E-03 0.000E+00

     total cpu time spent up to now is       10.5 secs

     total energy              =     -34.53067281 Ry
     Harris-Foulkes estimate   =     -34.53067729 Ry
     estimated scf accuracy    <       0.00001753 Ry

     iteration # 13     ecut=   120.00 Ry     beta= 0.70
     Davidson diagonalization with overlap
     ethr =  2.19E-07,  avg # of iterations =  2.0

     negative rho (up, down):  1.011E-03 0.000E+00

     total cpu time spent up to now is       11.2 secs

     total energy              =     -34.53067468 Ry
     Harris-Foulkes estimate   =     -34.53067486 Ry
     estimated scf accuracy    <       0.00000096 Ry

     iteration # 14     ecut=   120.00 Ry     beta= 0.70
     Davidson diagonalization with overlap
     ethr =  1.20E-08,  avg # of iterations =  2.0

     negative rho (up, down):  1.009E-03 0.000E+00

     total cpu time spent up to now is       11.9 secs

     total energy              =     -34.53067473 Ry
     Harris-Foulkes estimate   =     -34.53067478 Ry
     estimated scf accuracy    <       0.00000027 Ry

     iteration # 15     ecut=   120.00 Ry     beta= 0.70
     Davidson diagonalization with overlap
     ethr =  3.32E-09,  avg # of iterations =  2.0

     negative rho (up, down):  1.006E-03 0.000E+00

     total cpu time spent up to now is       12.6 secs

     total energy              =     -34.53067479 Ry
     Harris-Foulkes estimate   =     -34.53067478 Ry
     estimated scf accuracy    <       0.00000003 Ry

     iteration # 16     ecut=   120.00 Ry     beta= 0.70
     Davidson diagonalization with overlap
     ethr =  4.29E-10,  avg # of iterations =  3.0

     negative rho (up, down):  1.006E-03 0.000E+00

     total cpu time spent up to now is       13.4 secs

     total energy              =     -34.53067477 Ry
     Harris-Foulkes estimate   =     -34.53067483 Ry
     estimated scf accuracy    <       0.00000018 Ry

     iteration # 17     ecut=   120.00 Ry     beta= 0.70
     Davidson diagonalization with overlap
     ethr =  4.29E-10,  avg # of iterations =  4.0

     negative rho (up, down):  1.006E-03 0.000E+00

     total cpu time spent up to now is       14.0 secs

     End of self-consistent calculation

          k = 0.0000 0.0000 0.0000 (177509 PWs)   bands (ev):

   -22.6681  -9.8390  -9.3712  -6.6826  -3.1927  -1.5252  -0.0500   0.8704

     the Fermi energy is    -4.6741 ev

!    total energy              =     -34.53067479 Ry
     Harris-Foulkes estimate   =     -34.53067479 Ry
     estimated scf accuracy    <          1.6E-09 Ry

     The total energy is the sum of the following terms:

     one-electron contribution =     -57.24107678 Ry
     hartree contribution      =      30.23174255 Ry
     xc contribution           =      -8.33378607 Ry
     ewald contribution        =       0.81244550 Ry
     smearing contrib. (-TS)   =      -0.00000000 Ry

     convergence has been achieved in  17 iterations

     Writing output data file pwscf.save
 
     init_run     :      1.07s CPU      1.29s WALL (       1 calls)
     electrons    :     10.73s CPU     11.92s WALL (       1 calls)

     Called by init_run:
     wfcinit      :      0.13s CPU      0.15s WALL (       1 calls)
     potinit      :      0.21s CPU      0.22s WALL (       1 calls)

     Called by electrons:
     c_bands      :      4.12s CPU      4.18s WALL (      17 calls)
     sum_band     :      2.42s CPU      2.51s WALL (      17 calls)
     v_of_rho     :      2.27s CPU      2.31s WALL (      18 calls)
     newd         :      0.95s CPU      0.96s WALL (      18 calls)
     mix_rho      :      0.99s CPU      1.86s WALL (      17 calls)

     Called by c_bands:
     init_us_2    :      0.07s CPU      0.08s WALL (      35 calls)
     cegterg      :      4.05s CPU      4.09s WALL (      17 calls)

     Called by sum_band:
     sum_band:bec :      0.00s CPU      0.00s WALL (      17 calls)
     addusdens    :      1.20s CPU      1.26s WALL (      17 calls)

     Called by *egterg:
     h_psi        :      3.87s CPU      3.91s WALL (      77 calls)
     s_psi        :      0.02s CPU      0.02s WALL (      77 calls)
     g_psi        :      0.01s CPU      0.01s WALL (      59 calls)
     cdiaghg      :      0.02s CPU      0.02s WALL (      76 calls)

     Called by h_psi:
     h_psi:pot    :      3.86s CPU      3.89s WALL (      77 calls)
     h_psi:calbec :      0.06s CPU      0.06s WALL (      77 calls)
     vloc_psi     :      3.78s CPU      3.81s WALL (      77 calls)
     add_vuspsi   :      0.02s CPU      0.02s WALL (      77 calls)

     General routines
     calbec       :      0.08s CPU      0.08s WALL (      94 calls)
     fft          :      2.25s CPU      2.31s WALL (     233 calls)
     fftw         :      3.94s CPU      3.98s WALL (     838 calls)
     davcio       :      0.11s CPU      0.85s WALL (     247 calls)
 
     Parallel routines
     fft_scatt_xy :      0.66s CPU      0.66s WALL (    1071 calls)
     fft_scatt_yz :      1.46s CPU      1.52s WALL (    1071 calls)
 
     PWSCF        :    12.52s CPU        14.37s WALL

 
   This run was terminated on:   5:35:53  12May2018            

=------------------------------------------------------------------------------=
   JOB DONE.
=------------------------------------------------------------------------------=
