
     Program PWSCF v.6.2 (svn rev. 14038) starts on 12May2018 at  5:30:24 

     This program is part of the open-source Quantum ESPRESSO suite
     for quantum simulation of materials; please cite
         "P. Giannozzi et al., J. Phys.:Condens. Matter 21 395502 (2009);
         "P. Giannozzi et al., J. Phys.:Condens. Matter 29 465901 (2017);
          URL http://www.quantum-espresso.org", 
     in publications or presentations arising from this work. More details at
     http://www.quantum-espresso.org/quote

     Parallel version (MPI), running on    28 processors

     MPI processes distributed on     1 nodes
     R & G space division:  proc/nbgrp/npool/nimage =      28
     Reading input from ../ecut120/7500.in
Warning: card &IONS ignored
Warning: card     POT_EXTRAPOLATION='SECOND-ORDER' ignored
Warning: card     WFC_EXTRAPOLATION='SECOND-ORDER' ignored
Warning: card     ION_TEMPERATURE = 'ANDERSEN' ignored
Warning: card / ignored

     Current dimensions of program PWSCF are:
     Max number of different atomic species (ntypx) = 10
     Max number of k-points (npk) =  40000
     Max angular momentum in pseudopotentials (lmaxx) =  3

     Subspace diagonalization in iterative solution of the eigenvalue problem:
     a serial algorithm will be used

 
     Parallelization info
     --------------------
     sticks:   dense  smooth     PW     G-vecs:    dense   smooth      PW
     Min         545     545    136                50739    50739    6338
     Max         546     546    137                50746    50746    6341
     Sum       15273   15273   3809              1420755  1420755  177509
 


     bravais-lattice index     =            1
     lattice parameter (alat)  =      20.0000  a.u.
     unit-cell volume          =    8000.0000 (a.u.)^3
     number of atoms/cell      =            3
     number of atomic types    =            2
     number of electrons       =         8.00
     number of Kohn-Sham states=            8
     kinetic-energy cutoff     =     120.0000  Ry
     charge density cutoff     =     480.0000  Ry
     convergence threshold     =      1.0E-08
     mixing beta               =       0.7000
     number of iterations used =            8  plain     mixing
     Exchange-correlation      = PBE ( 1  4  3  4 0 0)

     celldm(1)=  20.000000  celldm(2)=   0.000000  celldm(3)=   0.000000
     celldm(4)=   0.000000  celldm(5)=   0.000000  celldm(6)=   0.000000

     crystal axes: (cart. coord. in units of alat)
               a(1) = (   1.000000   0.000000   0.000000 )  
               a(2) = (   0.000000   1.000000   0.000000 )  
               a(3) = (   0.000000   0.000000   1.000000 )  

     reciprocal axes: (cart. coord. in units 2 pi/alat)
               b(1) = (  1.000000  0.000000  0.000000 )  
               b(2) = (  0.000000  1.000000  0.000000 )  
               b(3) = (  0.000000  0.000000  1.000000 )  


     PseudoPot. # 1 for H  read from file:
     ../pslibrary/pbe/PSEUDOPOTENTIALS/H.pbe-rrkjus_psl.1.0.0.UPF
     MD5 check sum: b2b1ff84b4ceabe23335d1bf25025923
     Pseudo is Ultrasoft, Zval =  1.0
     Generated using "atomic" code by A. Dal Corso v.6.2 svn rev. 14038
     Using radial grid of  929 points,  2 beta functions with: 
                l(1) =   0
                l(2) =   0
     Q(r) pseudized with 0 coefficients 


     PseudoPot. # 2 for O  read from file:
     ../pslibrary/pbe/PSEUDOPOTENTIALS/O.pbe-n-rrkjus_psl.1.0.0.UPF
     MD5 check sum: 61455b21a47f6823f888c3bfb9bd1235
     Pseudo is Ultrasoft + core correction, Zval =  6.0
     Generated using "atomic" code by A. Dal Corso v.6.2 svn rev. 14038
     Using radial grid of 1095 points,  4 beta functions with: 
                l(1) =   0
                l(2) =   0
                l(3) =   1
                l(4) =   1
     Q(r) pseudized with 0 coefficients 


     atomic species   valence    mass     pseudopotential
        H              1.00     1.01000     H ( 1.00)
        O              6.00    16.00000     O ( 1.00)

     No symmetry found



   Cartesian axes

     site n.     atom                  positions (alat units)
         1           O   tau(   1) = (   0.0000107   0.0094900   0.0006995  )
         2           H   tau(   2) = (  -0.0515698  -0.1255856  -0.0026635  )
         3           H   tau(   3) = (   0.0514010  -0.0247516   0.0799472  )

     number of k points=     1  Marzari-Vanderbilt smearing, width (Ry)=  0.0250
                       cart. coord. in units 2pi/alat
        k(    1) = (   0.0000000   0.0000000   0.0000000), wk =   2.0000000

     Dense  grid:  1420755 G-vectors     FFT dimensions: ( 144, 144, 144)

     Estimated max dynamical RAM per process >      58.78 MB

     Estimated total dynamical RAM >       1.61 GB

     Initial potential from superposition of free atoms
     Check: negative starting charge=   -0.000728

     starting charge    7.99998, renormalised to    8.00000

     negative rho (up, down):  7.285E-04 0.000E+00
     Starting wfc are    6 randomized atomic wfcs +    2 random wfc

     total cpu time spent up to now is        1.9 secs

     Self-consistent Calculation

     iteration #  1     ecut=   120.00 Ry     beta= 0.70
     Davidson diagonalization with overlap
     ethr =  1.00E-02,  avg # of iterations =  7.0

     negative rho (up, down):  1.109E-03 0.000E+00

     total cpu time spent up to now is        2.8 secs

     total energy              =     -34.30311181 Ry
     Harris-Foulkes estimate   =     -34.69268364 Ry
     estimated scf accuracy    <       0.51796913 Ry

     iteration #  2     ecut=   120.00 Ry     beta= 0.70
     Davidson diagonalization with overlap
     ethr =  6.47E-03,  avg # of iterations =  3.0

     negative rho (up, down):  7.518E-04 0.000E+00

     total cpu time spent up to now is        3.4 secs

     total energy              =     -34.24030335 Ry
     Harris-Foulkes estimate   =     -34.98345112 Ry
     estimated scf accuracy    <       2.19634749 Ry

     iteration #  3     ecut=   120.00 Ry     beta= 0.70
     Davidson diagonalization with overlap
     ethr =  6.47E-03,  avg # of iterations =  1.0

     negative rho (up, down):  5.095E-04 0.000E+00

     total cpu time spent up to now is        4.0 secs

     total energy              =     -34.43669405 Ry
     Harris-Foulkes estimate   =     -34.45818745 Ry
     estimated scf accuracy    <       0.15467551 Ry

     iteration #  4     ecut=   120.00 Ry     beta= 0.70
     Davidson diagonalization with overlap
     ethr =  1.93E-03,  avg # of iterations =  3.0

     negative rho (up, down):  6.075E-04 0.000E+00

     total cpu time spent up to now is        4.7 secs

     total energy              =     -34.57200556 Ry
     Harris-Foulkes estimate   =     -34.58013266 Ry
     estimated scf accuracy    <       0.03716540 Ry

     iteration #  5     ecut=   120.00 Ry     beta= 0.70
     Davidson diagonalization with overlap
     ethr =  4.65E-04,  avg # of iterations =  1.0

     negative rho (up, down):  6.823E-04 0.000E+00

     total cpu time spent up to now is        5.3 secs

     total energy              =     -34.57327244 Ry
     Harris-Foulkes estimate   =     -34.57366794 Ry
     estimated scf accuracy    <       0.00893166 Ry

     iteration #  6     ecut=   120.00 Ry     beta= 0.70
     Davidson diagonalization with overlap
     ethr =  1.12E-04,  avg # of iterations =  1.0

     negative rho (up, down):  7.355E-04 0.000E+00

     total cpu time spent up to now is        6.0 secs

     total energy              =     -34.57271589 Ry
     Harris-Foulkes estimate   =     -34.57338617 Ry
     estimated scf accuracy    <       0.00797018 Ry

     iteration #  7     ecut=   120.00 Ry     beta= 0.70
     Davidson diagonalization with overlap
     ethr =  9.96E-05,  avg # of iterations =  4.0

     negative rho (up, down):  7.637E-04 0.000E+00

     total cpu time spent up to now is        6.6 secs

     total energy              =     -34.57258408 Ry
     Harris-Foulkes estimate   =     -34.57281685 Ry
     estimated scf accuracy    <       0.00507623 Ry

     iteration #  8     ecut=   120.00 Ry     beta= 0.70
     Davidson diagonalization with overlap
     ethr =  6.35E-05,  avg # of iterations =  1.0

     negative rho (up, down):  7.866E-04 0.000E+00

     total cpu time spent up to now is        7.3 secs

     total energy              =     -34.57248274 Ry
     Harris-Foulkes estimate   =     -34.57263010 Ry
     estimated scf accuracy    <       0.00388399 Ry

     iteration #  9     ecut=   120.00 Ry     beta= 0.70
     Davidson diagonalization with overlap
     ethr =  4.85E-05,  avg # of iterations =  1.0

     negative rho (up, down):  7.978E-04 0.000E+00

     total cpu time spent up to now is        7.9 secs

     total energy              =     -34.57244683 Ry
     Harris-Foulkes estimate   =     -34.57250189 Ry
     estimated scf accuracy    <       0.00318893 Ry

     iteration # 10     ecut=   120.00 Ry     beta= 0.70
     Davidson diagonalization with overlap
     ethr =  3.99E-05,  avg # of iterations =  1.0

     negative rho (up, down):  7.979E-04 0.000E+00

     total cpu time spent up to now is        8.5 secs

     total energy              =     -34.57246049 Ry
     Harris-Foulkes estimate   =     -34.57246137 Ry
     estimated scf accuracy    <       0.00276301 Ry

     iteration # 11     ecut=   120.00 Ry     beta= 0.70
     Davidson diagonalization with overlap
     ethr =  3.45E-05,  avg # of iterations =  1.0

     negative rho (up, down):  7.961E-04 0.000E+00

     total cpu time spent up to now is        9.2 secs

     total energy              =     -34.57245221 Ry
     Harris-Foulkes estimate   =     -34.57246683 Ry
     estimated scf accuracy    <       0.00267330 Ry

     iteration # 12     ecut=   120.00 Ry     beta= 0.70
     Davidson diagonalization with overlap
     ethr =  3.34E-05,  avg # of iterations =  1.0

     negative rho (up, down):  1.036E-03 0.000E+00

     total cpu time spent up to now is        9.8 secs

     total energy              =     -34.57147398 Ry
     Harris-Foulkes estimate   =     -34.57245749 Ry
     estimated scf accuracy    <       0.00260863 Ry

     iteration # 13     ecut=   120.00 Ry     beta= 0.70
     Davidson diagonalization with overlap
     ethr =  3.26E-05,  avg # of iterations =  1.0

     negative rho (up, down):  1.048E-03 0.000E+00

     total cpu time spent up to now is       10.5 secs

     total energy              =     -34.57173057 Ry
     Harris-Foulkes estimate   =     -34.57175371 Ry
     estimated scf accuracy    <       0.00013296 Ry

     iteration # 14     ecut=   120.00 Ry     beta= 0.70
     Davidson diagonalization with overlap
     ethr =  1.66E-06,  avg # of iterations = 11.0

     negative rho (up, down):  1.044E-03 0.000E+00

     total cpu time spent up to now is       11.4 secs

     total energy              =     -34.57200643 Ry
     Harris-Foulkes estimate   =     -34.57204366 Ry
     estimated scf accuracy    <       0.00019316 Ry

     iteration # 15     ecut=   120.00 Ry     beta= 0.70
     Davidson diagonalization with overlap
     ethr =  1.66E-06,  avg # of iterations = 15.0

     negative rho (up, down):  1.047E-03 0.000E+00

     total cpu time spent up to now is       12.3 secs

     total energy              =     -34.57197557 Ry
     Harris-Foulkes estimate   =     -34.57200992 Ry
     estimated scf accuracy    <       0.00008532 Ry

     iteration # 16     ecut=   120.00 Ry     beta= 0.70
     Davidson diagonalization with overlap
     ethr =  1.07E-06,  avg # of iterations =  1.0

     negative rho (up, down):  1.049E-03 0.000E+00

     total cpu time spent up to now is       12.9 secs

     total energy              =     -34.57198316 Ry
     Harris-Foulkes estimate   =     -34.57198439 Ry
     estimated scf accuracy    <       0.00000711 Ry

     iteration # 17     ecut=   120.00 Ry     beta= 0.70
     Davidson diagonalization with overlap
     ethr =  8.89E-08,  avg # of iterations =  4.0

     negative rho (up, down):  1.049E-03 0.000E+00

     total cpu time spent up to now is       13.7 secs

     total energy              =     -34.57199466 Ry
     Harris-Foulkes estimate   =     -34.57199821 Ry
     estimated scf accuracy    <       0.00001369 Ry

     iteration # 18     ecut=   120.00 Ry     beta= 0.70
     Davidson diagonalization with overlap
     ethr =  8.89E-08,  avg # of iterations =  3.0

     negative rho (up, down):  1.050E-03 0.000E+00

     total cpu time spent up to now is       14.3 secs

     total energy              =     -34.57199830 Ry
     Harris-Foulkes estimate   =     -34.57199645 Ry
     estimated scf accuracy    <       0.00000637 Ry

     iteration # 19     ecut=   120.00 Ry     beta= 0.70
     Davidson diagonalization with overlap
     ethr =  7.97E-08,  avg # of iterations =  3.0

     negative rho (up, down):  1.057E-03 0.000E+00

     total cpu time spent up to now is       15.1 secs

     total energy              =     -34.57197987 Ry
     Harris-Foulkes estimate   =     -34.57200647 Ry
     estimated scf accuracy    <       0.00004872 Ry

     iteration # 20     ecut=   120.00 Ry     beta= 0.70
     Davidson diagonalization with overlap
     ethr =  7.97E-08,  avg # of iterations =  3.0

     negative rho (up, down):  1.058E-03 0.000E+00

     total cpu time spent up to now is       15.9 secs

     total energy              =     -34.57200566 Ry
     Harris-Foulkes estimate   =     -34.57200621 Ry
     estimated scf accuracy    <       0.00004494 Ry

     iteration # 21     ecut=   120.00 Ry     beta= 0.70
     Davidson diagonalization with overlap
     ethr =  7.97E-08,  avg # of iterations =  1.0

     negative rho (up, down):  1.060E-03 0.000E+00

     total cpu time spent up to now is       16.5 secs

     total energy              =     -34.57200348 Ry
     Harris-Foulkes estimate   =     -34.57200567 Ry
     estimated scf accuracy    <       0.00004281 Ry

     iteration # 22     ecut=   120.00 Ry     beta= 0.70
     Davidson diagonalization with overlap
     ethr =  7.97E-08,  avg # of iterations =  1.0

     negative rho (up, down):  1.061E-03 0.000E+00

     total cpu time spent up to now is       17.2 secs

     total energy              =     -34.57201618 Ry
     Harris-Foulkes estimate   =     -34.57200356 Ry
     estimated scf accuracy    <       0.00003501 Ry

     iteration # 23     ecut=   120.00 Ry     beta= 0.70
     Davidson diagonalization with overlap
     ethr =  7.97E-08,  avg # of iterations =  3.0

     negative rho (up, down):  1.056E-03 0.000E+00

     total cpu time spent up to now is       18.0 secs

     total energy              =     -34.57199315 Ry
     Harris-Foulkes estimate   =     -34.57201812 Ry
     estimated scf accuracy    <       0.00008973 Ry

     iteration # 24     ecut=   120.00 Ry     beta= 0.70
     Davidson diagonalization with overlap
     ethr =  7.97E-08,  avg # of iterations =  3.0

     negative rho (up, down):  1.052E-03 0.000E+00

     total cpu time spent up to now is       18.8 secs

     total energy              =     -34.57199152 Ry
     Harris-Foulkes estimate   =     -34.57199850 Ry
     estimated scf accuracy    <       0.00001270 Ry

     iteration # 25     ecut=   120.00 Ry     beta= 0.70
     Davidson diagonalization with overlap
     ethr =  7.97E-08,  avg # of iterations =  3.0

     negative rho (up, down):  1.053E-03 0.000E+00

     total cpu time spent up to now is       19.5 secs

     total energy              =     -34.57199472 Ry
     Harris-Foulkes estimate   =     -34.57199661 Ry
     estimated scf accuracy    <       0.00000481 Ry

     iteration # 26     ecut=   120.00 Ry     beta= 0.70
     Davidson diagonalization with overlap
     ethr =  6.01E-08,  avg # of iterations =  1.0

     negative rho (up, down):  1.053E-03 0.000E+00

     total cpu time spent up to now is       20.1 secs

     total energy              =     -34.57199491 Ry
     Harris-Foulkes estimate   =     -34.57199506 Ry
     estimated scf accuracy    <       0.00000052 Ry

     iteration # 27     ecut=   120.00 Ry     beta= 0.70
     Davidson diagonalization with overlap
     ethr =  6.53E-09,  avg # of iterations =  3.0

     negative rho (up, down):  1.053E-03 0.000E+00

     total cpu time spent up to now is       20.9 secs

     total energy              =     -34.57199543 Ry
     Harris-Foulkes estimate   =     -34.57199544 Ry
     estimated scf accuracy    <       0.00000013 Ry

     iteration # 28     ecut=   120.00 Ry     beta= 0.70
     Davidson diagonalization with overlap
     ethr =  1.60E-09,  avg # of iterations =  1.0

     negative rho (up, down):  1.053E-03 0.000E+00

     total cpu time spent up to now is       21.5 secs

     total energy              =     -34.57199542 Ry
     Harris-Foulkes estimate   =     -34.57199543 Ry
     estimated scf accuracy    <       0.00000011 Ry

     iteration # 29     ecut=   120.00 Ry     beta= 0.70
     Davidson diagonalization with overlap
     ethr =  1.42E-09,  avg # of iterations =  1.0

     negative rho (up, down):  1.053E-03 0.000E+00

     total cpu time spent up to now is       22.2 secs

     total energy              =     -34.57199541 Ry
     Harris-Foulkes estimate   =     -34.57199542 Ry
     estimated scf accuracy    <       0.00000009 Ry

     iteration # 30     ecut=   120.00 Ry     beta= 0.70
     Davidson diagonalization with overlap
     ethr =  1.13E-09,  avg # of iterations =  1.0

     negative rho (up, down):  1.053E-03 0.000E+00

     total cpu time spent up to now is       22.8 secs

     total energy              =     -34.57199541 Ry
     Harris-Foulkes estimate   =     -34.57199541 Ry
     estimated scf accuracy    <       0.00000006 Ry

     iteration # 31     ecut=   120.00 Ry     beta= 0.70
     Davidson diagonalization with overlap
     ethr =  7.98E-10,  avg # of iterations =  1.0

     negative rho (up, down):  1.053E-03 0.000E+00

     total cpu time spent up to now is       23.4 secs

     total energy              =     -34.57199540 Ry
     Harris-Foulkes estimate   =     -34.57199541 Ry
     estimated scf accuracy    <       0.00000004 Ry

     iteration # 32     ecut=   120.00 Ry     beta= 0.70
     Davidson diagonalization with overlap
     ethr =  5.32E-10,  avg # of iterations =  2.0

     negative rho (up, down):  1.053E-03 0.000E+00

     total cpu time spent up to now is       24.0 secs

     End of self-consistent calculation

          k = 0.0000 0.0000 0.0000 (177509 PWs)   bands (ev):

   -23.4648 -10.3739  -9.4104  -6.8175  -3.6512  -0.4787   0.1984   0.8679

     the Fermi energy is    -6.5042 ev

!    total energy              =     -34.57199540 Ry
     Harris-Foulkes estimate   =     -34.57199540 Ry
     estimated scf accuracy    <          6.9E-09 Ry

     The total energy is the sum of the following terms:

     one-electron contribution =     -58.77960903 Ry
     hartree contribution      =      30.96849299 Ry
     xc contribution           =      -8.45315585 Ry
     ewald contribution        =       1.68819902 Ry
     smearing contrib. (-TS)   =       0.00407747 Ry

     convergence has been achieved in  32 iterations

     Writing output data file pwscf.save
 
     init_run     :      1.13s CPU      1.21s WALL (       1 calls)
     electrons    :     20.23s CPU     22.13s WALL (       1 calls)

     Called by init_run:
     wfcinit      :      0.12s CPU      0.14s WALL (       1 calls)
     potinit      :      0.21s CPU      0.22s WALL (       1 calls)

     Called by electrons:
     c_bands      :      7.53s CPU      7.63s WALL (      32 calls)
     sum_band     :      4.69s CPU      4.76s WALL (      32 calls)
     v_of_rho     :      4.00s CPU      4.05s WALL (      33 calls)
     newd         :      1.66s CPU      1.68s WALL (      33 calls)
     mix_rho      :      2.34s CPU      3.86s WALL (      32 calls)

     Called by c_bands:
     init_us_2    :      0.14s CPU      0.14s WALL (      65 calls)
     cegterg      :      7.40s CPU      7.48s WALL (      32 calls)

     Called by sum_band:
     sum_band:bec :      0.00s CPU      0.00s WALL (      32 calls)
     addusdens    :      2.31s CPU      2.34s WALL (      32 calls)

     Called by *egterg:
     h_psi        :      7.00s CPU      7.07s WALL (     120 calls)
     s_psi        :      0.04s CPU      0.04s WALL (     120 calls)
     g_psi        :      0.02s CPU      0.02s WALL (      87 calls)
     cdiaghg      :      0.03s CPU      0.03s WALL (     119 calls)

     Called by h_psi:
     h_psi:pot    :      6.96s CPU      7.04s WALL (     120 calls)
     h_psi:calbec :      0.13s CPU      0.14s WALL (     120 calls)
     vloc_psi     :      6.79s CPU      6.86s WALL (     120 calls)
     add_vuspsi   :      0.04s CPU      0.04s WALL (     120 calls)

     General routines
     calbec       :      0.17s CPU      0.18s WALL (     152 calls)
     fft          :      4.06s CPU      4.12s WALL (     428 calls)
     fftw         :      7.09s CPU      7.18s WALL (    1546 calls)
     davcio       :      0.31s CPU      1.68s WALL (     547 calls)
 
     Parallel routines
     fft_scatt_xy :      1.19s CPU      1.20s WALL (    1974 calls)
     fft_scatt_yz :      2.92s CPU      2.99s WALL (    1974 calls)
 
     PWSCF        :    22.01s CPU        24.37s WALL

 
   This run was terminated on:   5:30:48  12May2018            

=------------------------------------------------------------------------------=
   JOB DONE.
=------------------------------------------------------------------------------=
