
     Program PWSCF v.6.2 (svn rev. 14038) starts on 12May2018 at  5:31: 9 

     This program is part of the open-source Quantum ESPRESSO suite
     for quantum simulation of materials; please cite
         "P. Giannozzi et al., J. Phys.:Condens. Matter 21 395502 (2009);
         "P. Giannozzi et al., J. Phys.:Condens. Matter 29 465901 (2017);
          URL http://www.quantum-espresso.org", 
     in publications or presentations arising from this work. More details at
     http://www.quantum-espresso.org/quote

     Parallel version (MPI), running on    28 processors

     MPI processes distributed on     1 nodes
     R & G space division:  proc/nbgrp/npool/nimage =      28
     Reading input from ../ecut120/8500.in
Warning: card &IONS ignored
Warning: card     POT_EXTRAPOLATION='SECOND-ORDER' ignored
Warning: card     WFC_EXTRAPOLATION='SECOND-ORDER' ignored
Warning: card     ION_TEMPERATURE = 'ANDERSEN' ignored
Warning: card / ignored

     Current dimensions of program PWSCF are:
     Max number of different atomic species (ntypx) = 10
     Max number of k-points (npk) =  40000
     Max angular momentum in pseudopotentials (lmaxx) =  3

     Subspace diagonalization in iterative solution of the eigenvalue problem:
     a serial algorithm will be used

 
     Parallelization info
     --------------------
     sticks:   dense  smooth     PW     G-vecs:    dense   smooth      PW
     Min         545     545    136                50739    50739    6338
     Max         546     546    137                50746    50746    6341
     Sum       15273   15273   3809              1420755  1420755  177509
 


     bravais-lattice index     =            1
     lattice parameter (alat)  =      20.0000  a.u.
     unit-cell volume          =    8000.0000 (a.u.)^3
     number of atoms/cell      =            3
     number of atomic types    =            2
     number of electrons       =         8.00
     number of Kohn-Sham states=            8
     kinetic-energy cutoff     =     120.0000  Ry
     charge density cutoff     =     480.0000  Ry
     convergence threshold     =      1.0E-08
     mixing beta               =       0.7000
     number of iterations used =            8  plain     mixing
     Exchange-correlation      = PBE ( 1  4  3  4 0 0)

     celldm(1)=  20.000000  celldm(2)=   0.000000  celldm(3)=   0.000000
     celldm(4)=   0.000000  celldm(5)=   0.000000  celldm(6)=   0.000000

     crystal axes: (cart. coord. in units of alat)
               a(1) = (   1.000000   0.000000   0.000000 )  
               a(2) = (   0.000000   1.000000   0.000000 )  
               a(3) = (   0.000000   0.000000   1.000000 )  

     reciprocal axes: (cart. coord. in units 2 pi/alat)
               b(1) = (  1.000000  0.000000  0.000000 )  
               b(2) = (  0.000000  1.000000  0.000000 )  
               b(3) = (  0.000000  0.000000  1.000000 )  


     PseudoPot. # 1 for H  read from file:
     ../pslibrary/pbe/PSEUDOPOTENTIALS/H.pbe-rrkjus_psl.1.0.0.UPF
     MD5 check sum: b2b1ff84b4ceabe23335d1bf25025923
     Pseudo is Ultrasoft, Zval =  1.0
     Generated using "atomic" code by A. Dal Corso v.6.2 svn rev. 14038
     Using radial grid of  929 points,  2 beta functions with: 
                l(1) =   0
                l(2) =   0
     Q(r) pseudized with 0 coefficients 


     PseudoPot. # 2 for O  read from file:
     ../pslibrary/pbe/PSEUDOPOTENTIALS/O.pbe-n-rrkjus_psl.1.0.0.UPF
     MD5 check sum: 61455b21a47f6823f888c3bfb9bd1235
     Pseudo is Ultrasoft + core correction, Zval =  6.0
     Generated using "atomic" code by A. Dal Corso v.6.2 svn rev. 14038
     Using radial grid of 1095 points,  4 beta functions with: 
                l(1) =   0
                l(2) =   0
                l(3) =   1
                l(4) =   1
     Q(r) pseudized with 0 coefficients 


     atomic species   valence    mass     pseudopotential
        H              1.00     1.01000     H ( 1.00)
        O              6.00    16.00000     O ( 1.00)

     No symmetry found



   Cartesian axes

     site n.     atom                  positions (alat units)
         1           O   tau(   1) = (   0.0110623  -0.0004035   0.0041070  )
         2           H   tau(   2) = (  -0.0865487   0.0494376  -0.0397333  )
         3           H   tau(   3) = (  -0.0886951  -0.0430461   0.0630350  )

     number of k points=     1  Marzari-Vanderbilt smearing, width (Ry)=  0.0250
                       cart. coord. in units 2pi/alat
        k(    1) = (   0.0000000   0.0000000   0.0000000), wk =   2.0000000

     Dense  grid:  1420755 G-vectors     FFT dimensions: ( 144, 144, 144)

     Estimated max dynamical RAM per process >      58.78 MB

     Estimated total dynamical RAM >       1.61 GB

     Initial potential from superposition of free atoms
     Check: negative starting charge=   -0.000744

     starting charge    7.99998, renormalised to    8.00000

     negative rho (up, down):  7.436E-04 0.000E+00
     Starting wfc are    6 randomized atomic wfcs +    2 random wfc

     total cpu time spent up to now is        2.1 secs

     Self-consistent Calculation

     iteration #  1     ecut=   120.00 Ry     beta= 0.70
     Davidson diagonalization with overlap
     ethr =  1.00E-02,  avg # of iterations =  7.0

     negative rho (up, down):  1.091E-03 0.000E+00

     total cpu time spent up to now is        3.2 secs

     total energy              =     -34.38163098 Ry
     Harris-Foulkes estimate   =     -34.68459445 Ry
     estimated scf accuracy    <       0.40716382 Ry

     iteration #  2     ecut=   120.00 Ry     beta= 0.70
     Davidson diagonalization with overlap
     ethr =  5.09E-03,  avg # of iterations =  3.0

     negative rho (up, down):  8.318E-04 0.000E+00

     total cpu time spent up to now is        3.9 secs

     total energy              =     -34.32328775 Ry
     Harris-Foulkes estimate   =     -34.85809204 Ry
     estimated scf accuracy    <       1.50170777 Ry

     iteration #  3     ecut=   120.00 Ry     beta= 0.70
     Davidson diagonalization with overlap
     ethr =  5.09E-03,  avg # of iterations =  3.0

     negative rho (up, down):  5.567E-04 0.000E+00

     total cpu time spent up to now is        4.5 secs

     total energy              =     -34.53176896 Ry
     Harris-Foulkes estimate   =     -34.53828557 Ry
     estimated scf accuracy    <       0.02249074 Ry

     iteration #  4     ecut=   120.00 Ry     beta= 0.70
     Davidson diagonalization with overlap
     ethr =  2.81E-04,  avg # of iterations =  4.0

     negative rho (up, down):  6.761E-04 0.000E+00

     total cpu time spent up to now is        5.2 secs

     total energy              =     -34.58573623 Ry
     Harris-Foulkes estimate   =     -34.59234927 Ry
     estimated scf accuracy    <       0.02933112 Ry

     iteration #  5     ecut=   120.00 Ry     beta= 0.70
     Davidson diagonalization with overlap
     ethr =  2.81E-04,  avg # of iterations =  2.0

     negative rho (up, down):  7.464E-04 0.000E+00

     total cpu time spent up to now is        5.8 secs

     total energy              =     -34.58487062 Ry
     Harris-Foulkes estimate   =     -34.58658053 Ry
     estimated scf accuracy    <       0.01026202 Ry

     iteration #  6     ecut=   120.00 Ry     beta= 0.70
     Davidson diagonalization with overlap
     ethr =  1.28E-04,  avg # of iterations =  1.0

     negative rho (up, down):  7.821E-04 0.000E+00

     total cpu time spent up to now is        6.4 secs

     total energy              =     -34.58486283 Ry
     Harris-Foulkes estimate   =     -34.58523238 Ry
     estimated scf accuracy    <       0.00464198 Ry

     iteration #  7     ecut=   120.00 Ry     beta= 0.70
     Davidson diagonalization with overlap
     ethr =  5.80E-05,  avg # of iterations =  8.0

     negative rho (up, down):  8.451E-04 0.000E+00

     total cpu time spent up to now is        7.2 secs

     total energy              =     -34.58525000 Ry
     Harris-Foulkes estimate   =     -34.58537729 Ry
     estimated scf accuracy    <       0.00153908 Ry

     iteration #  8     ecut=   120.00 Ry     beta= 0.70
     Davidson diagonalization with overlap
     ethr =  1.92E-05,  avg # of iterations =  2.0

     negative rho (up, down):  9.125E-04 0.000E+00

     total cpu time spent up to now is        7.8 secs

     total energy              =     -34.58522572 Ry
     Harris-Foulkes estimate   =     -34.58528649 Ry
     estimated scf accuracy    <       0.00097240 Ry

     iteration #  9     ecut=   120.00 Ry     beta= 0.70
     Davidson diagonalization with overlap
     ethr =  1.22E-05,  avg # of iterations =  1.0

     negative rho (up, down):  1.022E-03 0.000E+00

     total cpu time spent up to now is        8.5 secs

     total energy              =     -34.58508853 Ry
     Harris-Foulkes estimate   =     -34.58523022 Ry
     estimated scf accuracy    <       0.00071970 Ry

     iteration # 10     ecut=   120.00 Ry     beta= 0.70
     Davidson diagonalization with overlap
     ethr =  9.00E-06,  avg # of iterations =  1.0

     negative rho (up, down):  1.019E-03 0.000E+00

     total cpu time spent up to now is        9.1 secs

     total energy              =     -34.58509032 Ry
     Harris-Foulkes estimate   =     -34.58510760 Ry
     estimated scf accuracy    <       0.00024851 Ry

     iteration # 11     ecut=   120.00 Ry     beta= 0.70
     Davidson diagonalization with overlap
     ethr =  3.11E-06,  avg # of iterations = 10.0

     negative rho (up, down):  1.019E-03 0.000E+00

     total cpu time spent up to now is        9.9 secs

     total energy              =     -34.58511324 Ry
     Harris-Foulkes estimate   =     -34.58511828 Ry
     estimated scf accuracy    <       0.00008180 Ry

     iteration # 12     ecut=   120.00 Ry     beta= 0.70
     Davidson diagonalization with overlap
     ethr =  1.02E-06,  avg # of iterations =  1.0

     negative rho (up, down):  1.044E-03 0.000E+00

     total cpu time spent up to now is       10.6 secs

     total energy              =     -34.58509360 Ry
     Harris-Foulkes estimate   =     -34.58511366 Ry
     estimated scf accuracy    <       0.00006398 Ry

     iteration # 13     ecut=   120.00 Ry     beta= 0.70
     Davidson diagonalization with overlap
     ethr =  8.00E-07,  avg # of iterations =  1.0

     negative rho (up, down):  1.035E-03 0.000E+00

     total cpu time spent up to now is       11.3 secs

     total energy              =     -34.58509340 Ry
     Harris-Foulkes estimate   =     -34.58509772 Ry
     estimated scf accuracy    <       0.00000792 Ry

     iteration # 14     ecut=   120.00 Ry     beta= 0.70
     Davidson diagonalization with overlap
     ethr =  9.90E-08,  avg # of iterations =  4.0

     negative rho (up, down):  1.033E-03 0.000E+00

     total cpu time spent up to now is       12.1 secs

     total energy              =     -34.58512156 Ry
     Harris-Foulkes estimate   =     -34.58511411 Ry
     estimated scf accuracy    <       0.00005413 Ry

     iteration # 15     ecut=   120.00 Ry     beta= 0.70
     Davidson diagonalization with overlap
     ethr =  9.90E-08,  avg # of iterations =  1.0

     negative rho (up, down):  1.034E-03 0.000E+00

     total cpu time spent up to now is       12.8 secs

     total energy              =     -34.58510959 Ry
     Harris-Foulkes estimate   =     -34.58512193 Ry
     estimated scf accuracy    <       0.00007878 Ry

     iteration # 16     ecut=   120.00 Ry     beta= 0.70
     Davidson diagonalization with overlap
     ethr =  9.90E-08,  avg # of iterations =  1.0

     negative rho (up, down):  1.035E-03 0.000E+00

     total cpu time spent up to now is       13.5 secs

     total energy              =     -34.58510918 Ry
     Harris-Foulkes estimate   =     -34.58511041 Ry
     estimated scf accuracy    <       0.00004372 Ry

     iteration # 17     ecut=   120.00 Ry     beta= 0.70
     Davidson diagonalization with overlap
     ethr =  9.90E-08,  avg # of iterations =  1.0

     negative rho (up, down):  1.035E-03 0.000E+00

     total cpu time spent up to now is       14.1 secs

     total energy              =     -34.58510970 Ry
     Harris-Foulkes estimate   =     -34.58510930 Ry
     estimated scf accuracy    <       0.00003686 Ry

     iteration # 18     ecut=   120.00 Ry     beta= 0.70
     Davidson diagonalization with overlap
     ethr =  9.90E-08,  avg # of iterations =  1.0

     negative rho (up, down):  1.039E-03 0.000E+00

     total cpu time spent up to now is       14.7 secs

     total energy              =     -34.58510462 Ry
     Harris-Foulkes estimate   =     -34.58510975 Ry
     estimated scf accuracy    <       0.00003863 Ry

     iteration # 19     ecut=   120.00 Ry     beta= 0.70
     Davidson diagonalization with overlap
     ethr =  9.90E-08,  avg # of iterations =  1.0

     negative rho (up, down):  1.045E-03 0.000E+00

     total cpu time spent up to now is       15.4 secs

     total energy              =     -34.58509862 Ry
     Harris-Foulkes estimate   =     -34.58510495 Ry
     estimated scf accuracy    <       0.00002311 Ry

     iteration # 20     ecut=   120.00 Ry     beta= 0.70
     Davidson diagonalization with overlap
     ethr =  9.90E-08,  avg # of iterations =  3.0

     negative rho (up, down):  1.043E-03 0.000E+00

     total cpu time spent up to now is       16.1 secs

     total energy              =     -34.58510099 Ry
     Harris-Foulkes estimate   =     -34.58510076 Ry
     estimated scf accuracy    <       0.00000247 Ry

     iteration # 21     ecut=   120.00 Ry     beta= 0.70
     Davidson diagonalization with overlap
     ethr =  3.08E-08,  avg # of iterations =  3.0

     negative rho (up, down):  1.046E-03 0.000E+00

     total cpu time spent up to now is       16.8 secs

     total energy              =     -34.58510111 Ry
     Harris-Foulkes estimate   =     -34.58510165 Ry
     estimated scf accuracy    <       0.00000154 Ry

     iteration # 22     ecut=   120.00 Ry     beta= 0.70
     Davidson diagonalization with overlap
     ethr =  1.93E-08,  avg # of iterations =  1.0

     negative rho (up, down):  1.047E-03 0.000E+00

     total cpu time spent up to now is       17.4 secs

     total energy              =     -34.58510117 Ry
     Harris-Foulkes estimate   =     -34.58510123 Ry
     estimated scf accuracy    <       0.00000017 Ry

     iteration # 23     ecut=   120.00 Ry     beta= 0.70
     Davidson diagonalization with overlap
     ethr =  2.11E-09,  avg # of iterations =  3.0

     negative rho (up, down):  1.047E-03 0.000E+00

     total cpu time spent up to now is       18.1 secs

     total energy              =     -34.58510130 Ry
     Harris-Foulkes estimate   =     -34.58510131 Ry
     estimated scf accuracy    <       0.00000013 Ry

     iteration # 24     ecut=   120.00 Ry     beta= 0.70
     Davidson diagonalization with overlap
     ethr =  1.69E-09,  avg # of iterations =  1.0

     negative rho (up, down):  1.047E-03 0.000E+00

     total cpu time spent up to now is       18.7 secs

     total energy              =     -34.58510127 Ry
     Harris-Foulkes estimate   =     -34.58510130 Ry
     estimated scf accuracy    <       0.00000011 Ry

     iteration # 25     ecut=   120.00 Ry     beta= 0.70
     Davidson diagonalization with overlap
     ethr =  1.43E-09,  avg # of iterations =  1.0

     negative rho (up, down):  1.047E-03 0.000E+00

     total cpu time spent up to now is       19.4 secs

     total energy              =     -34.58510127 Ry
     Harris-Foulkes estimate   =     -34.58510128 Ry
     estimated scf accuracy    <       0.00000003 Ry

     iteration # 26     ecut=   120.00 Ry     beta= 0.70
     Davidson diagonalization with overlap
     ethr =  4.25E-10,  avg # of iterations =  2.0

     negative rho (up, down):  1.047E-03 0.000E+00

     total cpu time spent up to now is       19.9 secs

     End of self-consistent calculation

          k = 0.0000 0.0000 0.0000 (177509 PWs)   bands (ev):

   -23.2224 -10.5493  -9.4294  -6.8467  -2.6763  -0.9071  -0.0550   0.8673

     the Fermi energy is    -4.8150 ev

!    total energy              =     -34.58510128 Ry
     Harris-Foulkes estimate   =     -34.58510128 Ry
     estimated scf accuracy    <          2.8E-09 Ry

     The total energy is the sum of the following terms:

     one-electron contribution =     -58.70023506 Ry
     hartree contribution      =      30.91157145 Ry
     xc contribution           =      -8.42353404 Ry
     ewald contribution        =       1.62709638 Ry
     smearing contrib. (-TS)   =       0.00000000 Ry

     convergence has been achieved in  26 iterations

     Writing output data file pwscf.save
 
     init_run     :      1.15s CPU      1.24s WALL (       1 calls)
     electrons    :     16.22s CPU     17.89s WALL (       1 calls)

     Called by init_run:
     wfcinit      :      0.13s CPU      0.16s WALL (       1 calls)
     potinit      :      0.21s CPU      0.22s WALL (       1 calls)

     Called by electrons:
     c_bands      :      5.95s CPU      6.02s WALL (      26 calls)
     sum_band     :      3.76s CPU      3.81s WALL (      26 calls)
     v_of_rho     :      3.25s CPU      3.31s WALL (      27 calls)
     newd         :      1.36s CPU      1.38s WALL (      27 calls)
     mix_rho      :      1.79s CPU      3.09s WALL (      26 calls)

     Called by c_bands:
     init_us_2    :      0.11s CPU      0.11s WALL (      53 calls)
     cegterg      :      5.84s CPU      5.90s WALL (      26 calls)

     Called by sum_band:
     sum_band:bec :      0.00s CPU      0.00s WALL (      26 calls)
     addusdens    :      1.85s CPU      1.88s WALL (      26 calls)

     Called by *egterg:
     h_psi        :      5.56s CPU      5.61s WALL (      94 calls)
     s_psi        :      0.03s CPU      0.03s WALL (      94 calls)
     g_psi        :      0.02s CPU      0.02s WALL (      67 calls)
     cdiaghg      :      0.02s CPU      0.02s WALL (      93 calls)

     Called by h_psi:
     h_psi:pot    :      5.53s CPU      5.58s WALL (      94 calls)
     h_psi:calbec :      0.09s CPU      0.10s WALL (      94 calls)
     vloc_psi     :      5.41s CPU      5.46s WALL (      94 calls)
     add_vuspsi   :      0.03s CPU      0.03s WALL (      94 calls)

     General routines
     calbec       :      0.12s CPU      0.12s WALL (     120 calls)
     fft          :      3.34s CPU      3.39s WALL (     350 calls)
     fftw         :      5.66s CPU      5.71s WALL (    1204 calls)
     davcio       :      0.23s CPU      1.39s WALL (     427 calls)
 
     Parallel routines
     fft_scatt_xy :      0.96s CPU      0.96s WALL (    1554 calls)
     fft_scatt_yz :      2.09s CPU      2.14s WALL (    1554 calls)
 
     PWSCF        :    18.14s CPU        20.43s WALL

 
   This run was terminated on:   5:31:29  12May2018            

=------------------------------------------------------------------------------=
   JOB DONE.
=------------------------------------------------------------------------------=
