
     Program PWSCF v.6.0 (svn rev. 13079) starts on 28Jul2018 at  2:46:59 

     This program is part of the open-source Quantum ESPRESSO suite
     for quantum simulation of materials; please cite
         "P. Giannozzi et al., J. Phys.:Condens. Matter 21 395502 (2009);
          URL http://www.quantum-espresso.org", 
     in publications or presentations arising from this work. More details at
     http://www.quantum-espresso.org/quote

     Parallel version (MPI), running on    28 processors
     R & G space division:  proc/nbgrp/npool/nimage =      28
     Reading input from ../QMCmins/relax-87.in

     Current dimensions of program PWSCF are:
     Max number of different atomic species (ntypx) = 10
     Max number of k-points (npk) =  40000
     Max angular momentum in pseudopotentials (lmaxx) =  3
     Message from routine iosys:
     pot_extrapolation='second-order' not available, using 'atomic'
     Message from routine iosys:
     wfc_extrapolation='second-order' not available, using 'atomic'

     Subspace diagonalization in iterative solution of the eigenvalue problem:
     a serial algorithm will be used

 
     Parallelization info
     --------------------
     sticks:   dense  smooth     PW     G-vecs:    dense   smooth      PW
     Min         408     408    102                32936    32936    4116
     Max         409     409    103                32943    32943    4121
     Sum       11449   11449   2869               922329   922329  115313
 


     bravais-lattice index     =            1
     lattice parameter (alat)  =      20.0000  a.u.
     unit-cell volume          =    8000.0000 (a.u.)^3
     number of atoms/cell      =            3
     number of atomic types    =            2
     number of electrons       =         8.00
     number of Kohn-Sham states=            8
     kinetic-energy cutoff     =      90.0000  Ry
     charge density cutoff     =     360.0000  Ry
     convergence threshold     =      1.0E-08
     mixing beta               =       0.7000
     number of iterations used =            8  plain     mixing
     Exchange-correlation      = BLYP ( 1  3  1  3 0 0)
     nstep                     =           50


     celldm(1)=  20.000000  celldm(2)=   0.000000  celldm(3)=   0.000000
     celldm(4)=   0.000000  celldm(5)=   0.000000  celldm(6)=   0.000000

     crystal axes: (cart. coord. in units of alat)
               a(1) = (   1.000000   0.000000   0.000000 )  
               a(2) = (   0.000000   1.000000   0.000000 )  
               a(3) = (   0.000000   0.000000   1.000000 )  

     reciprocal axes: (cart. coord. in units 2 pi/alat)
               b(1) = (  1.000000  0.000000  0.000000 )  
               b(2) = (  0.000000  1.000000  0.000000 )  
               b(3) = (  0.000000  0.000000  1.000000 )  


     PseudoPot. # 1 for  H read from file:
     ../H.blyp-hgh.UPF
     MD5 check sum: c576e69559cde411e611be972c763230
     Pseudo is Norm-conserving, Zval =  1.0
     Generated in analytical, separable form
     Using radial grid of  929 points,  0 beta functions with: 

     PseudoPot. # 2 for  O read from file:
     ../O.blyp-hgh.UPF
     MD5 check sum: d0b7156309aa9befef28faac7bc56342
     Pseudo is Norm-conserving, Zval =  6.0
     Generated in analytical, separable form
     Using radial grid of 1095 points,  1 beta functions with: 
                l(1) =   0

     atomic species   valence    mass     pseudopotential
        H              1.00     1.01000      H( 1.00)
        O              6.00    16.00000      O( 1.00)

     No symmetry found



   Cartesian axes

     site n.     atom                  positions (alat units)
         1           H   tau(   1) = (   0.0643423   0.0684189   0.0343423  )
         2           H   tau(   2) = (  -0.0457917  -0.0298628   0.0778647  )
         3           O   tau(   3) = (  -0.0011710  -0.0024339  -0.0015051  )

     number of k points=     1  Marzari-Vanderbilt smearing, width (Ry)=  0.0250
                       cart. coord. in units 2pi/alat
        k(    1) = (   0.0000000   0.0000000   0.0000000), wk =   2.0000000

     Dense  grid:   922329 G-vectors     FFT dimensions: ( 125, 125, 125)

     Estimated max dynamical RAM per process >      31.67Mb

     Estimated total allocated dynamical RAM >     886.64Mb

     Initial potential from superposition of free atoms
     Check: negative starting charge=   -0.015905

     starting charge    7.99998, renormalised to    8.00000

     negative rho (up, down):  1.591E-02 0.000E+00
     Starting wfc are    6 randomized atomic wfcs +    2 random wfc

     total cpu time spent up to now is        0.7 secs

     per-process dynamical memory:    33.5 Mb

     Self-consistent Calculation

     iteration #  1     ecut=    90.00 Ry     beta=0.70
     Davidson diagonalization with overlap
     ethr =  1.00E-02,  avg # of iterations =  8.0

     negative rho (up, down):  4.607E-03 0.000E+00

     total cpu time spent up to now is        1.0 secs

     total energy              =     -34.02444755 Ry
     Harris-Foulkes estimate   =     -34.23859313 Ry
     estimated scf accuracy    <       0.32719505 Ry

     iteration #  2     ecut=    90.00 Ry     beta=0.70
     Davidson diagonalization with overlap
     ethr =  4.09E-03,  avg # of iterations =  2.0

     negative rho (up, down):  2.942E-03 0.000E+00

     total cpu time spent up to now is        1.2 secs

     total energy              =     -34.06489553 Ry
     Harris-Foulkes estimate   =     -34.27131012 Ry
     estimated scf accuracy    <       0.46757510 Ry

     iteration #  3     ecut=    90.00 Ry     beta=0.70
     Davidson diagonalization with overlap
     ethr =  4.09E-03,  avg # of iterations =  2.0

     negative rho (up, down):  1.360E-04 0.000E+00

     total cpu time spent up to now is        1.4 secs

     total energy              =     -34.16472611 Ry
     Harris-Foulkes estimate   =     -34.16521509 Ry
     estimated scf accuracy    <       0.00580634 Ry

     iteration #  4     ecut=    90.00 Ry     beta=0.70
     Davidson diagonalization with overlap
     ethr =  7.26E-05,  avg # of iterations =  6.0

     negative rho (up, down):  6.641E-06 0.000E+00

     total cpu time spent up to now is        1.6 secs

     total energy              =     -34.16625312 Ry
     Harris-Foulkes estimate   =     -34.16635350 Ry
     estimated scf accuracy    <       0.00027317 Ry

     iteration #  5     ecut=    90.00 Ry     beta=0.70
     Davidson diagonalization with overlap
     ethr =  3.41E-06,  avg # of iterations = 11.0

     negative rho (up, down):  4.094E-06 0.000E+00

     total cpu time spent up to now is        1.9 secs

     total energy              =     -34.16626883 Ry
     Harris-Foulkes estimate   =     -34.16627386 Ry
     estimated scf accuracy    <       0.00002027 Ry

     iteration #  6     ecut=    90.00 Ry     beta=0.70
     Davidson diagonalization with overlap
     ethr =  2.53E-07,  avg # of iterations =  2.0

     negative rho (up, down):  2.705E-07 0.000E+00

     total cpu time spent up to now is        2.1 secs

     total energy              =     -34.16627092 Ry
     Harris-Foulkes estimate   =     -34.16627140 Ry
     estimated scf accuracy    <       0.00000025 Ry

     iteration #  7     ecut=    90.00 Ry     beta=0.70
     Davidson diagonalization with overlap
     ethr =  3.17E-09,  avg # of iterations =  2.0

     total cpu time spent up to now is        2.4 secs

     total energy              =     -34.16627067 Ry
     Harris-Foulkes estimate   =     -34.16627099 Ry
     estimated scf accuracy    <       0.00000002 Ry

     iteration #  8     ecut=    90.00 Ry     beta=0.70
     Davidson diagonalization with overlap
     ethr =  2.62E-10,  avg # of iterations =  2.0

     total cpu time spent up to now is        2.5 secs

     End of self-consistent calculation

          k = 0.0000 0.0000 0.0000 (115313 PWs)   bands (ev):

   -24.4889 -12.1041  -9.1498  -6.9722  -1.2048   0.3321   0.5825   1.1393

     the Fermi energy is    -4.9276 ev

!    total energy              =     -34.16627054 Ry
     Harris-Foulkes estimate   =     -34.16627067 Ry
     estimated scf accuracy    <          6.2E-09 Ry

     The total energy is the sum of the following terms:

     one-electron contribution =     -62.22009139 Ry
     hartree contribution      =      32.56149482 Ry
     xc contribution           =      -8.24559694 Ry
     ewald contribution        =       3.73792297 Ry
     smearing contrib. (-TS)   =       0.00000000 Ry

     convergence has been achieved in   8 iterations

     Forces acting on atoms (Ry/au):

     atom    1 type  1   force =    -0.08953134   -0.09723869   -0.04643465
     atom    2 type  1   force =     0.02133074    0.01314700   -0.03301708
     atom    3 type  2   force =     0.06820060    0.08409170    0.07945173

     Total force =     0.198446     Total SCF correction =     0.000154

     BFGS Geometry Optimization

     number of scf cycles    =   1
     number of bfgs steps    =   0

     energy   new            =     -34.1662705395 Ry

     new trust radius        =       0.1400978260 bohr
     new conv_thr            =       0.0000000100 Ry


ATOMIC_POSITIONS (angstrom)
H        0.633592056   0.672657499   0.338890842
H       -0.473351258  -0.309096908   0.806613112
O        0.023697202   0.018740409   0.026115046



     Writing output data file pwscf.save
     Check: negative starting charge=   -0.015905
     NEW-OLD atomic charge density approx. for the potential
     Check: negative starting charge=   -0.015955

     negative rho (up, down):  2.318E-02 0.000E+00

     total cpu time spent up to now is        3.5 secs

     per-process dynamical memory:    45.8 Mb

     Self-consistent Calculation

     iteration #  1     ecut=    90.00 Ry     beta=0.70
     Davidson diagonalization with overlap
     c_bands:  1 eigenvalues not converged
     ethr =  1.00E-06,  avg # of iterations = 20.0

     negative rho (up, down):  6.161E-03 0.000E+00

     total cpu time spent up to now is        3.9 secs

     total energy              =     -34.16244404 Ry
     Harris-Foulkes estimate   =     -34.15288511 Ry
     estimated scf accuracy    <       0.01837856 Ry

     iteration #  2     ecut=    90.00 Ry     beta=0.70
     Davidson diagonalization with overlap
     ethr =  2.30E-04,  avg # of iterations =  3.0

     negative rho (up, down):  3.788E-03 0.000E+00

     total cpu time spent up to now is        4.1 secs

     total energy              =     -34.17000816 Ry
     Harris-Foulkes estimate   =     -34.17532110 Ry
     estimated scf accuracy    <       0.01858012 Ry

     iteration #  3     ecut=    90.00 Ry     beta=0.70
     Davidson diagonalization with overlap
     ethr =  2.30E-04,  avg # of iterations =  2.0

     negative rho (up, down):  8.611E-04 0.000E+00

     total cpu time spent up to now is        4.3 secs

     total energy              =     -34.17693441 Ry
     Harris-Foulkes estimate   =     -34.17388543 Ry
     estimated scf accuracy    <       0.00012960 Ry

     iteration #  4     ecut=    90.00 Ry     beta=0.70
     Davidson diagonalization with overlap
     ethr =  1.62E-06,  avg # of iterations = 18.0

     negative rho (up, down):  1.179E-04 0.000E+00

     total cpu time spent up to now is        4.6 secs

     total energy              =     -34.18111617 Ry
     Harris-Foulkes estimate   =     -34.18108323 Ry
     estimated scf accuracy    <       0.00000439 Ry

     iteration #  5     ecut=    90.00 Ry     beta=0.70
     Davidson diagonalization with overlap
     ethr =  5.49E-08,  avg # of iterations =  5.0

     negative rho (up, down):  3.336E-08 0.000E+00

     total cpu time spent up to now is        4.9 secs

     total energy              =     -34.18111298 Ry
     Harris-Foulkes estimate   =     -34.18111759 Ry
     estimated scf accuracy    <       0.00000025 Ry

     iteration #  6     ecut=    90.00 Ry     beta=0.70
     Davidson diagonalization with overlap
     ethr =  3.06E-09,  avg # of iterations =  2.0

     total cpu time spent up to now is        5.0 secs

     End of self-consistent calculation

          k = 0.0000 0.0000 0.0000 (115313 PWs)   bands (ev):

   -25.2204 -13.0750  -9.0219  -7.0941  -0.8948   0.4423   0.7739   1.1575

     the Fermi energy is    -5.0968 ev

!    total energy              =     -34.18111274 Ry
     Harris-Foulkes estimate   =     -34.18111308 Ry
     estimated scf accuracy    <          4.6E-09 Ry

     The total energy is the sum of the following terms:

     one-electron contribution =     -64.02787950 Ry
     hartree contribution      =      33.43214165 Ry
     xc contribution           =      -8.38514202 Ry
     ewald contribution        =       4.79976714 Ry
     smearing contrib. (-TS)   =       0.00000000 Ry

     convergence has been achieved in   6 iterations

     Forces acting on atoms (Ry/au):

     atom    1 type  1   force =     0.04023962    0.04502242    0.03003466
     atom    2 type  1   force =     0.00709962    0.00682055   -0.00028382
     atom    3 type  2   force =    -0.04733924   -0.05184297   -0.02975083

     Total force =     0.102270     Total SCF correction =     0.000179

     number of scf cycles    =   2
     number of bfgs steps    =   1

     energy   old            =     -34.1662705395 Ry
     energy   new            =     -34.1811127407 Ry

     CASE: energy  _new < energy  _old

     new trust radius        =       0.0495357214 bohr
     new conv_thr            =       0.0000000052 Ry


ATOMIC_POSITIONS (angstrom)
H        0.647271958   0.687985161   0.349252922
H       -0.470661879  -0.306567805   0.806266677
O        0.007327921   0.000883645   0.016099401



     Writing output data file pwscf.save
     Check: negative starting charge=   -0.015955
     NEW-OLD atomic charge density approx. for the potential
     Check: negative starting charge=   -0.015985

     negative rho (up, down):  8.954E-03 0.000E+00

     total cpu time spent up to now is        5.6 secs

     per-process dynamical memory:    45.8 Mb

     Self-consistent Calculation

     iteration #  1     ecut=    90.00 Ry     beta=0.70
     Davidson diagonalization with overlap
     ethr =  1.00E-06,  avg # of iterations = 19.0

     negative rho (up, down):  2.336E-03 0.000E+00

     total cpu time spent up to now is        6.1 secs

     total energy              =     -34.17715343 Ry
     Harris-Foulkes estimate   =     -34.16929553 Ry
     estimated scf accuracy    <       0.00162929 Ry

     iteration #  2     ecut=    90.00 Ry     beta=0.70
     Davidson diagonalization with overlap
     ethr =  2.04E-05,  avg # of iterations = 12.0

     negative rho (up, down):  1.354E-03 0.000E+00

     total cpu time spent up to now is        6.5 secs

     total energy              =     -34.17845368 Ry
     Harris-Foulkes estimate   =     -34.17807730 Ry
     estimated scf accuracy    <       0.00106988 Ry

     iteration #  3     ecut=    90.00 Ry     beta=0.70
     Davidson diagonalization with overlap
     ethr =  1.34E-05,  avg # of iterations =  4.0

     negative rho (up, down):  4.104E-04 0.000E+00

     total cpu time spent up to now is        6.7 secs

     total energy              =     -34.17886732 Ry
     Harris-Foulkes estimate   =     -34.17873265 Ry
     estimated scf accuracy    <       0.00004846 Ry

     iteration #  4     ecut=    90.00 Ry     beta=0.70
     Davidson diagonalization with overlap
     ethr =  6.06E-07,  avg # of iterations =  5.0

     negative rho (up, down):  1.796E-05 0.000E+00

     total cpu time spent up to now is        6.9 secs

     total energy              =     -34.18296242 Ry
     Harris-Foulkes estimate   =     -34.18295637 Ry
     estimated scf accuracy    <       0.00000095 Ry

     iteration #  5     ecut=    90.00 Ry     beta=0.70
     Davidson diagonalization with overlap
     ethr =  1.18E-08,  avg # of iterations =  9.0

     total cpu time spent up to now is        7.2 secs

     total energy              =     -34.18296270 Ry
     Harris-Foulkes estimate   =     -34.18296283 Ry
     estimated scf accuracy    <       0.00000003 Ry

     iteration #  6     ecut=    90.00 Ry     beta=0.70
     Davidson diagonalization with overlap
     ethr =  3.50E-10,  avg # of iterations =  2.0

     total cpu time spent up to now is        7.3 secs

     End of self-consistent calculation

          k = 0.0000 0.0000 0.0000 (115313 PWs)   bands (ev):

   -25.0315 -12.7961  -9.0822  -7.0633  -0.9556   0.4228   0.7348   1.1539

     the Fermi energy is    -5.0523 ev

!    total energy              =     -34.18296278 Ry
     Harris-Foulkes estimate   =     -34.18296272 Ry
     estimated scf accuracy    <          2.3E-09 Ry

     The total energy is the sum of the following terms:

     one-electron contribution =     -63.56420666 Ry
     hartree contribution      =      33.20848041 Ry
     xc contribution           =      -8.34833586 Ry
     ewald contribution        =       4.52109932 Ry
     smearing contrib. (-TS)   =       0.00000000 Ry

     convergence has been achieved in   6 iterations

     Forces acting on atoms (Ry/au):

     atom    1 type  1   force =    -0.02004880   -0.02168423   -0.00372569
     atom    2 type  1   force =    -0.00287923   -0.00126732    0.01523107
     atom    3 type  2   force =     0.02292803    0.02295155   -0.01150538

     Total force =     0.048091     Total SCF correction =     0.000093

     number of scf cycles    =   3
     number of bfgs steps    =   2

     energy   old            =     -34.1811127407 Ry
     energy   new            =     -34.1829627829 Ry

     CASE: energy  _new < energy  _old

     new trust radius        =       0.0189985900 bohr
     new conv_thr            =       0.0000000019 Ry


ATOMIC_POSITIONS (angstrom)
H        0.642577564   0.683007486   0.349990392
H       -0.471410870  -0.306674388   0.812281628
O        0.012771305   0.005967902   0.009346980



     Writing output data file pwscf.save
     Check: negative starting charge=   -0.015985
     NEW-OLD atomic charge density approx. for the potential
     Check: negative starting charge=   -0.015991

     negative rho (up, down):  3.253E-03 0.000E+00

     total cpu time spent up to now is        7.9 secs

     per-process dynamical memory:    45.8 Mb

     Self-consistent Calculation

     iteration #  1     ecut=    90.00 Ry     beta=0.70
     Davidson diagonalization with overlap
     c_bands:  1 eigenvalues not converged
     ethr =  1.00E-06,  avg # of iterations = 20.0

     negative rho (up, down):  8.395E-04 0.000E+00

     total cpu time spent up to now is        8.4 secs

     total energy              =     -34.17933138 Ry
     Harris-Foulkes estimate   =     -34.17717716 Ry
     estimated scf accuracy    <       0.00013322 Ry

     iteration #  2     ecut=    90.00 Ry     beta=0.70
     Davidson diagonalization with overlap
     ethr =  1.67E-06,  avg # of iterations = 17.0

     negative rho (up, down):  3.453E-04 0.000E+00

     total cpu time spent up to now is        8.7 secs

     total energy              =     -34.18346054 Ry
     Harris-Foulkes estimate   =     -34.18345445 Ry
     estimated scf accuracy    <       0.00002208 Ry

     iteration #  3     ecut=    90.00 Ry     beta=0.70
     Davidson diagonalization with overlap
     ethr =  2.76E-07,  avg # of iterations =  4.0

     negative rho (up, down):  1.268E-04 0.000E+00

     total cpu time spent up to now is        8.9 secs

     total energy              =     -34.18346866 Ry
     Harris-Foulkes estimate   =     -34.18346922 Ry
     estimated scf accuracy    <       0.00000570 Ry

     iteration #  4     ecut=    90.00 Ry     beta=0.70
     Davidson diagonalization with overlap
     ethr =  7.13E-08,  avg # of iterations =  2.0

     negative rho (up, down):  1.463E-06 0.000E+00

     total cpu time spent up to now is        9.1 secs

     total energy              =     -34.18347238 Ry
     Harris-Foulkes estimate   =     -34.18347018 Ry
     estimated scf accuracy    <       0.00000027 Ry

     iteration #  5     ecut=    90.00 Ry     beta=0.70
     Davidson diagonalization with overlap
     ethr =  3.40E-09,  avg # of iterations =  4.0

     total cpu time spent up to now is        9.3 secs

     total energy              =     -34.18347262 Ry
     Harris-Foulkes estimate   =     -34.18347250 Ry
     estimated scf accuracy    <          3.5E-09 Ry

     iteration #  6     ecut=    90.00 Ry     beta=0.70
     Davidson diagonalization with overlap
     ethr =  4.38E-11,  avg # of iterations =  3.0

     total cpu time spent up to now is        9.5 secs

     End of self-consistent calculation

          k = 0.0000 0.0000 0.0000 (115313 PWs)   bands (ev):

   -25.0188 -12.7430  -9.1152  -7.0626  -0.9617   0.4214   0.7316   1.1529

     the Fermi energy is    -5.0499 ev

!    total energy              =     -34.18347265 Ry
     Harris-Foulkes estimate   =     -34.18347262 Ry
     estimated scf accuracy    <          3.5E-10 Ry

     The total energy is the sum of the following terms:

     one-electron contribution =     -63.51837420 Ry
     hartree contribution      =      33.18536449 Ry
     xc contribution           =      -8.34453451 Ry
     ewald contribution        =       4.49407156 Ry
     smearing contrib. (-TS)   =       0.00000000 Ry

     convergence has been achieved in   6 iterations

     Forces acting on atoms (Ry/au):

     atom    1 type  1   force =    -0.00556845   -0.00698895    0.00151566
     atom    2 type  1   force =     0.01059144    0.00673933   -0.00862776
     atom    3 type  2   force =    -0.00502299    0.00024962    0.00711210

     Total force =     0.019750     Total SCF correction =     0.000063

     number of scf cycles    =   4
     number of bfgs steps    =   3

     energy   old            =     -34.1829627829 Ry
     energy   new            =     -34.1834726496 Ry

     CASE: energy  _new < energy  _old

     new trust radius        =       0.0124404017 bohr
     new conv_thr            =       0.0000000005 Ry


ATOMIC_POSITIONS (angstrom)
H        0.638656020   0.678342175   0.350878769
H       -0.466425411  -0.303397342   0.809498753
O        0.011707391   0.007356167   0.011241478



     Writing output data file pwscf.save
     Check: negative starting charge=   -0.015991
     NEW-OLD atomic charge density approx. for the potential
     Check: negative starting charge=   -0.015994

     negative rho (up, down):  7.142E-04 0.000E+00

     total cpu time spent up to now is       10.1 secs

     per-process dynamical memory:    45.8 Mb

     Self-consistent Calculation

     iteration #  1     ecut=    90.00 Ry     beta=0.70
     Davidson diagonalization with overlap
     ethr =  1.00E-06,  avg # of iterations =  5.0

     negative rho (up, down):  1.718E-04 0.000E+00

     total cpu time spent up to now is       10.5 secs

     total energy              =     -34.18358344 Ry
     Harris-Foulkes estimate   =     -34.18363989 Ry
     estimated scf accuracy    <       0.00010198 Ry

     iteration #  2     ecut=    90.00 Ry     beta=0.70
     Davidson diagonalization with overlap
     ethr =  1.27E-06,  avg # of iterations =  2.0

     negative rho (up, down):  9.899E-05 0.000E+00

     total cpu time spent up to now is       10.7 secs

     total energy              =     -34.18360727 Ry
     Harris-Foulkes estimate   =     -34.18365264 Ry
     estimated scf accuracy    <       0.00009881 Ry

     iteration #  3     ecut=    90.00 Ry     beta=0.70
     Davidson diagonalization with overlap
     ethr =  1.24E-06,  avg # of iterations =  2.0

     negative rho (up, down):  1.029E-05 0.000E+00

     total cpu time spent up to now is       10.9 secs

     total energy              =     -34.18362853 Ry
     Harris-Foulkes estimate   =     -34.18362851 Ry
     estimated scf accuracy    <       0.00000089 Ry

     iteration #  4     ecut=    90.00 Ry     beta=0.70
     Davidson diagonalization with overlap
     ethr =  1.11E-08,  avg # of iterations =  3.0

     negative rho (up, down):  2.235E-07 0.000E+00

     total cpu time spent up to now is       11.1 secs

     total energy              =     -34.18362877 Ry
     Harris-Foulkes estimate   =     -34.18362885 Ry
     estimated scf accuracy    <       0.00000002 Ry

     iteration #  5     ecut=    90.00 Ry     beta=0.70
     Davidson diagonalization with overlap
     ethr =  2.67E-10,  avg # of iterations =  2.0

     total cpu time spent up to now is       11.3 secs

     total energy              =     -34.18362877 Ry
     Harris-Foulkes estimate   =     -34.18362878 Ry
     estimated scf accuracy    <          1.1E-09 Ry

     iteration #  6     ecut=    90.00 Ry     beta=0.70
     Davidson diagonalization with overlap
     ethr =  1.34E-11,  avg # of iterations =  2.0

     total cpu time spent up to now is       11.4 secs

     End of self-consistent calculation

          k = 0.0000 0.0000 0.0000 (115313 PWs)   bands (ev):

   -25.0946 -12.7982  -9.1337  -7.0767  -0.9414   0.4277   0.7477   1.1546

     the Fermi energy is    -5.0676 ev

!    total energy              =     -34.18362876 Ry
     Harris-Foulkes estimate   =     -34.18362877 Ry
     estimated scf accuracy    <          5.9E-11 Ry

     The total energy is the sum of the following terms:

     one-electron contribution =     -63.67614284 Ry
     hartree contribution      =      33.26025478 Ry
     xc contribution           =      -8.35675882 Ry
     ewald contribution        =       4.58901813 Ry
     smearing contrib. (-TS)   =       0.00000000 Ry

     convergence has been achieved in   6 iterations

     Forces acting on atoms (Ry/au):

     atom    1 type  1   force =     0.00199067    0.00158511    0.00436118
     atom    2 type  1   force =     0.00272716    0.00180892    0.00166726
     atom    3 type  2   force =    -0.00471783   -0.00339404   -0.00602844

     Total force =     0.010445     Total SCF correction =     0.000017

     number of scf cycles    =   5
     number of bfgs steps    =   4

     energy   old            =     -34.1834726496 Ry
     energy   new            =     -34.1836287572 Ry

     CASE: energy  _new < energy  _old

     new trust radius        =       0.0062849008 bohr
     new conv_thr            =       0.0000000002 Ry


ATOMIC_POSITIONS (angstrom)
H        0.637968901   0.677204420   0.353049962
H       -0.463961690  -0.301761449   0.810094628
O        0.009930789   0.006858029   0.008474411



     Writing output data file pwscf.save
     Check: negative starting charge=   -0.015994
     NEW-OLD atomic charge density approx. for the potential
     Check: negative starting charge=   -0.015999

     negative rho (up, down):  9.432E-04 0.000E+00

     total cpu time spent up to now is       12.0 secs

     per-process dynamical memory:    45.8 Mb

     Self-consistent Calculation

     iteration #  1     ecut=    90.00 Ry     beta=0.70
     Davidson diagonalization with overlap
     ethr =  1.00E-06,  avg # of iterations =  5.0

     negative rho (up, down):  2.323E-04 0.000E+00

     total cpu time spent up to now is       12.4 secs

     total energy              =     -34.18369135 Ry
     Harris-Foulkes estimate   =     -34.18366742 Ry
     estimated scf accuracy    <       0.00000974 Ry

     iteration #  2     ecut=    90.00 Ry     beta=0.70
     Davidson diagonalization with overlap
     ethr =  1.22E-07,  avg # of iterations =  3.0

     negative rho (up, down):  1.272E-04 0.000E+00

     total cpu time spent up to now is       12.6 secs

     total energy              =     -34.18369424 Ry
     Harris-Foulkes estimate   =     -34.18369703 Ry
     estimated scf accuracy    <       0.00000701 Ry

     iteration #  3     ecut=    90.00 Ry     beta=0.70
     Davidson diagonalization with overlap
     ethr =  8.77E-08,  avg # of iterations =  2.0

     negative rho (up, down):  7.889E-06 0.000E+00

     total cpu time spent up to now is       12.8 secs

     total energy              =     -34.18369896 Ry
     Harris-Foulkes estimate   =     -34.18369599 Ry
     estimated scf accuracy    <       0.00000030 Ry

     iteration #  4     ecut=    90.00 Ry     beta=0.70
     Davidson diagonalization with overlap
     ethr =  3.80E-09,  avg # of iterations =  3.0

     negative rho (up, down):  8.349E-08 0.000E+00

     total cpu time spent up to now is       13.0 secs

     total energy              =     -34.18369931 Ry
     Harris-Foulkes estimate   =     -34.18369907 Ry
     estimated scf accuracy    <          6.9E-09 Ry

     iteration #  5     ecut=    90.00 Ry     beta=0.70
     Davidson diagonalization with overlap
     ethr =  8.63E-11,  avg # of iterations =  3.0

     total cpu time spent up to now is       13.2 secs

     total energy              =     -34.18369936 Ry
     Harris-Foulkes estimate   =     -34.18369931 Ry
     estimated scf accuracy    <          2.9E-10 Ry

     iteration #  6     ecut=    90.00 Ry     beta=0.70
     Davidson diagonalization with overlap
     ethr =  3.58E-12,  avg # of iterations =  2.0

     total cpu time spent up to now is       13.3 secs

     End of self-consistent calculation

          k = 0.0000 0.0000 0.0000 (115313 PWs)   bands (ev):

   -25.0941 -12.7618  -9.1605  -7.0777  -0.9455   0.4262   0.7469   1.1542

     the Fermi energy is    -5.0677 ev

!    total energy              =     -34.18369938 Ry
     Harris-Foulkes estimate   =     -34.18369936 Ry
     estimated scf accuracy    <          1.3E-11 Ry

     The total energy is the sum of the following terms:

     one-electron contribution =     -63.65640034 Ry
     hartree contribution      =      33.24999036 Ry
     xc contribution           =      -8.35512457 Ry
     ewald contribution        =       4.57783517 Ry
     smearing contrib. (-TS)   =       0.00000000 Ry

     convergence has been achieved in   6 iterations

     Forces acting on atoms (Ry/au):

     atom    1 type  1   force =     0.00100986    0.00011064    0.00246323
     atom    2 type  1   force =     0.00211439    0.00110456    0.00194265
     atom    3 type  2   force =    -0.00312425   -0.00121520   -0.00440588

     Total force =     0.006871     Total SCF correction =     0.000017

     number of scf cycles    =   6
     number of bfgs steps    =   5

     energy   old            =     -34.1836287572 Ry
     energy   new            =     -34.1836993825 Ry

     CASE: energy  _new < energy  _old

     new trust radius        =       0.0069133909 bohr
     new conv_thr            =            1.0E-10 Ry


ATOMIC_POSITIONS (angstrom)
H        0.637089092   0.675436686   0.355094610
H       -0.461020711  -0.300005510   0.811072461
O        0.007869619   0.006869824   0.005451929



     Writing output data file pwscf.save
     Check: negative starting charge=   -0.015999
     NEW-OLD atomic charge density approx. for the potential
     Check: negative starting charge=   -0.016004

     negative rho (up, down):  1.048E-03 0.000E+00

     total cpu time spent up to now is       13.9 secs

     per-process dynamical memory:    45.8 Mb

     Self-consistent Calculation

     iteration #  1     ecut=    90.00 Ry     beta=0.70
     Davidson diagonalization with overlap
     ethr =  1.00E-06,  avg # of iterations = 15.0

     negative rho (up, down):  2.597E-04 0.000E+00

     total cpu time spent up to now is       14.2 secs

     total energy              =     -34.18374225 Ry
     Harris-Foulkes estimate   =     -34.18369996 Ry
     estimated scf accuracy    <       0.00000999 Ry

     iteration #  2     ecut=    90.00 Ry     beta=0.70
     Davidson diagonalization with overlap
     ethr =  1.25E-07,  avg # of iterations =  5.0

     negative rho (up, down):  1.333E-04 0.000E+00

     total cpu time spent up to now is       14.5 secs

     total energy              =     -34.18374550 Ry
     Harris-Foulkes estimate   =     -34.18374733 Ry
     estimated scf accuracy    <       0.00000565 Ry

     iteration #  3     ecut=    90.00 Ry     beta=0.70
     Davidson diagonalization with overlap
     ethr =  7.06E-08,  avg # of iterations =  2.0

     negative rho (up, down):  6.988E-06 0.000E+00

     total cpu time spent up to now is       14.7 secs

     total energy              =     -34.18374987 Ry
     Harris-Foulkes estimate   =     -34.18374713 Ry
     estimated scf accuracy    <       0.00000049 Ry

     iteration #  4     ecut=    90.00 Ry     beta=0.70
     Davidson diagonalization with overlap
     ethr =  6.18E-09,  avg # of iterations = 18.0

     negative rho (up, down):  4.157E-08 0.000E+00

     total cpu time spent up to now is       14.9 secs

     total energy              =     -34.18375025 Ry
     Harris-Foulkes estimate   =     -34.18375002 Ry
     estimated scf accuracy    <          6.3E-09 Ry

     iteration #  5     ecut=    90.00 Ry     beta=0.70
     Davidson diagonalization with overlap
     ethr =  7.89E-11,  avg # of iterations =  3.0

     total cpu time spent up to now is       15.1 secs

     total energy              =     -34.18375025 Ry
     Harris-Foulkes estimate   =     -34.18375026 Ry
     estimated scf accuracy    <          3.1E-10 Ry

     iteration #  6     ecut=    90.00 Ry     beta=0.70
     Davidson diagonalization with overlap
     ethr =  3.91E-12,  avg # of iterations =  2.0

     total cpu time spent up to now is       15.3 secs

     End of self-consistent calculation

          k = 0.0000 0.0000 0.0000 (115313 PWs)   bands (ev):

   -25.0959 -12.7245  -9.1902  -7.0793  -0.9494   0.4247   0.7467   1.1333

     the Fermi energy is    -5.0839 ev

!    total energy              =     -34.18375027 Ry
     Harris-Foulkes estimate   =     -34.18375026 Ry
     estimated scf accuracy    <          1.7E-11 Ry

     The total energy is the sum of the following terms:

     one-electron contribution =     -63.64081691 Ry
     hartree contribution      =      33.24163285 Ry
     xc contribution           =      -8.35381981 Ry
     ewald contribution        =       4.56925360 Ry
     smearing contrib. (-TS)   =       0.00000000 Ry

     convergence has been achieved in   6 iterations

     Forces acting on atoms (Ry/au):

     atom    1 type  1   force =     0.00071437    0.00004332    0.00066726
     atom    2 type  1   force =     0.00144497    0.00090768    0.00149323
     atom    3 type  2   force =    -0.00215934   -0.00095101   -0.00216049

     Total force =     0.004042     Total SCF correction =     0.000012

     number of scf cycles    =   7
     number of bfgs steps    =   6

     energy   old            =     -34.1836993825 Ry
     energy   new            =     -34.1837502737 Ry

     CASE: energy  _new < energy  _old

     new trust radius        =       0.0101165046 bohr
     new conv_thr            =            1.0E-10 Ry


ATOMIC_POSITIONS (angstrom)
H        0.636063980   0.673017895   0.357005864
H       -0.456803097  -0.297324931   0.812992193
O        0.004677117   0.006608036   0.001620943



     Writing output data file pwscf.save
     Check: negative starting charge=   -0.016004
     NEW-OLD atomic charge density approx. for the potential
     Check: negative starting charge=   -0.016010

     negative rho (up, down):  1.488E-03 0.000E+00

     total cpu time spent up to now is       16.2 secs

     per-process dynamical memory:    45.8 Mb

     Self-consistent Calculation

     iteration #  1     ecut=    90.00 Ry     beta=0.70
     Davidson diagonalization with overlap
     ethr =  1.00E-06,  avg # of iterations = 18.0

     negative rho (up, down):  3.749E-04 0.000E+00

     total cpu time spent up to now is       16.6 secs

     total energy              =     -34.17967554 Ry
     Harris-Foulkes estimate   =     -34.17945713 Ry
     estimated scf accuracy    <       0.00001782 Ry

     iteration #  2     ecut=    90.00 Ry     beta=0.70
     Davidson diagonalization with overlap
     ethr =  2.23E-07,  avg # of iterations =  7.0

     negative rho (up, down):  1.809E-04 0.000E+00

     total cpu time spent up to now is       16.8 secs

     total energy              =     -34.18375798 Ry
     Harris-Foulkes estimate   =     -34.18376097 Ry
     estimated scf accuracy    <       0.00000770 Ry

     iteration #  3     ecut=    90.00 Ry     beta=0.70
     Davidson diagonalization with overlap
     ethr =  9.63E-08,  avg # of iterations = 17.0

     negative rho (up, down):  1.411E-05 0.000E+00

     total cpu time spent up to now is       17.1 secs

     total energy              =     -34.18376329 Ry
     Harris-Foulkes estimate   =     -34.18376054 Ry
     estimated scf accuracy    <       0.00000118 Ry

     iteration #  4     ecut=    90.00 Ry     beta=0.70
     Davidson diagonalization with overlap
     ethr =  1.48E-08,  avg # of iterations =  4.0

     negative rho (up, down):  2.769E-08 0.000E+00

     total cpu time spent up to now is       17.3 secs

     total energy              =     -34.18376384 Ry
     Harris-Foulkes estimate   =     -34.18376359 Ry
     estimated scf accuracy    <          9.8E-09 Ry

     iteration #  5     ecut=    90.00 Ry     beta=0.70
     Davidson diagonalization with overlap
     ethr =  1.23E-10,  avg # of iterations =  2.0

     total cpu time spent up to now is       17.5 secs

     total energy              =     -34.18376397 Ry
     Harris-Foulkes estimate   =     -34.18376385 Ry
     estimated scf accuracy    <          8.1E-10 Ry

     iteration #  6     ecut=    90.00 Ry     beta=0.70
     Davidson diagonalization with overlap
     ethr =  1.01E-11,  avg # of iterations =  2.0

     total cpu time spent up to now is       17.7 secs

     End of self-consistent calculation

          k = 0.0000 0.0000 0.0000 (115313 PWs)   bands (ev):

   -25.0976 -12.6746  -9.2297  -7.0809  -0.9547   0.4227   0.7463   1.1357

     the Fermi energy is    -5.0824 ev

!    total energy              =     -34.18376398 Ry
     Harris-Foulkes estimate   =     -34.18376397 Ry
     estimated scf accuracy    <          9.1E-11 Ry

     The total energy is the sum of the following terms:

     one-electron contribution =     -63.61922473 Ry
     hartree contribution      =      33.23015235 Ry
     xc contribution           =      -8.35202921 Ry
     ewald contribution        =       4.55733761 Ry
     smearing contrib. (-TS)   =       0.00000000 Ry

     convergence has been achieved in   6 iterations

     Forces acting on atoms (Ry/au):

     atom    1 type  1   force =    -0.00084150    0.00007760   -0.00278963
     atom    2 type  1   force =    -0.00050039    0.00090125    0.00021414
     atom    3 type  2   force =     0.00134189   -0.00097884    0.00257550

     Total force =     0.004359     Total SCF correction =     0.000009

     number of scf cycles    =   8
     number of bfgs steps    =   7

     energy   old            =     -34.1837502737 Ry
     energy   new            =     -34.1837639775 Ry

     CASE: energy  _new < energy  _old

     new trust radius        =       0.0035590039 bohr
     new conv_thr            =            1.0E-10 Ry


ATOMIC_POSITIONS (angstrom)
H        0.636309583   0.673879680   0.355672570
H       -0.458104400  -0.297770678   0.812822360
O        0.005732818   0.006191998   0.003124070



     Writing output data file pwscf.save
     Check: negative starting charge=   -0.016010
     NEW-OLD atomic charge density approx. for the potential
     Check: negative starting charge=   -0.016008

     negative rho (up, down):  4.912E-04 0.000E+00

     total cpu time spent up to now is       18.4 secs

     per-process dynamical memory:    45.8 Mb

     Self-consistent Calculation

     iteration #  1     ecut=    90.00 Ry     beta=0.70
     Davidson diagonalization with overlap
     ethr =  1.00E-06,  avg # of iterations =  4.0

     Threshold (ethr) on eigenvalues was too large:
     Diagonalizing with lowered threshold

     Davidson diagonalization with overlap
     ethr =  3.35E-08,  avg # of iterations =  2.0

     negative rho (up, down):  1.148E-04 0.000E+00

     total cpu time spent up to now is       18.8 secs

     total energy              =     -34.18377216 Ry
     Harris-Foulkes estimate   =     -34.18376620 Ry
     estimated scf accuracy    <       0.00000248 Ry

     iteration #  2     ecut=    90.00 Ry     beta=0.70
     Davidson diagonalization with overlap
     ethr =  3.10E-08,  avg # of iterations =  3.0

     negative rho (up, down):  5.154E-05 0.000E+00

     total cpu time spent up to now is       19.0 secs

     total energy              =     -34.18377340 Ry
     Harris-Foulkes estimate   =     -34.18377325 Ry
     estimated scf accuracy    <       0.00000113 Ry

     iteration #  3     ecut=    90.00 Ry     beta=0.70
     Davidson diagonalization with overlap
     ethr =  1.41E-08,  avg # of iterations =  2.0

     negative rho (up, down):  1.211E-06 0.000E+00

     total cpu time spent up to now is       19.2 secs

     total energy              =     -34.18377353 Ry
     Harris-Foulkes estimate   =     -34.18377377 Ry
     estimated scf accuracy    <       0.00000016 Ry

     iteration #  4     ecut=    90.00 Ry     beta=0.70
     Davidson diagonalization with overlap
     ethr =  1.95E-09,  avg # of iterations =  2.0

     total cpu time spent up to now is       19.4 secs

     total energy              =     -34.18377357 Ry
     Harris-Foulkes estimate   =     -34.18377359 Ry
     estimated scf accuracy    <          1.2E-09 Ry

     iteration #  5     ecut=    90.00 Ry     beta=0.70
     Davidson diagonalization with overlap
     ethr =  1.46E-11,  avg # of iterations =  3.0

     total cpu time spent up to now is       19.6 secs

     total energy              =     -34.18377354 Ry
     Harris-Foulkes estimate   =     -34.18377358 Ry
     estimated scf accuracy    <          2.4E-10 Ry

     iteration #  6     ecut=    90.00 Ry     beta=0.70
     Davidson diagonalization with overlap
     ethr =  2.98E-12,  avg # of iterations =  2.0

     total cpu time spent up to now is       19.7 secs

     End of self-consistent calculation

          k = 0.0000 0.0000 0.0000 (115313 PWs)   bands (ev):

   -25.0978 -12.6924  -9.2161  -7.0805  -0.9527   0.4234   0.7466   1.1355

     the Fermi energy is    -5.0827 ev

!    total energy              =     -34.18377353 Ry
     Harris-Foulkes estimate   =     -34.18377354 Ry
     estimated scf accuracy    <          1.2E-11 Ry

     The total energy is the sum of the following terms:

     one-electron contribution =     -63.62829655 Ry
     hartree contribution      =      33.23485694 Ry
     xc contribution           =      -8.35277449 Ry
     ewald contribution        =       4.56244057 Ry
     smearing contrib. (-TS)   =       0.00000000 Ry

     convergence has been achieved in   6 iterations

     Forces acting on atoms (Ry/au):

     atom    1 type  1   force =    -0.00003363   -0.00013903   -0.00130380
     atom    2 type  1   force =     0.00030788    0.00062712    0.00119861
     atom    3 type  2   force =    -0.00027425   -0.00048809    0.00010519

     Total force =     0.001992     Total SCF correction =     0.000014

     number of scf cycles    =   9
     number of bfgs steps    =   8

     energy   old            =     -34.1837639775 Ry
     energy   new            =     -34.1837735283 Ry

     CASE: energy  _new < energy  _old

     new trust radius        =       0.0020829390 bohr
     new conv_thr            =            1.0E-10 Ry


ATOMIC_POSITIONS (angstrom)
H        0.636222644   0.673810326   0.354694860
H       -0.457811156  -0.297154915   0.813688262
O        0.005526512   0.005645589   0.003235878



     Writing output data file pwscf.save
     Check: negative starting charge=   -0.016008
     NEW-OLD atomic charge density approx. for the potential
     Check: negative starting charge=   -0.016008

     negative rho (up, down):  1.242E-04 0.000E+00

     total cpu time spent up to now is       20.3 secs

     per-process dynamical memory:    45.8 Mb

     Self-consistent Calculation

     iteration #  1     ecut=    90.00 Ry     beta=0.70
     Davidson diagonalization with overlap
     ethr =  1.00E-06,  avg # of iterations =  3.0

     Threshold (ethr) on eigenvalues was too large:
     Diagonalizing with lowered threshold

     Davidson diagonalization with overlap
     ethr =  3.93E-09,  avg # of iterations =  3.0

     negative rho (up, down):  2.315E-05 0.000E+00

     total cpu time spent up to now is       20.9 secs

     total energy              =     -34.18377896 Ry
     Harris-Foulkes estimate   =     -34.18377764 Ry
     estimated scf accuracy    <       0.00000042 Ry

     iteration #  2     ecut=    90.00 Ry     beta=0.70
     Davidson diagonalization with overlap
     ethr =  5.26E-09,  avg # of iterations =  2.0

     negative rho (up, down):  1.969E-06 0.000E+00

     total cpu time spent up to now is       21.1 secs

     total energy              =     -34.18377922 Ry
     Harris-Foulkes estimate   =     -34.18377904 Ry
     estimated scf accuracy    <       0.00000003 Ry

     iteration #  3     ecut=    90.00 Ry     beta=0.70
     Davidson diagonalization with overlap
     ethr =  3.21E-10,  avg # of iterations =  2.0

     total cpu time spent up to now is       21.3 secs

     total energy              =     -34.18377919 Ry
     Harris-Foulkes estimate   =     -34.18377923 Ry
     estimated scf accuracy    <          2.7E-09 Ry

     iteration #  4     ecut=    90.00 Ry     beta=0.70
     Davidson diagonalization with overlap
     ethr =  3.37E-11,  avg # of iterations =  2.0

     total cpu time spent up to now is       21.5 secs

     total energy              =     -34.18377923 Ry
     Harris-Foulkes estimate   =     -34.18377920 Ry
     estimated scf accuracy    <          8.5E-10 Ry

     iteration #  5     ecut=    90.00 Ry     beta=0.70
     Davidson diagonalization with overlap
     ethr =  1.06E-11,  avg # of iterations =  2.0

     total cpu time spent up to now is       21.6 secs

     End of self-consistent calculation

          k = 0.0000 0.0000 0.0000 (115313 PWs)   bands (ev):

   -25.0979 -12.6915  -9.2169  -7.0805  -0.9527   0.4234   0.7465   1.1353

     the Fermi energy is    -5.0828 ev

!    total energy              =     -34.18377922 Ry
     Harris-Foulkes estimate   =     -34.18377923 Ry
     estimated scf accuracy    <          1.4E-11 Ry

     The total energy is the sum of the following terms:

     one-electron contribution =     -63.62796523 Ry
     hartree contribution      =      33.23467532 Ry
     xc contribution           =      -8.35275112 Ry
     ewald contribution        =       4.56226181 Ry
     smearing contrib. (-TS)   =       0.00000000 Ry

     convergence has been achieved in   5 iterations

     Forces acting on atoms (Ry/au):

     atom    1 type  1   force =     0.00005779   -0.00028884   -0.00121488
     atom    2 type  1   force =     0.00037336    0.00045776    0.00128055
     atom    3 type  2   force =    -0.00043114   -0.00016892   -0.00006567

     Total force =     0.001942     Total SCF correction =     0.000027

     number of scf cycles    =  10
     number of bfgs steps    =   9

     energy   old            =     -34.1837735283 Ry
     energy   new            =     -34.1837792153 Ry

     CASE: energy  _new < energy  _old


     WARNING: bfgs curvature condition failed, Theta= 0.872
     new trust radius        =       0.0022912329 bohr
     new conv_thr            =            1.0E-10 Ry


ATOMIC_POSITIONS (angstrom)
H        0.636143221   0.673666185   0.353686383
H       -0.457425363  -0.296509993   0.814639744
O        0.005220142   0.005144808   0.003292873



     Writing output data file pwscf.save
     Check: negative starting charge=   -0.016008
     NEW-OLD atomic charge density approx. for the potential
     Check: negative starting charge=   -0.016009

     negative rho (up, down):  1.241E-04 0.000E+00

     total cpu time spent up to now is       22.2 secs

     per-process dynamical memory:    45.8 Mb

     Self-consistent Calculation

     iteration #  1     ecut=    90.00 Ry     beta=0.70
     Davidson diagonalization with overlap
     ethr =  1.00E-06,  avg # of iterations =  3.0

     Threshold (ethr) on eigenvalues was too large:
     Diagonalizing with lowered threshold

     Davidson diagonalization with overlap
     ethr =  4.27E-09,  avg # of iterations =  3.0

     negative rho (up, down):  2.311E-05 0.000E+00

     total cpu time spent up to now is       22.6 secs

     total energy              =     -34.18378477 Ry
     Harris-Foulkes estimate   =     -34.18378358 Ry
     estimated scf accuracy    <       0.00000045 Ry

     iteration #  2     ecut=    90.00 Ry     beta=0.70
     Davidson diagonalization with overlap
     ethr =  5.64E-09,  avg # of iterations =  2.0

     negative rho (up, down):  2.100E-06 0.000E+00

     total cpu time spent up to now is       22.8 secs

     total energy              =     -34.18378489 Ry
     Harris-Foulkes estimate   =     -34.18378486 Ry
     estimated scf accuracy    <       0.00000003 Ry

     iteration #  3     ecut=    90.00 Ry     beta=0.70
     Davidson diagonalization with overlap
     ethr =  3.81E-10,  avg # of iterations =  2.0

     negative rho (up, down):  4.755E-08 0.000E+00

     total cpu time spent up to now is       23.0 secs

     total energy              =     -34.18378495 Ry
     Harris-Foulkes estimate   =     -34.18378490 Ry
     estimated scf accuracy    <          6.6E-09 Ry

     iteration #  4     ecut=    90.00 Ry     beta=0.70
     Davidson diagonalization with overlap
     ethr =  8.28E-11,  avg # of iterations =  2.0

     total cpu time spent up to now is       23.2 secs

     total energy              =     -34.18378495 Ry
     Harris-Foulkes estimate   =     -34.18378496 Ry
     estimated scf accuracy    <          1.9E-09 Ry

     iteration #  5     ecut=    90.00 Ry     beta=0.70
     Davidson diagonalization with overlap
     ethr =  2.31E-11,  avg # of iterations =  2.0

     total cpu time spent up to now is       23.3 secs

     End of self-consistent calculation

          k = 0.0000 0.0000 0.0000 (115313 PWs)   bands (ev):

   -25.0980 -12.6899  -9.2182  -7.0806  -0.9529   0.4233   0.7464   1.1351

     the Fermi energy is    -5.0830 ev

!    total energy              =     -34.18378496 Ry
     Harris-Foulkes estimate   =     -34.18378495 Ry
     estimated scf accuracy    <          1.1E-11 Ry

     The total energy is the sum of the following terms:

     one-electron contribution =     -63.62736040 Ry
     hartree contribution      =      33.23435404 Ry
     xc contribution           =      -8.35270617 Ry
     ewald contribution        =       4.56192757 Ry
     smearing contrib. (-TS)   =       0.00000000 Ry

     convergence has been achieved in   5 iterations

     Forces acting on atoms (Ry/au):

     atom    1 type  1   force =     0.00011805   -0.00037304   -0.00116060
     atom    2 type  1   force =     0.00039591    0.00033422    0.00129255
     atom    3 type  2   force =    -0.00051396    0.00003883   -0.00013195

     Total force =     0.001929     Total SCF correction =     0.000015

     number of scf cycles    =  11
     number of bfgs steps    =  10

     energy   old            =     -34.1837792153 Ry
     energy   new            =     -34.1837849640 Ry

     CASE: energy  _new < energy  _old

     new trust radius        =       0.0034368494 bohr
     new conv_thr            =            1.0E-10 Ry


ATOMIC_POSITIONS (angstrom)
H        0.636057626   0.673396604   0.352194560
H       -0.456804580  -0.295587114   0.816078702
O        0.004684954   0.004491510   0.003345738



     Writing output data file pwscf.save
     Check: negative starting charge=   -0.016009
     NEW-OLD atomic charge density approx. for the potential
     Check: negative starting charge=   -0.016009

     negative rho (up, down):  1.950E-04 0.000E+00

     total cpu time spent up to now is       23.9 secs

     per-process dynamical memory:    45.8 Mb

     Self-consistent Calculation

     iteration #  1     ecut=    90.00 Ry     beta=0.70
     Davidson diagonalization with overlap
     ethr =  1.00E-06,  avg # of iterations =  3.0

     Threshold (ethr) on eigenvalues was too large:
     Diagonalizing with lowered threshold

     Davidson diagonalization with overlap
     ethr =  9.53E-09,  avg # of iterations =  2.0

     negative rho (up, down):  4.006E-05 0.000E+00

     total cpu time spent up to now is       24.3 secs

     total energy              =     -34.18379270 Ry
     Harris-Foulkes estimate   =     -34.18379080 Ry
     estimated scf accuracy    <       0.00000094 Ry

     iteration #  2     ecut=    90.00 Ry     beta=0.70
     Davidson diagonalization with overlap
     ethr =  1.18E-08,  avg # of iterations =  2.0

     negative rho (up, down):  4.073E-06 0.000E+00

     total cpu time spent up to now is       24.4 secs

     total energy              =     -34.18379293 Ry
     Harris-Foulkes estimate   =     -34.18379285 Ry
     estimated scf accuracy    <       0.00000007 Ry

     iteration #  3     ecut=    90.00 Ry     beta=0.70
     Davidson diagonalization with overlap
     ethr =  8.53E-10,  avg # of iterations =  2.0

     negative rho (up, down):  2.213E-07 0.000E+00

     total cpu time spent up to now is       24.6 secs

     total energy              =     -34.18379304 Ry
     Harris-Foulkes estimate   =     -34.18379296 Ry
     estimated scf accuracy    <       0.00000002 Ry

     iteration #  4     ecut=    90.00 Ry     beta=0.70
     Davidson diagonalization with overlap
     ethr =  2.97E-10,  avg # of iterations =  2.0

     total cpu time spent up to now is       24.8 secs

     total energy              =     -34.18379303 Ry
     Harris-Foulkes estimate   =     -34.18379305 Ry
     estimated scf accuracy    <          3.5E-09 Ry

     iteration #  5     ecut=    90.00 Ry     beta=0.70
     Davidson diagonalization with overlap
     ethr =  4.38E-11,  avg # of iterations =  2.0

     total cpu time spent up to now is       24.9 secs

     End of self-consistent calculation

          k = 0.0000 0.0000 0.0000 (115313 PWs)   bands (ev):

   -25.0980 -12.6874  -9.2202  -7.0807  -0.9532   0.4232   0.7464   1.1350

     the Fermi energy is    -5.0831 ev

!    total energy              =     -34.18379305 Ry
     Harris-Foulkes estimate   =     -34.18379303 Ry
     estimated scf accuracy    <          2.4E-11 Ry

     The total energy is the sum of the following terms:

     one-electron contribution =     -63.62625014 Ry
     hartree contribution      =      33.23377085 Ry
     xc contribution           =      -8.35262206 Ry
     ewald contribution        =       4.56130829 Ry
     smearing contrib. (-TS)   =       0.00000000 Ry

     convergence has been achieved in   5 iterations

     Forces acting on atoms (Ry/au):

     atom    1 type  1   force =     0.00015118   -0.00045727   -0.00109927
     atom    2 type  1   force =     0.00037945    0.00018503    0.00124021
     atom    3 type  2   force =    -0.00053063    0.00027224   -0.00014095

     Total force =     0.001879     Total SCF correction =     0.000030

     number of scf cycles    =  12
     number of bfgs steps    =  11

     energy   old            =     -34.1837849640 Ry
     energy   new            =     -34.1837930516 Ry

     CASE: energy  _new < energy  _old

     new trust radius        =       0.0051552740 bohr
     new conv_thr            =            1.0E-10 Ry


ATOMIC_POSITIONS (angstrom)
H        0.635977329   0.672950136   0.349905018
H       -0.455863216  -0.294265340   0.818271651
O        0.003823887   0.003616204   0.003442331



     Writing output data file pwscf.save
     Check: negative starting charge=   -0.016009
     NEW-OLD atomic charge density approx. for the potential
     Check: negative starting charge=   -0.016010

     negative rho (up, down):  3.062E-04 0.000E+00

     total cpu time spent up to now is       25.5 secs

     per-process dynamical memory:    45.8 Mb

     Self-consistent Calculation

     iteration #  1     ecut=    90.00 Ry     beta=0.70
     Davidson diagonalization with overlap
     ethr =  1.00E-06,  avg # of iterations =  3.0

     Threshold (ethr) on eigenvalues was too large:
     Diagonalizing with lowered threshold

     Davidson diagonalization with overlap
     ethr =  2.55E-08,  avg # of iterations =  1.0

     negative rho (up, down):  6.778E-05 0.000E+00

     total cpu time spent up to now is       25.8 secs

     total energy              =     -34.18380303 Ry
     Harris-Foulkes estimate   =     -34.18380085 Ry
     estimated scf accuracy    <       0.00000212 Ry

     iteration #  2     ecut=    90.00 Ry     beta=0.70
     Davidson diagonalization with overlap
     ethr =  2.65E-08,  avg # of iterations =  2.0

     negative rho (up, down):  8.366E-06 0.000E+00

     total cpu time spent up to now is       26.0 secs

     total energy              =     -34.18380371 Ry
     Harris-Foulkes estimate   =     -34.18380334 Ry
     estimated scf accuracy    <       0.00000015 Ry

     iteration #  3     ecut=    90.00 Ry     beta=0.70
     Davidson diagonalization with overlap
     ethr =  1.85E-09,  avg # of iterations =  3.0

     negative rho (up, down):  4.687E-07 0.000E+00

     total cpu time spent up to now is       26.2 secs

     total energy              =     -34.18380384 Ry
     Harris-Foulkes estimate   =     -34.18380376 Ry
     estimated scf accuracy    <       0.00000004 Ry

     iteration #  4     ecut=    90.00 Ry     beta=0.70
     Davidson diagonalization with overlap
     ethr =  5.50E-10,  avg # of iterations =  2.0

     total cpu time spent up to now is       26.5 secs

     total energy              =     -34.18380389 Ry
     Harris-Foulkes estimate   =     -34.18380385 Ry
     estimated scf accuracy    <          7.9E-09 Ry

     iteration #  5     ecut=    90.00 Ry     beta=0.70
     Davidson diagonalization with overlap
     ethr =  9.93E-11,  avg # of iterations =  2.0

     total cpu time spent up to now is       26.6 secs

     End of self-consistent calculation

          k = 0.0000 0.0000 0.0000 (115313 PWs)   bands (ev):

   -25.0979 -12.6839  -9.2229  -7.0807  -0.9536   0.4231   0.7462   1.1347

     the Fermi energy is    -5.0833 ev

!    total energy              =     -34.18380390 Ry
     Harris-Foulkes estimate   =     -34.18380390 Ry
     estimated scf accuracy    <          4.4E-11 Ry

     The total energy is the sum of the following terms:

     one-electron contribution =     -63.62460551 Ry
     hartree contribution      =      33.23291027 Ry
     xc contribution           =      -8.35249638 Ry
     ewald contribution        =       4.56038771 Ry
     smearing contrib. (-TS)   =       0.00000000 Ry

     convergence has been achieved in   5 iterations

     Forces acting on atoms (Ry/au):

     atom    1 type  1   force =     0.00014138   -0.00051756   -0.00098724
     atom    2 type  1   force =     0.00030255    0.00001189    0.00106789
     atom    3 type  2   force =    -0.00044393    0.00050567   -0.00008066

     Total force =     0.001719     Total SCF correction =     0.000042

     number of scf cycles    =  13
     number of bfgs steps    =  12

     energy   old            =     -34.1837930516 Ry
     energy   new            =     -34.1838038960 Ry

     CASE: energy  _new < energy  _old

     new trust radius        =       0.0077329111 bohr
     new conv_thr            =            1.0E-10 Ry


ATOMIC_POSITIONS (angstrom)
H        0.635928322   0.672246926   0.346316352
H       -0.454483896  -0.292376785   0.821629620
O        0.002493574   0.002430858   0.003673028



     Writing output data file pwscf.save
     Check: negative starting charge=   -0.016010
     NEW-OLD atomic charge density approx. for the potential
     Check: negative starting charge=   -0.016010

     negative rho (up, down):  4.764E-04 0.000E+00

     total cpu time spent up to now is       27.2 secs

     per-process dynamical memory:    45.8 Mb

     Self-consistent Calculation

     iteration #  1     ecut=    90.00 Ry     beta=0.70
     Davidson diagonalization with overlap
     ethr =  1.00E-06,  avg # of iterations =  4.0

     Threshold (ethr) on eigenvalues was too large:
     Diagonalizing with lowered threshold

     Davidson diagonalization with overlap
     ethr =  5.91E-08,  avg # of iterations =  1.0

     negative rho (up, down):  1.113E-04 0.000E+00

     total cpu time spent up to now is       27.6 secs

     total energy              =     -34.18381421 Ry
     Harris-Foulkes estimate   =     -34.18381101 Ry
     estimated scf accuracy    <       0.00000479 Ry

     iteration #  2     ecut=    90.00 Ry     beta=0.70
     Davidson diagonalization with overlap
     ethr =  5.99E-08,  avg # of iterations =  3.0

     negative rho (up, down):  1.553E-05 0.000E+00

     total cpu time spent up to now is       27.8 secs

     total energy              =     -34.18381581 Ry
     Harris-Foulkes estimate   =     -34.18381487 Ry
     estimated scf accuracy    <       0.00000032 Ry

     iteration #  3     ecut=    90.00 Ry     beta=0.70
     Davidson diagonalization with overlap
     ethr =  4.04E-09,  avg # of iterations =  2.0

     negative rho (up, down):  7.399E-07 0.000E+00

     total cpu time spent up to now is       28.0 secs

     total energy              =     -34.18381586 Ry
     Harris-Foulkes estimate   =     -34.18381590 Ry
     estimated scf accuracy    <       0.00000007 Ry

     iteration #  4     ecut=    90.00 Ry     beta=0.70
     Davidson diagonalization with overlap
     ethr =  9.26E-10,  avg # of iterations =  2.0

     total cpu time spent up to now is       28.2 secs

     total energy              =     -34.18381595 Ry
     Harris-Foulkes estimate   =     -34.18381589 Ry
     estimated scf accuracy    <       0.00000002 Ry

     iteration #  5     ecut=    90.00 Ry     beta=0.70
     Davidson diagonalization with overlap
     ethr =  2.39E-10,  avg # of iterations =  2.0

     total cpu time spent up to now is       28.4 secs

     total energy              =     -34.18381595 Ry
     Harris-Foulkes estimate   =     -34.18381596 Ry
     estimated scf accuracy    <          1.1E-10 Ry

     iteration #  6     ecut=    90.00 Ry     beta=0.70
     Davidson diagonalization with overlap
     ethr =  1.39E-12,  avg # of iterations =  3.0

     total cpu time spent up to now is       28.6 secs

     End of self-consistent calculation

          k = 0.0000 0.0000 0.0000 (115313 PWs)   bands (ev):

   -25.0977 -12.6800  -9.2259  -7.0808  -0.9540   0.4229   0.7460   1.1346

     the Fermi energy is    -5.0834 ev

!    total energy              =     -34.18381594 Ry
     Harris-Foulkes estimate   =     -34.18381595 Ry
     estimated scf accuracy    <          2.3E-11 Ry

     The total energy is the sum of the following terms:

     one-electron contribution =     -63.62242674 Ry
     hartree contribution      =      33.23178506 Ry
     xc contribution           =      -8.35232978 Ry
     ewald contribution        =       4.55915552 Ry
     smearing contrib. (-TS)   =       0.00000000 Ry

     convergence has been achieved in   6 iterations

     Forces acting on atoms (Ry/au):

     atom    1 type  1   force =     0.00008648   -0.00051335   -0.00075530
     atom    2 type  1   force =     0.00016126   -0.00018083    0.00065093
     atom    3 type  2   force =    -0.00024775    0.00069418    0.00010437

     Total force =     0.001370     Total SCF correction =     0.000013

     bfgs converged in  14 scf cycles and  13 bfgs steps
     (criteria: energy <  1.0E-04, force <  1.0E-03)

     End of BFGS Geometry Optimization

     Final energy   =     -34.1838159412 Ry
Begin final coordinates

ATOMIC_POSITIONS (angstrom)
H        0.635928322   0.672246926   0.346316352
H       -0.454483896  -0.292376785   0.821629620
O        0.002493574   0.002430858   0.003673028
End final coordinates



     Writing output data file pwscf.save
 
     init_run     :      0.51s CPU      0.55s WALL (       1 calls)
     electrons    :     17.80s CPU     21.60s WALL (      14 calls)
     update_pot   :      3.22s CPU      4.38s WALL (      13 calls)
     forces       :      0.94s CPU      0.95s WALL (      14 calls)

     Called by init_run:
     wfcinit      :      0.03s CPU      0.04s WALL (       1 calls)
     potinit      :      0.11s CPU      0.12s WALL (       1 calls)

     Called by electrons:
     c_bands      :      8.00s CPU      8.38s WALL (      88 calls)
     sum_band     :      1.80s CPU      1.85s WALL (      88 calls)
     v_of_rho     :      4.85s CPU      5.10s WALL (      96 calls)
     mix_rho      :      1.73s CPU      3.15s WALL (      88 calls)

     Called by c_bands:
     init_us_2    :      0.05s CPU      0.06s WALL (     177 calls)
     cegterg      :      7.95s CPU      8.29s WALL (      88 calls)

     Called by sum_band:

     Called by *egterg:
     h_psi        :      6.90s CPU      7.21s WALL (     493 calls)
     g_psi        :      0.06s CPU      0.06s WALL (     404 calls)
     cdiaghg      :      0.11s CPU      0.12s WALL (     473 calls)

     Called by h_psi:
     h_psi:pot    :      6.83s CPU      7.13s WALL (     493 calls)
     h_psi:calbec :      0.08s CPU      0.16s WALL (     493 calls)
     vloc_psi     :      6.70s CPU      6.92s WALL (     493 calls)
     add_vuspsi   :      0.05s CPU      0.05s WALL (     493 calls)

     General routines
     calbec       :      0.08s CPU      0.17s WALL (     549 calls)
     fft          :      3.46s CPU      3.71s WALL (    1095 calls)
     fftw         :      6.78s CPU      7.02s WALL (    5334 calls)
     davcio       :      0.19s CPU      1.37s WALL (     529 calls)
 
     Parallel routines
     fft_scatter  :      3.67s CPU      4.09s WALL (    6429 calls)
 
     PWSCF        :    23.28s CPU        29.13s WALL

 
   This run was terminated on:   2:47:28  28Jul2018            

=------------------------------------------------------------------------------=
   JOB DONE.
=------------------------------------------------------------------------------=
