
     Program PWSCF v.6.0 (svn rev. 13079) starts on 28Jul2018 at  2:11:49 

     This program is part of the open-source Quantum ESPRESSO suite
     for quantum simulation of materials; please cite
         "P. Giannozzi et al., J. Phys.:Condens. Matter 21 395502 (2009);
          URL http://www.quantum-espresso.org", 
     in publications or presentations arising from this work. More details at
     http://www.quantum-espresso.org/quote

     Parallel version (MPI), running on    28 processors
     R & G space division:  proc/nbgrp/npool/nimage =      28
     Reading input from ../QMCmins/relax-2.in

     Current dimensions of program PWSCF are:
     Max number of different atomic species (ntypx) = 10
     Max number of k-points (npk) =  40000
     Max angular momentum in pseudopotentials (lmaxx) =  3
     Message from routine iosys:
     pot_extrapolation='second-order' not available, using 'atomic'
     Message from routine iosys:
     wfc_extrapolation='second-order' not available, using 'atomic'

     Subspace diagonalization in iterative solution of the eigenvalue problem:
     a serial algorithm will be used

 
     Parallelization info
     --------------------
     sticks:   dense  smooth     PW     G-vecs:    dense   smooth      PW
     Min         408     408    102                32936    32936    4116
     Max         409     409    103                32943    32943    4121
     Sum       11449   11449   2869               922329   922329  115313
 


     bravais-lattice index     =            1
     lattice parameter (alat)  =      20.0000  a.u.
     unit-cell volume          =    8000.0000 (a.u.)^3
     number of atoms/cell      =            3
     number of atomic types    =            2
     number of electrons       =         8.00
     number of Kohn-Sham states=            8
     kinetic-energy cutoff     =      90.0000  Ry
     charge density cutoff     =     360.0000  Ry
     convergence threshold     =      1.0E-08
     mixing beta               =       0.7000
     number of iterations used =            8  plain     mixing
     Exchange-correlation      = BLYP ( 1  3  1  3 0 0)
     nstep                     =           50


     celldm(1)=  20.000000  celldm(2)=   0.000000  celldm(3)=   0.000000
     celldm(4)=   0.000000  celldm(5)=   0.000000  celldm(6)=   0.000000

     crystal axes: (cart. coord. in units of alat)
               a(1) = (   1.000000   0.000000   0.000000 )  
               a(2) = (   0.000000   1.000000   0.000000 )  
               a(3) = (   0.000000   0.000000   1.000000 )  

     reciprocal axes: (cart. coord. in units 2 pi/alat)
               b(1) = (  1.000000  0.000000  0.000000 )  
               b(2) = (  0.000000  1.000000  0.000000 )  
               b(3) = (  0.000000  0.000000  1.000000 )  


     PseudoPot. # 1 for  H read from file:
     ../H.blyp-hgh.UPF
     MD5 check sum: c576e69559cde411e611be972c763230
     Pseudo is Norm-conserving, Zval =  1.0
     Generated in analytical, separable form
     Using radial grid of  929 points,  0 beta functions with: 

     PseudoPot. # 2 for  O read from file:
     ../O.blyp-hgh.UPF
     MD5 check sum: d0b7156309aa9befef28faac7bc56342
     Pseudo is Norm-conserving, Zval =  6.0
     Generated in analytical, separable form
     Using radial grid of 1095 points,  1 beta functions with: 
                l(1) =   0

     atomic species   valence    mass     pseudopotential
        H              1.00     1.01000      H( 1.00)
        O              6.00    16.00000      O( 1.00)

     No symmetry found



   Cartesian axes

     site n.     atom                  positions (alat units)
         1           H   tau(   1) = (   0.0186734   0.0864383  -0.0295078  )
         2           H   tau(   2) = (   0.0708973  -0.0284244   0.0216471  )
         3           O   tau(   3) = (  -0.0056542  -0.0036621   0.0060741  )

     number of k points=     1  Marzari-Vanderbilt smearing, width (Ry)=  0.0250
                       cart. coord. in units 2pi/alat
        k(    1) = (   0.0000000   0.0000000   0.0000000), wk =   2.0000000

     Dense  grid:   922329 G-vectors     FFT dimensions: ( 125, 125, 125)

     Estimated max dynamical RAM per process >      31.67Mb

     Estimated total allocated dynamical RAM >     886.64Mb

     Initial potential from superposition of free atoms
     Check: negative starting charge=   -0.016025

     starting charge    7.99998, renormalised to    8.00000

     negative rho (up, down):  1.603E-02 0.000E+00
     Starting wfc are    6 randomized atomic wfcs +    2 random wfc

     total cpu time spent up to now is        0.8 secs

     per-process dynamical memory:    33.5 Mb

     Self-consistent Calculation

     iteration #  1     ecut=    90.00 Ry     beta=0.70
     Davidson diagonalization with overlap
     ethr =  1.00E-02,  avg # of iterations =  8.0

     negative rho (up, down):  4.679E-03 0.000E+00

     total cpu time spent up to now is        1.2 secs

     total energy              =     -33.98213928 Ry
     Harris-Foulkes estimate   =     -34.24372994 Ry
     estimated scf accuracy    <       0.38890935 Ry

     iteration #  2     ecut=    90.00 Ry     beta=0.70
     Davidson diagonalization with overlap
     ethr =  4.86E-03,  avg # of iterations =  2.0

     negative rho (up, down):  2.765E-03 0.000E+00

     total cpu time spent up to now is        1.4 secs

     total energy              =     -34.04425675 Ry
     Harris-Foulkes estimate   =     -34.24351743 Ry
     estimated scf accuracy    <       0.42840724 Ry

     iteration #  3     ecut=    90.00 Ry     beta=0.70
     Davidson diagonalization with overlap
     ethr =  4.86E-03,  avg # of iterations =  2.0

     negative rho (up, down):  1.805E-04 0.000E+00

     total cpu time spent up to now is        1.6 secs

     total energy              =     -34.14011674 Ry
     Harris-Foulkes estimate   =     -34.14144599 Ry
     estimated scf accuracy    <       0.00659043 Ry

     iteration #  4     ecut=    90.00 Ry     beta=0.70
     Davidson diagonalization with overlap
     ethr =  8.24E-05,  avg # of iterations =  5.0

     negative rho (up, down):  2.349E-05 0.000E+00

     total cpu time spent up to now is        1.8 secs

     total energy              =     -34.13789668 Ry
     Harris-Foulkes estimate   =     -34.13807232 Ry
     estimated scf accuracy    <       0.00042799 Ry

     iteration #  5     ecut=    90.00 Ry     beta=0.70
     Davidson diagonalization with overlap
     ethr =  5.35E-06,  avg # of iterations =  8.0

     total cpu time spent up to now is        2.2 secs

     total energy              =     -34.14201247 Ry
     Harris-Foulkes estimate   =     -34.14201628 Ry
     estimated scf accuracy    <       0.00001650 Ry

     iteration #  6     ecut=    90.00 Ry     beta=0.70
     Davidson diagonalization with overlap
     ethr =  2.06E-07,  avg # of iterations =  2.0

     negative rho (up, down):  2.378E-07 0.000E+00

     total cpu time spent up to now is        2.4 secs

     total energy              =     -34.14201497 Ry
     Harris-Foulkes estimate   =     -34.14201479 Ry
     estimated scf accuracy    <       0.00000122 Ry

     iteration #  7     ecut=    90.00 Ry     beta=0.70
     Davidson diagonalization with overlap
     ethr =  1.52E-08,  avg # of iterations =  1.0

     total cpu time spent up to now is        2.6 secs

     total energy              =     -34.14201498 Ry
     Harris-Foulkes estimate   =     -34.14201505 Ry
     estimated scf accuracy    <       0.00000003 Ry

     iteration #  8     ecut=    90.00 Ry     beta=0.70
     Davidson diagonalization with overlap
     ethr =  3.17E-10,  avg # of iterations =  3.0

     total cpu time spent up to now is        2.7 secs

     End of self-consistent calculation

          k = 0.0000 0.0000 0.0000 (115313 PWs)   bands (ev):

   -25.6395 -12.5555  -9.5470  -7.1606  -1.0168   0.3661   0.8165   1.1228

     the Fermi energy is    -5.2277 ev

!    total energy              =     -34.14201485 Ry
     Harris-Foulkes estimate   =     -34.14201500 Ry
     estimated scf accuracy    <          4.6E-09 Ry

     The total energy is the sum of the following terms:

     one-electron contribution =     -64.27952693 Ry
     hartree contribution      =      33.53627285 Ry
     xc contribution           =      -8.40753899 Ry
     ewald contribution        =       5.00877822 Ry
     smearing contrib. (-TS)   =       0.00000000 Ry

     convergence has been achieved in   8 iterations

     Forces acting on atoms (Ry/au):

     atom    1 type  1   force =    -0.04748295   -0.08992830    0.03430630
     atom    2 type  1   force =     0.28794463   -0.11957366    0.07000727
     atom    3 type  2   force =    -0.24046168    0.20950196   -0.10431357

     Total force =     0.475630     Total SCF correction =     0.000091

     BFGS Geometry Optimization

     number of scf cycles    =   1
     number of bfgs steps    =   0

     energy   new            =     -34.1420148497 Ry

     new trust radius        =       0.3355506059 bohr
     new conv_thr            =       0.0000000100 Ry


ATOMIC_POSITIONS (angstrom)
H        0.172504105   0.867235995  -0.294142887
H        0.902718734  -0.364106657   0.266149249
O       -0.187087838   0.072105662   0.009085638



     Writing output data file pwscf.save
     Check: negative starting charge=   -0.016025
     NEW-OLD atomic charge density approx. for the potential
     Check: negative starting charge=   -0.015959

     negative rho (up, down):  2.571E-02 0.000E+00

     total cpu time spent up to now is        3.4 secs

     per-process dynamical memory:    45.8 Mb

     Self-consistent Calculation

     iteration #  1     ecut=    90.00 Ry     beta=0.70
     Davidson diagonalization with overlap
     c_bands:  1 eigenvalues not converged
     ethr =  1.00E-06,  avg # of iterations = 20.0

     negative rho (up, down):  6.478E-03 0.000E+00

     total cpu time spent up to now is        3.9 secs

     total energy              =     -34.14449038 Ry
     Harris-Foulkes estimate   =     -34.08840982 Ry
     estimated scf accuracy    <       0.03885458 Ry

     iteration #  2     ecut=    90.00 Ry     beta=0.70
     Davidson diagonalization with overlap
     ethr =  4.86E-04,  avg # of iterations =  4.0

     negative rho (up, down):  3.192E-03 0.000E+00

     total cpu time spent up to now is        4.1 secs

     total energy              =     -34.09075884 Ry
     Harris-Foulkes estimate   =     -34.17031153 Ry
     estimated scf accuracy    <       0.01242056 Ry

     iteration #  3     ecut=    90.00 Ry     beta=0.70
     Davidson diagonalization with overlap
     ethr =  1.55E-04,  avg # of iterations =  8.0

     negative rho (up, down):  1.469E-03 0.000E+00

     total cpu time spent up to now is        4.3 secs

     total energy              =     -34.11478896 Ry
     Harris-Foulkes estimate   =     -34.11502789 Ry
     estimated scf accuracy    <       0.00632295 Ry

     iteration #  4     ecut=    90.00 Ry     beta=0.70
     Davidson diagonalization with overlap
     ethr =  7.90E-05,  avg # of iterations =  4.0

     negative rho (up, down):  1.857E-04 0.000E+00

     total cpu time spent up to now is        4.6 secs

     total energy              =     -34.11620030 Ry
     Harris-Foulkes estimate   =     -34.11584906 Ry
     estimated scf accuracy    <       0.00012083 Ry

     iteration #  5     ecut=    90.00 Ry     beta=0.70
     Davidson diagonalization with overlap
     ethr =  1.51E-06,  avg # of iterations = 14.0

     negative rho (up, down):  1.495E-07 0.000E+00

     total cpu time spent up to now is        4.9 secs

     total energy              =     -34.12030515 Ry
     Harris-Foulkes estimate   =     -34.12030119 Ry
     estimated scf accuracy    <       0.00000633 Ry

     iteration #  6     ecut=    90.00 Ry     beta=0.70
     Davidson diagonalization with overlap
     ethr =  7.91E-08,  avg # of iterations =  3.0

     negative rho (up, down):  6.521E-08 0.000E+00

     total cpu time spent up to now is        5.1 secs

     total energy              =     -34.12030566 Ry
     Harris-Foulkes estimate   =     -34.12030604 Ry
     estimated scf accuracy    <       0.00000010 Ry

     iteration #  7     ecut=    90.00 Ry     beta=0.70
     Davidson diagonalization with overlap
     ethr =  1.28E-09,  avg # of iterations =  2.0

     total cpu time spent up to now is        5.2 secs

     End of self-consistent calculation

          k = 0.0000 0.0000 0.0000 (115313 PWs)   bands (ev):

   -24.8135 -11.5609  -9.6099  -7.0295  -1.6088   0.1569   0.6715   1.1021

     the Fermi energy is    -5.0367 ev

!    total energy              =     -34.12030568 Ry
     Harris-Foulkes estimate   =     -34.12030569 Ry
     estimated scf accuracy    <          8.5E-09 Ry

     The total energy is the sum of the following terms:

     one-electron contribution =     -62.19890345 Ry
     hartree contribution      =      32.53180138 Ry
     xc contribution           =      -8.25047741 Ry
     ewald contribution        =       3.79727381 Ry
     smearing contrib. (-TS)   =       0.00000000 Ry

     convergence has been achieved in   7 iterations

     Forces acting on atoms (Ry/au):

     atom    1 type  1   force =     0.03034346    0.13136728   -0.05106926
     atom    2 type  1   force =    -0.17691023    0.04888587   -0.03150277
     atom    3 type  2   force =     0.14656677   -0.18025315    0.08257203

     Total force =     0.340965     Total SCF correction =     0.000214

     number of scf cycles    =   2
     number of bfgs steps    =   1

     energy   old            =     -34.1420148497 Ry
     energy   new            =     -34.1203056760 Ry

     CASE: energy  _new > energy  _old

     new trust radius        =       0.1530847902 bohr
     new conv_thr            =       0.0000000100 Ry


ATOMIC_POSITIONS (angstrom)
H        0.186167616   0.893113415  -0.304014736
H        0.819860896  -0.329698600   0.246004228
O       -0.117893512   0.011820185   0.039102508



     Writing output data file pwscf.save
     Check: negative starting charge=   -0.015959
     NEW-OLD atomic charge density approx. for the potential
     Check: negative starting charge=   -0.016022

     negative rho (up, down):  2.787E-02 0.000E+00

     total cpu time spent up to now is        5.8 secs

     per-process dynamical memory:    45.8 Mb

     Self-consistent Calculation

     iteration #  1     ecut=    90.00 Ry     beta=0.70
     Davidson diagonalization with overlap
     c_bands:  2 eigenvalues not converged
     ethr =  1.00E-06,  avg # of iterations = 20.0

     negative rho (up, down):  7.342E-03 0.000E+00

     total cpu time spent up to now is        6.4 secs

     total energy              =     -34.13576556 Ry
     Harris-Foulkes estimate   =     -34.28802142 Ry
     estimated scf accuracy    <       0.01993347 Ry

     iteration #  2     ecut=    90.00 Ry     beta=0.70
     Davidson diagonalization with overlap
     ethr =  2.49E-04,  avg # of iterations =  3.0

     negative rho (up, down):  4.929E-03 0.000E+00

     total cpu time spent up to now is        6.6 secs

     total energy              =     -34.16344407 Ry
     Harris-Foulkes estimate   =     -34.17453580 Ry
     estimated scf accuracy    <       0.03558084 Ry

     iteration #  3     ecut=    90.00 Ry     beta=0.70
     Davidson diagonalization with overlap
     ethr =  2.49E-04,  avg # of iterations =  2.0

     negative rho (up, down):  1.709E-03 0.000E+00

     total cpu time spent up to now is        6.8 secs

     total energy              =     -34.17343758 Ry
     Harris-Foulkes estimate   =     -34.16900756 Ry
     estimated scf accuracy    <       0.00052803 Ry

     iteration #  4     ecut=    90.00 Ry     beta=0.70
     Davidson diagonalization with overlap
     c_bands:  1 eigenvalues not converged
     ethr =  6.60E-06,  avg # of iterations = 20.0

     negative rho (up, down):  7.123E-05 0.000E+00

     total cpu time spent up to now is        7.4 secs

     total energy              =     -34.17398895 Ry
     Harris-Foulkes estimate   =     -34.17354159 Ry
     estimated scf accuracy    <       0.00006406 Ry

     iteration #  5     ecut=    90.00 Ry     beta=0.70
     Davidson diagonalization with overlap
     ethr =  8.01E-07,  avg # of iterations = 20.0

     negative rho (up, down):  2.607E-06 0.000E+00

     total cpu time spent up to now is        7.7 secs

     total energy              =     -34.17807983 Ry
     Harris-Foulkes estimate   =     -34.17808014 Ry
     estimated scf accuracy    <       0.00000137 Ry

     iteration #  6     ecut=    90.00 Ry     beta=0.70
     Davidson diagonalization with overlap
     ethr =  1.72E-08,  avg # of iterations =  2.0

     total cpu time spent up to now is        7.9 secs

     total energy              =     -34.17808003 Ry
     Harris-Foulkes estimate   =     -34.17808016 Ry
     estimated scf accuracy    <       0.00000005 Ry

     iteration #  7     ecut=    90.00 Ry     beta=0.70
     Davidson diagonalization with overlap
     ethr =  6.84E-10,  avg # of iterations =  2.0

     total cpu time spent up to now is        8.1 secs

     End of self-consistent calculation

          k = 0.0000 0.0000 0.0000 (115313 PWs)   bands (ev):

   -24.9862 -12.1110  -9.5682  -7.0749  -1.0520   0.3890   0.7059   1.1165

     the Fermi energy is    -5.0690 ev

!    total energy              =     -34.17808006 Ry
     Harris-Foulkes estimate   =     -34.17808004 Ry
     estimated scf accuracy    <          2.3E-09 Ry

     The total energy is the sum of the following terms:

     one-electron contribution =     -63.13867013 Ry
     hartree contribution      =      32.98907121 Ry
     xc contribution           =      -8.31224450 Ry
     ewald contribution        =       4.28376336 Ry
     smearing contrib. (-TS)   =       0.00000000 Ry

     convergence has been achieved in   7 iterations

     Forces acting on atoms (Ry/au):

     atom    1 type  1   force =    -0.02607409   -0.00608271    0.00023855
     atom    2 type  1   force =    -0.05876715   -0.00193035   -0.00375739
     atom    3 type  2   force =     0.08484124    0.00801306    0.00351884

     Total force =     0.107065     Total SCF correction =     0.000096

     number of scf cycles    =   3
     number of bfgs steps    =   1

     energy   old            =     -34.1420148497 Ry
     energy   new            =     -34.1780800624 Ry

     CASE: energy  _new < energy  _old

     new trust radius        =       0.0581750587 bohr
     new conv_thr            =       0.0000000085 Ry


ATOMIC_POSITIONS (angstrom)
H        0.171861519   0.885919088  -0.302227046
H        0.806936292  -0.336434589   0.247701676
O       -0.090662810   0.025750501   0.035617369



     Writing output data file pwscf.save
     Check: negative starting charge=   -0.016022
     NEW-OLD atomic charge density approx. for the potential
     Check: negative starting charge=   -0.016028

     negative rho (up, down):  1.054E-02 0.000E+00

     total cpu time spent up to now is        8.7 secs

     per-process dynamical memory:    45.8 Mb

     Self-consistent Calculation

     iteration #  1     ecut=    90.00 Ry     beta=0.70
     Davidson diagonalization with overlap
     c_bands:  1 eigenvalues not converged
     ethr =  1.00E-06,  avg # of iterations = 20.0

     negative rho (up, down):  2.780E-03 0.000E+00

     total cpu time spent up to now is        9.3 secs

     total energy              =     -34.17460430 Ry
     Harris-Foulkes estimate   =     -34.16491456 Ry
     estimated scf accuracy    <       0.00250623 Ry

     iteration #  2     ecut=    90.00 Ry     beta=0.70
     Davidson diagonalization with overlap
     ethr =  3.13E-05,  avg # of iterations = 12.0

     negative rho (up, down):  1.735E-03 0.000E+00

     total cpu time spent up to now is        9.5 secs

     total energy              =     -34.17639037 Ry
     Harris-Foulkes estimate   =     -34.17641338 Ry
     estimated scf accuracy    <       0.00265565 Ry

     iteration #  3     ecut=    90.00 Ry     beta=0.70
     Davidson diagonalization with overlap
     ethr =  3.13E-05,  avg # of iterations =  4.0

     negative rho (up, down):  3.129E-04 0.000E+00

     total cpu time spent up to now is        9.8 secs

     total energy              =     -34.17740112 Ry
     Harris-Foulkes estimate   =     -34.17693592 Ry
     estimated scf accuracy    <       0.00001696 Ry

     iteration #  4     ecut=    90.00 Ry     beta=0.70
     Davidson diagonalization with overlap
     c_bands:  1 eigenvalues not converged
     ethr =  2.12E-07,  avg # of iterations = 20.0

     negative rho (up, down):  2.408E-05 0.000E+00

     total cpu time spent up to now is       10.1 secs

     total energy              =     -34.18149317 Ry
     Harris-Foulkes estimate   =     -34.18148989 Ry
     estimated scf accuracy    <       0.00000055 Ry

     iteration #  5     ecut=    90.00 Ry     beta=0.70
     Davidson diagonalization with overlap
     ethr =  6.91E-09,  avg # of iterations =  4.0

     total cpu time spent up to now is       10.3 secs

     total energy              =     -34.18149229 Ry
     Harris-Foulkes estimate   =     -34.18149335 Ry
     estimated scf accuracy    <       0.00000002 Ry

     iteration #  6     ecut=    90.00 Ry     beta=0.70
     Davidson diagonalization with overlap
     ethr =  3.06E-10,  avg # of iterations =  2.0

     total cpu time spent up to now is       10.5 secs

     End of self-consistent calculation

          k = 0.0000 0.0000 0.0000 (115313 PWs)   bands (ev):

   -25.2438 -12.5724  -9.4119  -7.1104  -0.9467   0.4220   0.7701   1.1235

     the Fermi energy is    -5.1282 ev

!    total energy              =     -34.18149224 Ry
     Harris-Foulkes estimate   =     -34.18149231 Ry
     estimated scf accuracy    <          6.8E-10 Ry

     The total energy is the sum of the following terms:

     one-electron contribution =     -63.80961267 Ry
     hartree contribution      =      33.31563081 Ry
     xc contribution           =      -8.36568942 Ry
     ewald contribution        =       4.67817904 Ry
     smearing contrib. (-TS)   =       0.00000000 Ry

     convergence has been achieved in   6 iterations

     Forces acting on atoms (Ry/au):

     atom    1 type  1   force =    -0.00203941    0.04403648   -0.01913041
     atom    2 type  1   force =    -0.01850840   -0.00834068    0.00143484
     atom    3 type  2   force =     0.02054781   -0.03569581    0.01769557

     Total force =     0.068797     Total SCF correction =     0.000021

     number of scf cycles    =   4
     number of bfgs steps    =   2

     energy   old            =     -34.1780800624 Ry
     energy   new            =     -34.1814922435 Ry

     CASE: energy  _new < energy  _old

     new trust radius        =       0.0402664287 bohr
     new conv_thr            =       0.0000000034 Ry


ATOMIC_POSITIONS (angstrom)
H        0.163554494   0.903656712  -0.310617766
H        0.799567412  -0.346840889   0.251045820
O       -0.074986906   0.018419177   0.040663946



     Writing output data file pwscf.save
     Check: negative starting charge=   -0.016028
     NEW-OLD atomic charge density approx. for the potential
     Check: negative starting charge=   -0.016014

     negative rho (up, down):  6.022E-03 0.000E+00

     total cpu time spent up to now is       11.1 secs

     per-process dynamical memory:    45.8 Mb

     Self-consistent Calculation

     iteration #  1     ecut=    90.00 Ry     beta=0.70
     Davidson diagonalization with overlap
     c_bands:  1 eigenvalues not converged
     ethr =  1.00E-06,  avg # of iterations = 20.0

     negative rho (up, down):  1.579E-03 0.000E+00

     total cpu time spent up to now is       11.6 secs

     total energy              =     -34.17864871 Ry
     Harris-Foulkes estimate   =     -34.17268162 Ry
     estimated scf accuracy    <       0.00035287 Ry

     iteration #  2     ecut=    90.00 Ry     beta=0.70
     Davidson diagonalization with overlap
     c_bands:  1 eigenvalues not converged
     ethr =  4.41E-06,  avg # of iterations = 20.0

     negative rho (up, down):  5.147E-04 0.000E+00

     total cpu time spent up to now is       12.1 secs

     total energy              =     -34.17905467 Ry
     Harris-Foulkes estimate   =     -34.17873826 Ry
     estimated scf accuracy    <       0.00002735 Ry

     iteration #  3     ecut=    90.00 Ry     beta=0.70
     Davidson diagonalization with overlap
     ethr =  3.42E-07,  avg # of iterations = 14.0

     negative rho (up, down):  1.420E-04 0.000E+00

     total cpu time spent up to now is       12.4 secs

     total energy              =     -34.18314667 Ry
     Harris-Foulkes estimate   =     -34.18314127 Ry
     estimated scf accuracy    <       0.00000544 Ry

     iteration #  4     ecut=    90.00 Ry     beta=0.70
     Davidson diagonalization with overlap
     ethr =  6.81E-08,  avg # of iterations =  4.0

     negative rho (up, down):  5.811E-06 0.000E+00

     total cpu time spent up to now is       12.6 secs

     total energy              =     -34.18314684 Ry
     Harris-Foulkes estimate   =     -34.18314896 Ry
     estimated scf accuracy    <       0.00000168 Ry

     iteration #  5     ecut=    90.00 Ry     beta=0.70
     Davidson diagonalization with overlap
     ethr =  2.10E-08,  avg # of iterations =  3.0

     total cpu time spent up to now is       12.8 secs

     total energy              =     -34.18314687 Ry
     Harris-Foulkes estimate   =     -34.18314726 Ry
     estimated scf accuracy    <       0.00000001 Ry

     iteration #  6     ecut=    90.00 Ry     beta=0.70
     Davidson diagonalization with overlap
     ethr =  1.69E-10,  avg # of iterations =  2.0

     total cpu time spent up to now is       13.0 secs

     End of self-consistent calculation

          k = 0.0000 0.0000 0.0000 (115313 PWs)   bands (ev):

   -25.1864 -12.6931  -9.2853  -7.0967  -0.9381   0.4272   0.7613   1.1250

     the Fermi energy is    -5.1127 ev

!    total energy              =     -34.18314681 Ry
     Harris-Foulkes estimate   =     -34.18314688 Ry
     estimated scf accuracy    <          7.5E-10 Ry

     The total energy is the sum of the following terms:

     one-electron contribution =     -63.77974852 Ry
     hartree contribution      =      33.30528951 Ry
     xc contribution           =      -8.36404561 Ry
     ewald contribution        =       4.65535780 Ry
     smearing contrib. (-TS)   =       0.00000000 Ry

     convergence has been achieved in   6 iterations

     Forces acting on atoms (Ry/au):

     atom    1 type  1   force =    -0.00727047    0.00092150   -0.00139392
     atom    2 type  1   force =     0.01625724   -0.01497277    0.00682478
     atom    3 type  2   force =    -0.00898677    0.01405128   -0.00543086

     Total force =     0.029973     Total SCF correction =     0.000068

     number of scf cycles    =   5
     number of bfgs steps    =   3

     energy   old            =     -34.1814922435 Ry
     energy   new            =     -34.1831468142 Ry

     CASE: energy  _new < energy  _old

     new trust radius        =       0.0153764987 bohr
     new conv_thr            =       0.0000000016 Ry


ATOMIC_POSITIONS (angstrom)
H        0.159275187   0.907342319  -0.312759122
H        0.802296183  -0.353967391   0.253869966
O       -0.073436370   0.021860072   0.039981156



     Writing output data file pwscf.save
     Check: negative starting charge=   -0.016014
     NEW-OLD atomic charge density approx. for the potential
     Check: negative starting charge=   -0.016000

     negative rho (up, down):  1.106E-03 0.000E+00

     total cpu time spent up to now is       13.6 secs

     per-process dynamical memory:    45.8 Mb

     Self-consistent Calculation

     iteration #  1     ecut=    90.00 Ry     beta=0.70
     Davidson diagonalization with overlap
     ethr =  1.00E-06,  avg # of iterations =  8.0

     negative rho (up, down):  2.761E-04 0.000E+00

     total cpu time spent up to now is       14.0 secs

     total energy              =     -34.18349082 Ry
     Harris-Foulkes estimate   =     -34.18343101 Ry
     estimated scf accuracy    <       0.00002766 Ry

     iteration #  2     ecut=    90.00 Ry     beta=0.70
     Davidson diagonalization with overlap
     ethr =  3.46E-07,  avg # of iterations =  5.0

     negative rho (up, down):  1.217E-04 0.000E+00

     total cpu time spent up to now is       14.2 secs

     total energy              =     -34.18349631 Ry
     Harris-Foulkes estimate   =     -34.18349983 Ry
     estimated scf accuracy    <       0.00000869 Ry

     iteration #  3     ecut=    90.00 Ry     beta=0.70
     Davidson diagonalization with overlap
     ethr =  1.09E-07,  avg # of iterations =  2.0

     negative rho (up, down):  1.645E-05 0.000E+00

     total cpu time spent up to now is       14.4 secs

     total energy              =     -34.18349787 Ry
     Harris-Foulkes estimate   =     -34.18349954 Ry
     estimated scf accuracy    <       0.00000202 Ry

     iteration #  4     ecut=    90.00 Ry     beta=0.70
     Davidson diagonalization with overlap
     ethr =  2.52E-08,  avg # of iterations =  3.0

     negative rho (up, down):  1.023E-07 0.000E+00

     total cpu time spent up to now is       14.6 secs

     total energy              =     -34.18349795 Ry
     Harris-Foulkes estimate   =     -34.18349833 Ry
     estimated scf accuracy    <       0.00000003 Ry

     iteration #  5     ecut=    90.00 Ry     beta=0.70
     Davidson diagonalization with overlap
     ethr =  3.98E-10,  avg # of iterations =  2.0

     total cpu time spent up to now is       14.7 secs

     End of self-consistent calculation

          k = 0.0000 0.0000 0.0000 (115313 PWs)   bands (ev):

   -25.1409 -12.7141  -9.2359  -7.0875  -0.9429   0.4267   0.7532   1.1253

     the Fermi energy is    -5.1011 ev

!    total energy              =     -34.18349786 Ry
     Harris-Foulkes estimate   =     -34.18349796 Ry
     estimated scf accuracy    <          1.2E-09 Ry

     The total energy is the sum of the following terms:

     one-electron contribution =     -63.71422611 Ry
     hartree contribution      =      33.27552181 Ry
     xc contribution           =      -8.35921218 Ry
     ewald contribution        =       4.61441861 Ry
     smearing contrib. (-TS)   =       0.00000000 Ry

     convergence has been achieved in   5 iterations

     Forces acting on atoms (Ry/au):

     atom    1 type  1   force =    -0.00416140    0.00071093   -0.00106937
     atom    2 type  1   force =     0.00616595   -0.00748815    0.00305356
     atom    3 type  2   force =    -0.00200455    0.00677722   -0.00198420

     Total force =     0.013277     Total SCF correction =     0.000239

     number of scf cycles    =   6
     number of bfgs steps    =   4

     energy   old            =     -34.1831468142 Ry
     energy   new            =     -34.1834978589 Ry

     CASE: energy  _new < energy  _old

     new trust radius        =       0.0169141485 bohr
     new conv_thr            =       0.0000000004 Ry


ATOMIC_POSITIONS (angstrom)
H        0.153799913   0.911822500  -0.315564432
H        0.803968185  -0.362239033   0.256852793
O       -0.069633098   0.025651533   0.039803639



     Writing output data file pwscf.save
     Check: negative starting charge=   -0.016000
     NEW-OLD atomic charge density approx. for the potential
     Check: negative starting charge=   -0.015980

     negative rho (up, down):  1.613E-03 0.000E+00

     total cpu time spent up to now is       15.4 secs

     per-process dynamical memory:    45.8 Mb

     Self-consistent Calculation

     iteration #  1     ecut=    90.00 Ry     beta=0.70
     Davidson diagonalization with overlap
     ethr =  1.00E-06,  avg # of iterations = 13.0

     negative rho (up, down):  4.095E-04 0.000E+00

     total cpu time spent up to now is       15.8 secs

     total energy              =     -34.17955143 Ry
     Harris-Foulkes estimate   =     -34.17922763 Ry
     estimated scf accuracy    <       0.00002317 Ry

     iteration #  2     ecut=    90.00 Ry     beta=0.70
     Davidson diagonalization with overlap
     ethr =  2.90E-07,  avg # of iterations = 13.0

     negative rho (up, down):  5.732E-05 0.000E+00

     total cpu time spent up to now is       16.1 secs

     total energy              =     -34.18363843 Ry
     Harris-Foulkes estimate   =     -34.18363345 Ry
     estimated scf accuracy    <       0.00000157 Ry

     iteration #  3     ecut=    90.00 Ry     beta=0.70
     Davidson diagonalization with overlap
     ethr =  1.96E-08,  avg # of iterations =  3.0

     negative rho (up, down):  7.751E-06 0.000E+00

     total cpu time spent up to now is       16.3 secs

     total energy              =     -34.18363765 Ry
     Harris-Foulkes estimate   =     -34.18363891 Ry
     estimated scf accuracy    <       0.00000047 Ry

     iteration #  4     ecut=    90.00 Ry     beta=0.70
     Davidson diagonalization with overlap
     ethr =  5.93E-09,  avg # of iterations =  2.0

     negative rho (up, down):  3.110E-08 0.000E+00

     total cpu time spent up to now is       16.5 secs

     total energy              =     -34.18363747 Ry
     Harris-Foulkes estimate   =     -34.18363782 Ry
     estimated scf accuracy    <       0.00000007 Ry

     iteration #  5     ecut=    90.00 Ry     beta=0.70
     Davidson diagonalization with overlap
     ethr =  8.93E-10,  avg # of iterations =  2.0

     total cpu time spent up to now is       16.7 secs

     total energy              =     -34.18363738 Ry
     Harris-Foulkes estimate   =     -34.18363749 Ry
     estimated scf accuracy    <          5.1E-10 Ry

     iteration #  6     ecut=    90.00 Ry     beta=0.70
     Davidson diagonalization with overlap
     ethr =  6.36E-12,  avg # of iterations =  3.0

     total cpu time spent up to now is       16.8 secs

     End of self-consistent calculation

          k = 0.0000 0.0000 0.0000 (115313 PWs)   bands (ev):

   -25.1022 -12.7615  -9.1706  -7.0785  -0.9442   0.4266   0.7468   1.1258

     the Fermi energy is    -5.0911 ev

!    total energy              =     -34.18363737 Ry
     Harris-Foulkes estimate   =     -34.18363738 Ry
     estimated scf accuracy    <          1.3E-10 Ry

     The total energy is the sum of the following terms:

     one-electron contribution =     -63.67340109 Ry
     hartree contribution      =      33.25799716 Ry
     xc contribution           =      -8.35639062 Ry
     ewald contribution        =       4.58815718 Ry
     smearing contrib. (-TS)   =       0.00000000 Ry

     convergence has been achieved in   6 iterations

     Forces acting on atoms (Ry/au):

     atom    1 type  1   force =    -0.00039268   -0.00021344   -0.00037379
     atom    2 type  1   force =     0.00058935   -0.00103783    0.00006452
     atom    3 type  2   force =    -0.00019667    0.00125127    0.00030927

     Total force =     0.001862     Total SCF correction =     0.000026

     number of scf cycles    =   7
     number of bfgs steps    =   5

     energy   old            =     -34.1834978589 Ry
     energy   new            =     -34.1836373714 Ry

     CASE: energy  _new < energy  _old

     new trust radius        =       0.0024708016 bohr
     new conv_thr            =       0.0000000001 Ry


ATOMIC_POSITIONS (angstrom)
H        0.153097236   0.912330456  -0.316132047
H        0.804139345  -0.363511242   0.257101235
O       -0.069101581   0.026415786   0.040122812



     Writing output data file pwscf.save
     Check: negative starting charge=   -0.015980
     NEW-OLD atomic charge density approx. for the potential
     Check: negative starting charge=   -0.015977

     negative rho (up, down):  2.299E-04 0.000E+00

     total cpu time spent up to now is       17.6 secs

     per-process dynamical memory:    45.8 Mb

     Self-consistent Calculation

     iteration #  1     ecut=    90.00 Ry     beta=0.70
     Davidson diagonalization with overlap
     ethr =  1.00E-06,  avg # of iterations =  3.0

     Threshold (ethr) on eigenvalues was too large:
     Diagonalizing with lowered threshold

     Davidson diagonalization with overlap
     ethr =  7.94E-09,  avg # of iterations =  2.0

     negative rho (up, down):  4.828E-05 0.000E+00

     total cpu time spent up to now is       18.0 secs

     total energy              =     -34.18364063 Ry
     Harris-Foulkes estimate   =     -34.18363886 Ry
     estimated scf accuracy    <       0.00000065 Ry

     iteration #  2     ecut=    90.00 Ry     beta=0.70
     Davidson diagonalization with overlap
     ethr =  8.11E-09,  avg # of iterations =  2.0

     negative rho (up, down):  2.478E-06 0.000E+00

     total cpu time spent up to now is       18.2 secs

     total energy              =     -34.18364060 Ry
     Harris-Foulkes estimate   =     -34.18364075 Ry
     estimated scf accuracy    <       0.00000004 Ry

     iteration #  3     ecut=    90.00 Ry     beta=0.70
     Davidson diagonalization with overlap
     ethr =  4.78E-10,  avg # of iterations =  3.0

     total cpu time spent up to now is       18.3 secs

     total energy              =     -34.18364055 Ry
     Harris-Foulkes estimate   =     -34.18364062 Ry
     estimated scf accuracy    <          1.7E-09 Ry

     iteration #  4     ecut=    90.00 Ry     beta=0.70
     Davidson diagonalization with overlap
     ethr =  2.14E-11,  avg # of iterations =  2.0

     total cpu time spent up to now is       18.5 secs

     total energy              =     -34.18364048 Ry
     Harris-Foulkes estimate   =     -34.18364055 Ry
     estimated scf accuracy    <          2.8E-10 Ry

     iteration #  5     ecut=    90.00 Ry     beta=0.70
     Davidson diagonalization with overlap
     ethr =  3.54E-12,  avg # of iterations =  3.0

     total cpu time spent up to now is       18.7 secs

     End of self-consistent calculation

          k = 0.0000 0.0000 0.0000 (115313 PWs)   bands (ev):

   -25.0975 -12.7689  -9.1613  -7.0774  -0.9442   0.4265   0.7460   1.1258

     the Fermi energy is    -5.0899 ev

!    total energy              =     -34.18364045 Ry
     Harris-Foulkes estimate   =     -34.18364048 Ry
     estimated scf accuracy    <          6.5E-11 Ry

     The total energy is the sum of the following terms:

     one-electron contribution =     -63.66922854 Ry
     hartree contribution      =      33.25635168 Ry
     xc contribution           =      -8.35612824 Ry
     ewald contribution        =       4.58536465 Ry
     smearing contrib. (-TS)   =       0.00000000 Ry

     convergence has been achieved in   5 iterations

     Forces acting on atoms (Ry/au):

     atom    1 type  1   force =     0.00020202   -0.00012263   -0.00034287
     atom    2 type  1   force =    -0.00012438   -0.00010831   -0.00033577
     atom    3 type  2   force =    -0.00007763    0.00023094    0.00067864

     Total force =     0.000913     Total SCF correction =     0.000028

     bfgs converged in   8 scf cycles and   6 bfgs steps
     (criteria: energy <  1.0E-04, force <  1.0E-03)

     End of BFGS Geometry Optimization

     Final energy   =     -34.1836404507 Ry
Begin final coordinates

ATOMIC_POSITIONS (angstrom)
H        0.153097236   0.912330456  -0.316132047
H        0.804139345  -0.363511242   0.257101235
O       -0.069101581   0.026415786   0.040122812
End final coordinates



     Writing output data file pwscf.save
 
     init_run     :      0.51s CPU      0.55s WALL (       1 calls)
     electrons    :     12.30s CPU     14.50s WALL (       8 calls)
     update_pot   :      1.70s CPU      2.08s WALL (       7 calls)
     forces       :      0.60s CPU      0.69s WALL (       8 calls)

     Called by init_run:
     wfcinit      :      0.03s CPU      0.04s WALL (       1 calls)
     potinit      :      0.11s CPU      0.11s WALL (       1 calls)

     Called by electrons:
     c_bands      :      6.00s CPU      6.10s WALL (      51 calls)
     sum_band     :      1.10s CPU      1.25s WALL (      51 calls)
     v_of_rho     :      3.07s CPU      3.20s WALL (      58 calls)
     mix_rho      :      1.15s CPU      2.14s WALL (      51 calls)

     Called by c_bands:
     init_us_2    :      0.03s CPU      0.03s WALL (     103 calls)
     cegterg      :      5.97s CPU      6.05s WALL (      51 calls)

     Called by sum_band:

     Called by *egterg:
     h_psi        :      5.09s CPU      5.14s WALL (     403 calls)
     g_psi        :      0.05s CPU      0.05s WALL (     351 calls)
     cdiaghg      :      0.10s CPU      0.10s WALL (     394 calls)

     Called by h_psi:
     h_psi:pot    :      5.04s CPU      5.09s WALL (     403 calls)
     h_psi:calbec :      0.06s CPU      0.07s WALL (     403 calls)
     vloc_psi     :      4.93s CPU      4.98s WALL (     403 calls)
     add_vuspsi   :      0.04s CPU      0.04s WALL (     403 calls)

     General routines
     calbec       :      0.07s CPU      0.07s WALL (     435 calls)
     fft          :      2.22s CPU      2.49s WALL (     655 calls)
     fftw         :      4.85s CPU      4.91s WALL (    3846 calls)
     davcio       :      0.12s CPU      0.86s WALL (     347 calls)
 
     Parallel routines
     fft_scatter  :      2.53s CPU      2.84s WALL (    4501 calls)
 
     PWSCF        :    15.71s CPU        19.20s WALL

 
   This run was terminated on:   2:12: 8  28Jul2018            

=------------------------------------------------------------------------------=
   JOB DONE.
=------------------------------------------------------------------------------=
