
     Program PWSCF v.6.0 (svn rev. 13079) starts on 28Jul2018 at  2:24:27 

     This program is part of the open-source Quantum ESPRESSO suite
     for quantum simulation of materials; please cite
         "P. Giannozzi et al., J. Phys.:Condens. Matter 21 395502 (2009);
          URL http://www.quantum-espresso.org", 
     in publications or presentations arising from this work. More details at
     http://www.quantum-espresso.org/quote

     Parallel version (MPI), running on    28 processors
     R & G space division:  proc/nbgrp/npool/nimage =      28
     Reading input from ../QMCmins/relax-29.in

     Current dimensions of program PWSCF are:
     Max number of different atomic species (ntypx) = 10
     Max number of k-points (npk) =  40000
     Max angular momentum in pseudopotentials (lmaxx) =  3
     Message from routine iosys:
     pot_extrapolation='second-order' not available, using 'atomic'
     Message from routine iosys:
     wfc_extrapolation='second-order' not available, using 'atomic'

     Subspace diagonalization in iterative solution of the eigenvalue problem:
     a serial algorithm will be used

 
     Parallelization info
     --------------------
     sticks:   dense  smooth     PW     G-vecs:    dense   smooth      PW
     Min         408     408    102                32936    32936    4116
     Max         409     409    103                32943    32943    4121
     Sum       11449   11449   2869               922329   922329  115313
 


     bravais-lattice index     =            1
     lattice parameter (alat)  =      20.0000  a.u.
     unit-cell volume          =    8000.0000 (a.u.)^3
     number of atoms/cell      =            3
     number of atomic types    =            2
     number of electrons       =         8.00
     number of Kohn-Sham states=            8
     kinetic-energy cutoff     =      90.0000  Ry
     charge density cutoff     =     360.0000  Ry
     convergence threshold     =      1.0E-08
     mixing beta               =       0.7000
     number of iterations used =            8  plain     mixing
     Exchange-correlation      = BLYP ( 1  3  1  3 0 0)
     nstep                     =           50


     celldm(1)=  20.000000  celldm(2)=   0.000000  celldm(3)=   0.000000
     celldm(4)=   0.000000  celldm(5)=   0.000000  celldm(6)=   0.000000

     crystal axes: (cart. coord. in units of alat)
               a(1) = (   1.000000   0.000000   0.000000 )  
               a(2) = (   0.000000   1.000000   0.000000 )  
               a(3) = (   0.000000   0.000000   1.000000 )  

     reciprocal axes: (cart. coord. in units 2 pi/alat)
               b(1) = (  1.000000  0.000000  0.000000 )  
               b(2) = (  0.000000  1.000000  0.000000 )  
               b(3) = (  0.000000  0.000000  1.000000 )  


     PseudoPot. # 1 for  H read from file:
     ../H.blyp-hgh.UPF
     MD5 check sum: c576e69559cde411e611be972c763230
     Pseudo is Norm-conserving, Zval =  1.0
     Generated in analytical, separable form
     Using radial grid of  929 points,  0 beta functions with: 

     PseudoPot. # 2 for  O read from file:
     ../O.blyp-hgh.UPF
     MD5 check sum: d0b7156309aa9befef28faac7bc56342
     Pseudo is Norm-conserving, Zval =  6.0
     Generated in analytical, separable form
     Using radial grid of 1095 points,  1 beta functions with: 
                l(1) =   0

     atomic species   valence    mass     pseudopotential
        H              1.00     1.01000      H( 1.00)
        O              6.00    16.00000      O( 1.00)

     No symmetry found



   Cartesian axes

     site n.     atom                  positions (alat units)
         1           H   tau(   1) = (   0.0546269  -0.0060729   0.0632568  )
         2           H   tau(   2) = (  -0.0421333  -0.0738616   0.0095759  )
         3           O   tau(   3) = (  -0.0007887   0.0050459   0.0009804  )

     number of k points=     1  Marzari-Vanderbilt smearing, width (Ry)=  0.0250
                       cart. coord. in units 2pi/alat
        k(    1) = (   0.0000000   0.0000000   0.0000000), wk =   2.0000000

     Dense  grid:   922329 G-vectors     FFT dimensions: ( 125, 125, 125)

     Estimated max dynamical RAM per process >      31.67Mb

     Estimated total allocated dynamical RAM >     886.64Mb

     Initial potential from superposition of free atoms
     Check: negative starting charge=   -0.016088

     starting charge    7.99998, renormalised to    8.00000

     negative rho (up, down):  1.609E-02 0.000E+00
     Starting wfc are    6 randomized atomic wfcs +    2 random wfc

     total cpu time spent up to now is        0.7 secs

     per-process dynamical memory:    33.5 Mb

     Self-consistent Calculation

     iteration #  1     ecut=    90.00 Ry     beta=0.70
     Davidson diagonalization with overlap
     ethr =  1.00E-02,  avg # of iterations =  8.0

     negative rho (up, down):  4.708E-03 0.000E+00

     total cpu time spent up to now is        1.1 secs

     total energy              =     -33.99976128 Ry
     Harris-Foulkes estimate   =     -34.26897110 Ry
     estimated scf accuracy    <       0.39940380 Ry

     iteration #  2     ecut=    90.00 Ry     beta=0.70
     Davidson diagonalization with overlap
     ethr =  4.99E-03,  avg # of iterations =  2.0

     negative rho (up, down):  2.752E-03 0.000E+00

     total cpu time spent up to now is        1.3 secs

     total energy              =     -34.07293631 Ry
     Harris-Foulkes estimate   =     -34.24930874 Ry
     estimated scf accuracy    <       0.36614057 Ry

     iteration #  3     ecut=    90.00 Ry     beta=0.70
     Davidson diagonalization with overlap
     ethr =  4.58E-03,  avg # of iterations =  2.0

     negative rho (up, down):  1.793E-04 0.000E+00

     total cpu time spent up to now is        1.4 secs

     total energy              =     -34.15742389 Ry
     Harris-Foulkes estimate   =     -34.15862988 Ry
     estimated scf accuracy    <       0.00606947 Ry

     iteration #  4     ecut=    90.00 Ry     beta=0.70
     Davidson diagonalization with overlap
     ethr =  7.59E-05,  avg # of iterations =  7.0

     negative rho (up, down):  3.624E-05 0.000E+00

     total cpu time spent up to now is        1.7 secs

     total energy              =     -34.15508142 Ry
     Harris-Foulkes estimate   =     -34.15524760 Ry
     estimated scf accuracy    <       0.00039436 Ry

     iteration #  5     ecut=    90.00 Ry     beta=0.70
     Davidson diagonalization with overlap
     ethr =  4.93E-06,  avg # of iterations = 20.0

     total cpu time spent up to now is        2.1 secs

     total energy              =     -34.15920211 Ry
     Harris-Foulkes estimate   =     -34.15920251 Ry
     estimated scf accuracy    <       0.00000812 Ry

     iteration #  6     ecut=    90.00 Ry     beta=0.70
     Davidson diagonalization with overlap
     ethr =  1.01E-07,  avg # of iterations =  2.0

     negative rho (up, down):  2.634E-08 0.000E+00

     total cpu time spent up to now is        2.3 secs

     total energy              =     -34.15920274 Ry
     Harris-Foulkes estimate   =     -34.15920278 Ry
     estimated scf accuracy    <       0.00000299 Ry

     iteration #  7     ecut=    90.00 Ry     beta=0.70
     Davidson diagonalization with overlap
     ethr =  3.73E-08,  avg # of iterations =  2.0

     total cpu time spent up to now is        2.5 secs

     total energy              =     -34.15920312 Ry
     Harris-Foulkes estimate   =     -34.15920305 Ry
     estimated scf accuracy    <       0.00000001 Ry

     iteration #  8     ecut=    90.00 Ry     beta=0.70
     Davidson diagonalization with overlap
     ethr =  1.47E-10,  avg # of iterations =  3.0

     total cpu time spent up to now is        2.7 secs

     End of self-consistent calculation

          k = 0.0000 0.0000 0.0000 (115313 PWs)   bands (ev):

   -25.9985 -12.9711  -9.6164  -7.2388  -0.8201   0.4612   0.8775   1.1306

     the Fermi energy is    -5.3115 ev

!    total energy              =     -34.15920298 Ry
     Harris-Foulkes estimate   =     -34.15920313 Ry
     estimated scf accuracy    <          6.4E-09 Ry

     The total energy is the sum of the following terms:

     one-electron contribution =     -65.21836424 Ry
     hartree contribution      =      33.98386319 Ry
     xc contribution           =      -8.47688675 Ry
     ewald contribution        =       5.55218482 Ry
     smearing contrib. (-TS)   =       0.00000000 Ry

     convergence has been achieved in   8 iterations

     Forces acting on atoms (Ry/au):

     atom    1 type  1   force =     0.17066189   -0.00069152    0.17025177
     atom    2 type  1   force =    -0.05596936   -0.06231101   -0.01682873
     atom    3 type  2   force =    -0.11469253    0.06300254   -0.15342304

     Total force =     0.325688     Total SCF correction =     0.000070

     BFGS Geometry Optimization

     number of scf cycles    =   1
     number of bfgs steps    =   0

     energy   new            =     -34.1592029816 Ry

     new trust radius        =       0.2410635255 bohr
     new conv_thr            =       0.0000000100 Ry


ATOMIC_POSITIONS (angstrom)
H        0.668456382  -0.064638939   0.759574356
H       -0.475537711  -0.814691568   0.092441618
O       -0.069039671   0.086742507  -0.070811974



     Writing output data file pwscf.save
     Check: negative starting charge=   -0.016088
     NEW-OLD atomic charge density approx. for the potential
     Check: negative starting charge=   -0.015980

     negative rho (up, down):  2.771E-02 0.000E+00

     total cpu time spent up to now is        3.3 secs

     per-process dynamical memory:    45.8 Mb

     Self-consistent Calculation

     iteration #  1     ecut=    90.00 Ry     beta=0.70
     Davidson diagonalization with overlap
     c_bands:  2 eigenvalues not converged
     ethr =  1.00E-06,  avg # of iterations = 20.0

     negative rho (up, down):  6.971E-03 0.000E+00

     total cpu time spent up to now is        3.8 secs

     total energy              =     -34.14455047 Ry
     Harris-Foulkes estimate   =     -34.12224181 Ry
     estimated scf accuracy    <       0.04765317 Ry

     iteration #  2     ecut=    90.00 Ry     beta=0.70
     Davidson diagonalization with overlap
     ethr =  5.96E-04,  avg # of iterations =  4.0

     negative rho (up, down):  4.628E-03 0.000E+00

     total cpu time spent up to now is        4.1 secs

     total energy              =     -34.11650624 Ry
     Harris-Foulkes estimate   =     -34.19157484 Ry
     estimated scf accuracy    <       0.06278057 Ry

     iteration #  3     ecut=    90.00 Ry     beta=0.70
     Davidson diagonalization with overlap
     ethr =  5.96E-04,  avg # of iterations =  2.0

     negative rho (up, down):  1.513E-03 0.000E+00

     total cpu time spent up to now is        4.3 secs

     total energy              =     -34.14914755 Ry
     Harris-Foulkes estimate   =     -34.14529801 Ry
     estimated scf accuracy    <       0.00123632 Ry

     iteration #  4     ecut=    90.00 Ry     beta=0.70
     Davidson diagonalization with overlap
     ethr =  1.55E-05,  avg # of iterations = 15.0

     negative rho (up, down):  1.832E-04 0.000E+00

     total cpu time spent up to now is        4.6 secs

     total energy              =     -34.15375292 Ry
     Harris-Foulkes estimate   =     -34.15345098 Ry
     estimated scf accuracy    <       0.00005465 Ry

     iteration #  5     ecut=    90.00 Ry     beta=0.70
     Davidson diagonalization with overlap
     c_bands:  1 eigenvalues not converged
     ethr =  6.83E-07,  avg # of iterations = 20.0

     negative rho (up, down):  4.472E-06 0.000E+00

     total cpu time spent up to now is        4.9 secs

     total energy              =     -34.15376490 Ry
     Harris-Foulkes estimate   =     -34.15376317 Ry
     estimated scf accuracy    <       0.00000189 Ry

     iteration #  6     ecut=    90.00 Ry     beta=0.70
     Davidson diagonalization with overlap
     ethr =  2.36E-08,  avg # of iterations =  3.0

     negative rho (up, down):  5.225E-08 0.000E+00

     total cpu time spent up to now is        5.1 secs

     total energy              =     -34.15376552 Ry
     Harris-Foulkes estimate   =     -34.15376523 Ry
     estimated scf accuracy    <       0.00000008 Ry

     iteration #  7     ecut=    90.00 Ry     beta=0.70
     Davidson diagonalization with overlap
     ethr =  1.03E-09,  avg # of iterations =  2.0

     total cpu time spent up to now is        5.3 secs

     End of self-consistent calculation

          k = 0.0000 0.0000 0.0000 (115313 PWs)   bands (ev):

   -24.5596 -11.5220  -9.6570  -7.0109  -1.3221   0.2814   0.5724   1.1060

     the Fermi energy is    -4.9703 ev

!    total energy              =     -34.15376563 Ry
     Harris-Foulkes estimate   =     -34.15376553 Ry
     estimated scf accuracy    <          2.3E-09 Ry

     The total energy is the sum of the following terms:

     one-electron contribution =     -62.01985586 Ry
     hartree contribution      =      32.44716426 Ry
     xc contribution           =      -8.22800822 Ry
     ewald contribution        =       3.64693420 Ry
     smearing contrib. (-TS)   =       0.00000000 Ry

     convergence has been achieved in   7 iterations

     Forces acting on atoms (Ry/au):

     atom    1 type  1   force =    -0.08874870    0.04209000   -0.11507755
     atom    2 type  1   force =    -0.00671775    0.02631907   -0.02339719
     atom    3 type  2   force =     0.09546645   -0.06840907    0.13847475

     Total force =     0.239050     Total SCF correction =     0.000069

     number of scf cycles    =   2
     number of bfgs steps    =   1

     energy   old            =     -34.1592029816 Ry
     energy   new            =     -34.1537656317 Ry

     CASE: energy  _new > energy  _old

     new trust radius        =       0.1146544878 bohr
     new conv_thr            =       0.0000000100 Ry


ATOMIC_POSITIONS (angstrom)
H        0.621099369  -0.064447048   0.712331147
H       -0.460006758  -0.797400868   0.097111428
O       -0.037213611   0.069259916  -0.028238575



     Writing output data file pwscf.save
     Check: negative starting charge=   -0.015980
     NEW-OLD atomic charge density approx. for the potential
     Check: negative starting charge=   -0.016036

     negative rho (up, down):  1.923E-02 0.000E+00

     total cpu time spent up to now is        5.8 secs

     per-process dynamical memory:    45.8 Mb

     Self-consistent Calculation

     iteration #  1     ecut=    90.00 Ry     beta=0.70
     Davidson diagonalization with overlap
     c_bands:  1 eigenvalues not converged
     ethr =  1.00E-06,  avg # of iterations = 20.0

     negative rho (up, down):  5.079E-03 0.000E+00

     total cpu time spent up to now is        6.4 secs

     total energy              =     -34.16040287 Ry
     Harris-Foulkes estimate   =     -34.19045352 Ry
     estimated scf accuracy    <       0.01400152 Ry

     iteration #  2     ecut=    90.00 Ry     beta=0.70
     Davidson diagonalization with overlap
     ethr =  1.75E-04,  avg # of iterations =  3.0

     negative rho (up, down):  3.278E-03 0.000E+00

     total cpu time spent up to now is        6.6 secs

     total energy              =     -34.16860333 Ry
     Harris-Foulkes estimate   =     -34.17451968 Ry
     estimated scf accuracy    <       0.01902595 Ry

     iteration #  3     ecut=    90.00 Ry     beta=0.70
     Davidson diagonalization with overlap
     ethr =  1.75E-04,  avg # of iterations =  2.0

     negative rho (up, down):  8.110E-04 0.000E+00

     total cpu time spent up to now is        6.9 secs

     total energy              =     -34.17443815 Ry
     Harris-Foulkes estimate   =     -34.17210974 Ry
     estimated scf accuracy    <       0.00006986 Ry

     iteration #  4     ecut=    90.00 Ry     beta=0.70
     Davidson diagonalization with overlap
     ethr =  8.73E-07,  avg # of iterations = 15.0

     negative rho (up, down):  1.171E-04 0.000E+00

     total cpu time spent up to now is        7.3 secs

     total energy              =     -34.17859420 Ry
     Harris-Foulkes estimate   =     -34.17856724 Ry
     estimated scf accuracy    <       0.00000351 Ry

     iteration #  5     ecut=    90.00 Ry     beta=0.70
     Davidson diagonalization with overlap
     ethr =  4.39E-08,  avg # of iterations =  7.0

     negative rho (up, down):  2.168E-07 0.000E+00

     total cpu time spent up to now is        7.5 secs

     total energy              =     -34.17859389 Ry
     Harris-Foulkes estimate   =     -34.17859513 Ry
     estimated scf accuracy    <       0.00000018 Ry

     iteration #  6     ecut=    90.00 Ry     beta=0.70
     Davidson diagonalization with overlap
     ethr =  2.23E-09,  avg # of iterations =  3.0

     total cpu time spent up to now is        7.7 secs

     End of self-consistent calculation

          k = 0.0000 0.0000 0.0000 (115313 PWs)   bands (ev):

   -25.2223 -12.2335  -9.6420  -7.1166  -0.9946   0.4053   0.7586   1.1195

     the Fermi energy is    -5.1258 ev

!    total energy              =     -34.17859397 Ry
     Harris-Foulkes estimate   =     -34.17859398 Ry
     estimated scf accuracy    <          4.2E-09 Ry

     The total energy is the sum of the following terms:

     one-electron contribution =     -63.60008887 Ry
     hartree contribution      =      33.20834883 Ry
     xc contribution           =      -8.34763024 Ry
     ewald contribution        =       4.56077631 Ry
     smearing contrib. (-TS)   =       0.00000000 Ry

     convergence has been achieved in   6 iterations

     Forces acting on atoms (Ry/au):

     atom    1 type  1   force =    -0.00406697    0.02966429   -0.02213157
     atom    2 type  1   force =    -0.03079753   -0.01814654   -0.01863561
     atom    3 type  2   force =     0.03486450   -0.01151776    0.04076718

     Total force =     0.077599     Total SCF correction =     0.000147

     number of scf cycles    =   3
     number of bfgs steps    =   1

     energy   old            =     -34.1592029816 Ry
     energy   new            =     -34.1785939670 Ry

     CASE: energy  _new < energy  _old

     new trust radius        =       0.0432439696 bohr
     new conv_thr            =       0.0000000041 Ry


ATOMIC_POSITIONS (angstrom)
H        0.627232200  -0.050412399   0.709878064
H       -0.477255264  -0.808949614   0.087479175
O       -0.026097936   0.066774013  -0.016153240



     Writing output data file pwscf.save
     Check: negative starting charge=   -0.016036
     NEW-OLD atomic charge density approx. for the potential
     Check: negative starting charge=   -0.016022

     negative rho (up, down):  5.539E-03 0.000E+00

     total cpu time spent up to now is        8.3 secs

     per-process dynamical memory:    45.8 Mb

     Self-consistent Calculation

     iteration #  1     ecut=    90.00 Ry     beta=0.70
     Davidson diagonalization with overlap
     c_bands:  1 eigenvalues not converged
     ethr =  1.00E-06,  avg # of iterations = 20.0

     negative rho (up, down):  1.451E-03 0.000E+00

     total cpu time spent up to now is        8.8 secs

     total energy              =     -34.17706605 Ry
     Harris-Foulkes estimate   =     -34.17200298 Ry
     estimated scf accuracy    <       0.00026359 Ry

     iteration #  2     ecut=    90.00 Ry     beta=0.70
     Davidson diagonalization with overlap
     ethr =  3.29E-06,  avg # of iterations = 17.0

     negative rho (up, down):  4.142E-04 0.000E+00

     total cpu time spent up to now is        9.2 secs

     total energy              =     -34.17734216 Ry
     Harris-Foulkes estimate   =     -34.17712986 Ry
     estimated scf accuracy    <       0.00001804 Ry

     iteration #  3     ecut=    90.00 Ry     beta=0.70
     Davidson diagonalization with overlap
     c_bands:  1 eigenvalues not converged
     ethr =  2.26E-07,  avg # of iterations = 20.0

     negative rho (up, down):  8.859E-05 0.000E+00

     total cpu time spent up to now is        9.5 secs

     total energy              =     -34.18142767 Ry
     Harris-Foulkes estimate   =     -34.18142548 Ry
     estimated scf accuracy    <       0.00000334 Ry

     iteration #  4     ecut=    90.00 Ry     beta=0.70
     Davidson diagonalization with overlap
     ethr =  4.18E-08,  avg # of iterations =  5.0

     negative rho (up, down):  2.891E-06 0.000E+00

     total cpu time spent up to now is        9.7 secs

     total energy              =     -34.18142833 Ry
     Harris-Foulkes estimate   =     -34.18142913 Ry
     estimated scf accuracy    <       0.00000127 Ry

     iteration #  5     ecut=    90.00 Ry     beta=0.70
     Davidson diagonalization with overlap
     ethr =  1.59E-08,  avg # of iterations =  2.0

     total cpu time spent up to now is        9.9 secs

     total energy              =     -34.18142860 Ry
     Harris-Foulkes estimate   =     -34.18142864 Ry
     estimated scf accuracy    <       0.00000001 Ry

     iteration #  6     ecut=    90.00 Ry     beta=0.70
     Davidson diagonalization with overlap
     ethr =  1.58E-10,  avg # of iterations =  2.0

     total cpu time spent up to now is       10.0 secs

     End of self-consistent calculation

          k = 0.0000 0.0000 0.0000 (115313 PWs)   bands (ev):

   -25.1526 -12.3693  -9.4974  -7.1004  -0.9835   0.4112   0.7479   1.1224

     the Fermi energy is    -5.1062 ev

!    total energy              =     -34.18142862 Ry
     Harris-Foulkes estimate   =     -34.18142861 Ry
     estimated scf accuracy    <          5.8E-10 Ry

     The total energy is the sum of the following terms:

     one-electron contribution =     -63.55714808 Ry
     hartree contribution      =      33.19207322 Ry
     xc contribution           =      -8.34525509 Ry
     ewald contribution        =       4.52890133 Ry
     smearing contrib. (-TS)   =       0.00000000 Ry

     convergence has been achieved in   6 iterations

     Forces acting on atoms (Ry/au):

     atom    1 type  1   force =     0.00897827    0.01803756   -0.00218240
     atom    2 type  1   force =    -0.00745716    0.01389390   -0.01603064
     atom    3 type  2   force =    -0.00152111   -0.03193147    0.01821304

     Total force =     0.047645     Total SCF correction =     0.000074

     number of scf cycles    =   4
     number of bfgs steps    =   2

     energy   old            =     -34.1785939670 Ry
     energy   new            =     -34.1814286231 Ry

     CASE: energy  _new < energy  _old

     new trust radius        =       0.0614265036 bohr
     new conv_thr            =       0.0000000028 Ry


ATOMIC_POSITIONS (angstrom)
H        0.643012407  -0.025443102   0.710265917
H       -0.497898545  -0.808744766   0.067110811
O       -0.021234862   0.041599868   0.003827272



     Writing output data file pwscf.save
     Check: negative starting charge=   -0.016022
     NEW-OLD atomic charge density approx. for the potential
     Check: negative starting charge=   -0.016007

     negative rho (up, down):  1.115E-02 0.000E+00

     total cpu time spent up to now is       10.6 secs

     per-process dynamical memory:    45.8 Mb

     Self-consistent Calculation

     iteration #  1     ecut=    90.00 Ry     beta=0.70
     Davidson diagonalization with overlap
     c_bands:  1 eigenvalues not converged
     ethr =  1.00E-06,  avg # of iterations = 20.0

     negative rho (up, down):  2.934E-03 0.000E+00

     total cpu time spent up to now is       11.2 secs

     total energy              =     -34.17702472 Ry
     Harris-Foulkes estimate   =     -34.16659770 Ry
     estimated scf accuracy    <       0.00101447 Ry

     iteration #  2     ecut=    90.00 Ry     beta=0.70
     Davidson diagonalization with overlap
     ethr =  1.27E-05,  avg # of iterations = 11.0

     negative rho (up, down):  1.756E-03 0.000E+00

     total cpu time spent up to now is       11.4 secs

     total energy              =     -34.17867912 Ry
     Harris-Foulkes estimate   =     -34.17764199 Ry
     estimated scf accuracy    <       0.00083729 Ry

     iteration #  3     ecut=    90.00 Ry     beta=0.70
     Davidson diagonalization with overlap
     c_bands:  1 eigenvalues not converged
     ethr =  1.05E-05,  avg # of iterations = 20.0

     negative rho (up, down):  1.529E-04 0.000E+00

     total cpu time spent up to now is       11.8 secs

     total energy              =     -34.17934092 Ry
     Harris-Foulkes estimate   =     -34.17887032 Ry
     estimated scf accuracy    <       0.00002156 Ry

     iteration #  4     ecut=    90.00 Ry     beta=0.70
     Davidson diagonalization with overlap
     c_bands:  1 eigenvalues not converged
     ethr =  2.70E-07,  avg # of iterations = 20.0

     negative rho (up, down):  8.504E-06 0.000E+00

     total cpu time spent up to now is       12.2 secs

     total energy              =     -34.18342444 Ry
     Harris-Foulkes estimate   =     -34.18342736 Ry
     estimated scf accuracy    <       0.00000042 Ry

     iteration #  5     ecut=    90.00 Ry     beta=0.70
     Davidson diagonalization with overlap
     ethr =  5.20E-09,  avg # of iterations =  9.0

     total cpu time spent up to now is       12.5 secs

     total energy              =     -34.18342380 Ry
     Harris-Foulkes estimate   =     -34.18342459 Ry
     estimated scf accuracy    <       0.00000002 Ry

     iteration #  6     ecut=    90.00 Ry     beta=0.70
     Davidson diagonalization with overlap
     ethr =  2.17E-10,  avg # of iterations =  2.0

     total cpu time spent up to now is       12.7 secs

     End of self-consistent calculation

          k = 0.0000 0.0000 0.0000 (115313 PWs)   bands (ev):

   -25.1762 -12.7914  -9.2044  -7.0929  -0.9277   0.4316   0.7599   1.1269

     the Fermi energy is    -5.1087 ev

!    total energy              =     -34.18342377 Ry
     Harris-Foulkes estimate   =     -34.18342381 Ry
     estimated scf accuracy    <          6.5E-10 Ry

     The total energy is the sum of the following terms:

     one-electron contribution =     -63.81328419 Ry
     hartree contribution      =      33.32377867 Ry
     xc contribution           =      -8.36714106 Ry
     ewald contribution        =       4.67322282 Ry
     smearing contrib. (-TS)   =       0.00000000 Ry

     convergence has been achieved in   6 iterations

     Forces acting on atoms (Ry/au):

     atom    1 type  1   force =     0.01339202    0.00036218    0.01237700
     atom    2 type  1   force =    -0.00469964   -0.00680159   -0.00122149
     atom    3 type  2   force =    -0.00869238    0.00643942   -0.01115550

     Total force =     0.025377     Total SCF correction =     0.000081

     number of scf cycles    =   5
     number of bfgs steps    =   3

     energy   old            =     -34.1814286231 Ry
     energy   new            =     -34.1834237720 Ry

     CASE: energy  _new < energy  _old

     new trust radius        =       0.0111606680 bohr
     new conv_thr            =       0.0000000013 Ry


ATOMIC_POSITIONS (angstrom)
H        0.647642822  -0.023026652   0.713022821
H       -0.501279529  -0.811523521   0.065112485
O       -0.022484293   0.041962173   0.003068694



     Writing output data file pwscf.save
     Check: negative starting charge=   -0.016007
     NEW-OLD atomic charge density approx. for the potential
     Check: negative starting charge=   -0.016003

     negative rho (up, down):  3.825E-04 0.000E+00

     total cpu time spent up to now is       13.3 secs

     per-process dynamical memory:    45.8 Mb

     Self-consistent Calculation

     iteration #  1     ecut=    90.00 Ry     beta=0.70
     Davidson diagonalization with overlap
     ethr =  1.00E-06,  avg # of iterations =  4.0

     negative rho (up, down):  8.721E-05 0.000E+00

     total cpu time spent up to now is       13.6 secs

     total energy              =     -34.18358667 Ry
     Harris-Foulkes estimate   =     -34.18362177 Ry
     estimated scf accuracy    <       0.00005733 Ry

     iteration #  2     ecut=    90.00 Ry     beta=0.70
     Davidson diagonalization with overlap
     ethr =  7.17E-07,  avg # of iterations =  3.0

     negative rho (up, down):  4.780E-05 0.000E+00

     total cpu time spent up to now is       13.8 secs

     total energy              =     -34.18359773 Ry
     Harris-Foulkes estimate   =     -34.18362403 Ry
     estimated scf accuracy    <       0.00005268 Ry

     iteration #  3     ecut=    90.00 Ry     beta=0.70
     Davidson diagonalization with overlap
     ethr =  6.59E-07,  avg # of iterations =  2.0

     negative rho (up, down):  4.318E-06 0.000E+00

     total cpu time spent up to now is       14.0 secs

     total energy              =     -34.18360950 Ry
     Harris-Foulkes estimate   =     -34.18360931 Ry
     estimated scf accuracy    <       0.00000064 Ry

     iteration #  4     ecut=    90.00 Ry     beta=0.70
     Davidson diagonalization with overlap
     ethr =  7.97E-09,  avg # of iterations =  2.0

     negative rho (up, down):  5.111E-08 0.000E+00

     total cpu time spent up to now is       14.2 secs

     total energy              =     -34.18360977 Ry
     Harris-Foulkes estimate   =     -34.18360968 Ry
     estimated scf accuracy    <       0.00000001 Ry

     iteration #  5     ecut=    90.00 Ry     beta=0.70
     Davidson diagonalization with overlap
     ethr =  1.73E-10,  avg # of iterations =  2.0

     total cpu time spent up to now is       14.3 secs

     End of self-consistent calculation

          k = 0.0000 0.0000 0.0000 (115313 PWs)   bands (ev):

   -25.1162 -12.7576  -9.1836  -7.0819  -0.9417   0.4274   0.7478   1.1269

     the Fermi energy is    -5.0937 ev

!    total energy              =     -34.18360977 Ry
     Harris-Foulkes estimate   =     -34.18360977 Ry
     estimated scf accuracy    <          6.6E-10 Ry

     The total energy is the sum of the following terms:

     one-electron contribution =     -63.69454919 Ry
     hartree contribution      =      33.26767834 Ry
     xc contribution           =      -8.35795840 Ry
     ewald contribution        =       4.60121948 Ry
     smearing contrib. (-TS)   =       0.00000000 Ry

     convergence has been achieved in   5 iterations

     Forces acting on atoms (Ry/au):

     atom    1 type  1   force =     0.00402845    0.00001683    0.00330688
     atom    2 type  1   force =    -0.00038018   -0.00080513   -0.00063635
     atom    3 type  2   force =    -0.00364827    0.00078830   -0.00267053

     Total force =     0.007030     Total SCF correction =     0.000247

     number of scf cycles    =   6
     number of bfgs steps    =   4

     energy   old            =     -34.1834237720 Ry
     energy   new            =     -34.1836097718 Ry

     CASE: energy  _new < energy  _old

     new trust radius        =       0.0043133771 bohr
     new conv_thr            =       0.0000000002 Ry


ATOMIC_POSITIONS (angstrom)
H        0.649562094  -0.022175157   0.713917999
H       -0.502107073  -0.812240535   0.064210393
O       -0.023576021   0.041827691   0.003075608



     Writing output data file pwscf.save
     Check: negative starting charge=   -0.016003
     NEW-OLD atomic charge density approx. for the potential
     Check: negative starting charge=   -0.016001

     negative rho (up, down):  2.582E-04 0.000E+00

     total cpu time spent up to now is       14.9 secs

     per-process dynamical memory:    45.8 Mb

     Self-consistent Calculation

     iteration #  1     ecut=    90.00 Ry     beta=0.70
     Davidson diagonalization with overlap
     ethr =  1.00E-06,  avg # of iterations =  3.0

     Threshold (ethr) on eigenvalues was too large:
     Diagonalizing with lowered threshold

     Davidson diagonalization with overlap
     ethr =  6.74E-08,  avg # of iterations =  1.0

     negative rho (up, down):  5.575E-05 0.000E+00

     total cpu time spent up to now is       15.2 secs

     total energy              =     -34.18362429 Ry
     Harris-Foulkes estimate   =     -34.18362553 Ry
     estimated scf accuracy    <       0.00000578 Ry

     iteration #  2     ecut=    90.00 Ry     beta=0.70
     Davidson diagonalization with overlap
     ethr =  7.22E-08,  avg # of iterations =  2.0

     negative rho (up, down):  2.764E-05 0.000E+00

     total cpu time spent up to now is       15.4 secs

     total energy              =     -34.18362559 Ry
     Harris-Foulkes estimate   =     -34.18362747 Ry
     estimated scf accuracy    <       0.00000413 Ry

     iteration #  3     ecut=    90.00 Ry     beta=0.70
     Davidson diagonalization with overlap
     ethr =  5.16E-08,  avg # of iterations =  2.0

     negative rho (up, down):  2.137E-06 0.000E+00

     total cpu time spent up to now is       15.6 secs

     total energy              =     -34.18362663 Ry
     Harris-Foulkes estimate   =     -34.18362663 Ry
     estimated scf accuracy    <       0.00000014 Ry

     iteration #  4     ecut=    90.00 Ry     beta=0.70
     Davidson diagonalization with overlap
     ethr =  1.74E-09,  avg # of iterations =  2.0

     negative rho (up, down):  1.779E-08 0.000E+00

     total cpu time spent up to now is       15.8 secs

     total energy              =     -34.18362674 Ry
     Harris-Foulkes estimate   =     -34.18362667 Ry
     estimated scf accuracy    <          2.6E-09 Ry

     iteration #  5     ecut=    90.00 Ry     beta=0.70
     Davidson diagonalization with overlap
     ethr =  3.29E-11,  avg # of iterations =  3.0

     total cpu time spent up to now is       15.9 secs

     End of self-consistent calculation

          k = 0.0000 0.0000 0.0000 (115313 PWs)   bands (ev):

   -25.0980 -12.7499  -9.1752  -7.0784  -0.9458   0.4261   0.7442   1.1267

     the Fermi energy is    -5.0893 ev

!    total energy              =     -34.18362675 Ry
     Harris-Foulkes estimate   =     -34.18362674 Ry
     estimated scf accuracy    <          1.7E-10 Ry

     The total energy is the sum of the following terms:

     one-electron contribution =     -63.65972769 Ry
     hartree contribution      =      33.25130262 Ry
     xc contribution           =      -8.35528385 Ry
     ewald contribution        =       4.58008216 Ry
     smearing contrib. (-TS)   =       0.00000000 Ry

     convergence has been achieved in   5 iterations

     Forces acting on atoms (Ry/au):

     atom    1 type  1   force =     0.00030175   -0.00014696   -0.00029217
     atom    2 type  1   force =     0.00028529   -0.00036574   -0.00022949
     atom    3 type  2   force =    -0.00058704    0.00051270    0.00052166

     Total force =     0.001160     Total SCF correction =     0.000155
     SCF correction compared to forces is large: reduce conv_thr to get better values

     bfgs converged in   7 scf cycles and   5 bfgs steps
     (criteria: energy <  1.0E-04, force <  1.0E-03)

     End of BFGS Geometry Optimization

     Final energy   =     -34.1836267532 Ry
Begin final coordinates

ATOMIC_POSITIONS (angstrom)
H        0.649562094  -0.022175157   0.713917999
H       -0.502107073  -0.812240535   0.064210393
O       -0.023576021   0.041827691   0.003075608
End final coordinates



     Writing output data file pwscf.save
 
     init_run     :      0.51s CPU      0.55s WALL (       1 calls)
     electrons    :     10.89s CPU     12.66s WALL (       7 calls)
     update_pot   :      1.47s CPU      1.77s WALL (       6 calls)
     forces       :      0.47s CPU      0.47s WALL (       7 calls)

     Called by init_run:
     wfcinit      :      0.03s CPU      0.04s WALL (       1 calls)
     potinit      :      0.11s CPU      0.11s WALL (       1 calls)

     Called by electrons:
     c_bands      :      5.55s CPU      5.90s WALL (      44 calls)
     sum_band     :      0.91s CPU      0.93s WALL (      44 calls)
     v_of_rho     :      2.60s CPU      2.65s WALL (      50 calls)
     mix_rho      :      0.92s CPU      1.67s WALL (      44 calls)

     Called by c_bands:
     init_us_2    :      0.03s CPU      0.03s WALL (      89 calls)
     cegterg      :      5.52s CPU      5.85s WALL (      44 calls)

     Called by sum_band:

     Called by *egterg:
     h_psi        :      4.69s CPU      4.96s WALL (     381 calls)
     g_psi        :      0.04s CPU      0.05s WALL (     336 calls)
     cdiaghg      :      0.09s CPU      0.09s WALL (     373 calls)

     Called by h_psi:
     h_psi:pot    :      4.65s CPU      4.92s WALL (     381 calls)
     h_psi:calbec :      0.07s CPU      0.07s WALL (     381 calls)
     vloc_psi     :      4.55s CPU      4.81s WALL (     381 calls)
     add_vuspsi   :      0.03s CPU      0.03s WALL (     381 calls)

     General routines
     calbec       :      0.07s CPU      0.08s WALL (     409 calls)
     fft          :      1.83s CPU      1.90s WALL (     565 calls)
     fftw         :      4.45s CPU      4.71s WALL (    3394 calls)
     davcio       :      0.10s CPU      0.73s WALL (     294 calls)
 
     Parallel routines
     fft_scatter  :      2.29s CPU      2.59s WALL (    3959 calls)
 
     PWSCF        :    13.79s CPU        16.37s WALL

 
   This run was terminated on:   2:24:43  28Jul2018            

=------------------------------------------------------------------------------=
   JOB DONE.
=------------------------------------------------------------------------------=
