
     Program PWSCF v.6.0 (svn rev. 13079) starts on 28Jul2018 at  2:29:44 

     This program is part of the open-source Quantum ESPRESSO suite
     for quantum simulation of materials; please cite
         "P. Giannozzi et al., J. Phys.:Condens. Matter 21 395502 (2009);
          URL http://www.quantum-espresso.org", 
     in publications or presentations arising from this work. More details at
     http://www.quantum-espresso.org/quote

     Parallel version (MPI), running on    28 processors
     R & G space division:  proc/nbgrp/npool/nimage =      28
     Reading input from ../QMCmins/relax-43.in

     Current dimensions of program PWSCF are:
     Max number of different atomic species (ntypx) = 10
     Max number of k-points (npk) =  40000
     Max angular momentum in pseudopotentials (lmaxx) =  3
     Message from routine iosys:
     pot_extrapolation='second-order' not available, using 'atomic'
     Message from routine iosys:
     wfc_extrapolation='second-order' not available, using 'atomic'

     Subspace diagonalization in iterative solution of the eigenvalue problem:
     a serial algorithm will be used

 
     Parallelization info
     --------------------
     sticks:   dense  smooth     PW     G-vecs:    dense   smooth      PW
     Min         408     408    102                32936    32936    4116
     Max         409     409    103                32943    32943    4121
     Sum       11449   11449   2869               922329   922329  115313
 


     bravais-lattice index     =            1
     lattice parameter (alat)  =      20.0000  a.u.
     unit-cell volume          =    8000.0000 (a.u.)^3
     number of atoms/cell      =            3
     number of atomic types    =            2
     number of electrons       =         8.00
     number of Kohn-Sham states=            8
     kinetic-energy cutoff     =      90.0000  Ry
     charge density cutoff     =     360.0000  Ry
     convergence threshold     =      1.0E-08
     mixing beta               =       0.7000
     number of iterations used =            8  plain     mixing
     Exchange-correlation      = BLYP ( 1  3  1  3 0 0)
     nstep                     =           50


     celldm(1)=  20.000000  celldm(2)=   0.000000  celldm(3)=   0.000000
     celldm(4)=   0.000000  celldm(5)=   0.000000  celldm(6)=   0.000000

     crystal axes: (cart. coord. in units of alat)
               a(1) = (   1.000000   0.000000   0.000000 )  
               a(2) = (   0.000000   1.000000   0.000000 )  
               a(3) = (   0.000000   0.000000   1.000000 )  

     reciprocal axes: (cart. coord. in units 2 pi/alat)
               b(1) = (  1.000000  0.000000  0.000000 )  
               b(2) = (  0.000000  1.000000  0.000000 )  
               b(3) = (  0.000000  0.000000  1.000000 )  


     PseudoPot. # 1 for  H read from file:
     ../H.blyp-hgh.UPF
     MD5 check sum: c576e69559cde411e611be972c763230
     Pseudo is Norm-conserving, Zval =  1.0
     Generated in analytical, separable form
     Using radial grid of  929 points,  0 beta functions with: 

     PseudoPot. # 2 for  O read from file:
     ../O.blyp-hgh.UPF
     MD5 check sum: d0b7156309aa9befef28faac7bc56342
     Pseudo is Norm-conserving, Zval =  6.0
     Generated in analytical, separable form
     Using radial grid of 1095 points,  1 beta functions with: 
                l(1) =   0

     atomic species   valence    mass     pseudopotential
        H              1.00     1.01000      H( 1.00)
        O              6.00    16.00000      O( 1.00)

     No symmetry found



   Cartesian axes

     site n.     atom                  positions (alat units)
         1           H   tau(   1) = (   0.0185011  -0.0360918  -0.0815043  )
         2           H   tau(   2) = (   0.0660041   0.0519502   0.0270683  )
         3           O   tau(   3) = (  -0.0053344  -0.0010011   0.0090143  )

     number of k points=     1  Marzari-Vanderbilt smearing, width (Ry)=  0.0250
                       cart. coord. in units 2pi/alat
        k(    1) = (   0.0000000   0.0000000   0.0000000), wk =   2.0000000

     Dense  grid:   922329 G-vectors     FFT dimensions: ( 125, 125, 125)

     Estimated max dynamical RAM per process >      31.67Mb

     Estimated total allocated dynamical RAM >     886.64Mb

     Initial potential from superposition of free atoms
     Check: negative starting charge=   -0.015956

     starting charge    7.99998, renormalised to    8.00000

     negative rho (up, down):  1.596E-02 0.000E+00
     Starting wfc are    6 randomized atomic wfcs +    2 random wfc

     total cpu time spent up to now is        0.8 secs

     per-process dynamical memory:    33.5 Mb

     Self-consistent Calculation

     iteration #  1     ecut=    90.00 Ry     beta=0.70
     Davidson diagonalization with overlap
     ethr =  1.00E-02,  avg # of iterations =  8.0

     negative rho (up, down):  4.629E-03 0.000E+00

     total cpu time spent up to now is        1.1 secs

     total energy              =     -34.02538423 Ry
     Harris-Foulkes estimate   =     -34.25524328 Ry
     estimated scf accuracy    <       0.34762748 Ry

     iteration #  2     ecut=    90.00 Ry     beta=0.70
     Davidson diagonalization with overlap
     ethr =  4.35E-03,  avg # of iterations =  2.0

     negative rho (up, down):  2.865E-03 0.000E+00

     total cpu time spent up to now is        1.3 secs

     total energy              =     -34.07615377 Ry
     Harris-Foulkes estimate   =     -34.27537454 Ry
     estimated scf accuracy    <       0.43955643 Ry

     iteration #  3     ecut=    90.00 Ry     beta=0.70
     Davidson diagonalization with overlap
     ethr =  4.35E-03,  avg # of iterations =  2.0

     negative rho (up, down):  1.884E-04 0.000E+00

     total cpu time spent up to now is        1.6 secs

     total energy              =     -34.17200506 Ry
     Harris-Foulkes estimate   =     -34.17269630 Ry
     estimated scf accuracy    <       0.00583885 Ry

     iteration #  4     ecut=    90.00 Ry     beta=0.70
     Davidson diagonalization with overlap
     ethr =  7.30E-05,  avg # of iterations =  5.0

     negative rho (up, down):  1.151E-06 0.000E+00

     total cpu time spent up to now is        1.8 secs

     total energy              =     -34.17363151 Ry
     Harris-Foulkes estimate   =     -34.17376610 Ry
     estimated scf accuracy    <       0.00035571 Ry

     iteration #  5     ecut=    90.00 Ry     beta=0.70
     Davidson diagonalization with overlap
     c_bands:  1 eigenvalues not converged
     ethr =  4.45E-06,  avg # of iterations = 20.0

     negative rho (up, down):  2.474E-06 0.000E+00

     total cpu time spent up to now is        2.1 secs

     total energy              =     -34.17364895 Ry
     Harris-Foulkes estimate   =     -34.17365705 Ry
     estimated scf accuracy    <       0.00002972 Ry

     iteration #  6     ecut=    90.00 Ry     beta=0.70
     Davidson diagonalization with overlap
     ethr =  3.72E-07,  avg # of iterations = 14.0

     negative rho (up, down):  3.588E-07 0.000E+00

     total cpu time spent up to now is        2.4 secs

     total energy              =     -34.17365198 Ry
     Harris-Foulkes estimate   =     -34.17365193 Ry
     estimated scf accuracy    <       0.00000073 Ry

     iteration #  7     ecut=    90.00 Ry     beta=0.70
     Davidson diagonalization with overlap
     ethr =  9.08E-09,  avg # of iterations =  2.0

     total cpu time spent up to now is        2.6 secs

     total energy              =     -34.17365178 Ry
     Harris-Foulkes estimate   =     -34.17365214 Ry
     estimated scf accuracy    <       0.00000003 Ry

     iteration #  8     ecut=    90.00 Ry     beta=0.70
     Davidson diagonalization with overlap
     ethr =  3.81E-10,  avg # of iterations =  2.0

     total cpu time spent up to now is        2.7 secs

     End of self-consistent calculation

          k = 0.0000 0.0000 0.0000 (115313 PWs)   bands (ev):

   -24.8918 -12.4063  -9.2331  -7.0407  -1.0700   0.3698   0.6945   1.1215

     the Fermi energy is    -5.0416 ev

!    total energy              =     -34.17365159 Ry
     Harris-Foulkes estimate   =     -34.17365179 Ry
     estimated scf accuracy    <          5.1E-09 Ry

     The total energy is the sum of the following terms:

     one-electron contribution =     -63.07933399 Ry
     hartree contribution      =      32.97113421 Ry
     xc contribution           =      -8.31116320 Ry
     ewald contribution        =       4.24571139 Ry
     smearing contrib. (-TS)   =       0.00000000 Ry

     convergence has been achieved in   8 iterations

     Forces acting on atoms (Ry/au):

     atom    1 type  1   force =    -0.02944884    0.03766048    0.10038867
     atom    2 type  1   force =     0.03530869    0.02818141    0.01178799
     atom    3 type  2   force =    -0.00585985   -0.06584189   -0.11217665

     Total force =     0.177472     Total SCF correction =     0.000108

     BFGS Geometry Optimization

     number of scf cycles    =   1
     number of bfgs steps    =   0

     energy   new            =     -34.1736515855 Ry

     new trust radius        =       0.1302040481 bohr
     new conv_thr            =       0.0000000100 Ry


ATOMIC_POSITIONS (angstrom)
H        0.180223343  -0.362049933  -0.809480605
H        0.717241554   0.564729961   0.292716934
O       -0.059557897  -0.045437028   0.036041671



     Writing output data file pwscf.save
     Check: negative starting charge=   -0.015956
     NEW-OLD atomic charge density approx. for the potential
     Check: negative starting charge=   -0.015950

     negative rho (up, down):  2.231E-02 0.000E+00

     total cpu time spent up to now is        3.7 secs

     per-process dynamical memory:    45.8 Mb

     Self-consistent Calculation

     iteration #  1     ecut=    90.00 Ry     beta=0.70
     Davidson diagonalization with overlap
     c_bands:  2 eigenvalues not converged
     ethr =  1.00E-06,  avg # of iterations = 20.0

     negative rho (up, down):  5.327E-03 0.000E+00

     total cpu time spent up to now is        4.2 secs

     total energy              =     -11.59178456 Ry
     Harris-Foulkes estimate   =     -38.62314905 Ry
     estimated scf accuracy    <       3.45129477 Ry

     iteration #  2     ecut=    90.00 Ry     beta=0.70
     Davidson diagonalization with overlap
     ethr =  1.00E-02,  avg # of iterations =  3.0

     total cpu time spent up to now is        4.5 secs

     total energy              =     -32.47091626 Ry
     Harris-Foulkes estimate   =     -36.89678711 Ry
     estimated scf accuracy    <      11.75336533 Ry

     iteration #  3     ecut=    90.00 Ry     beta=0.70
     Davidson diagonalization with overlap
     ethr =  1.00E-02,  avg # of iterations =  3.0

     total cpu time spent up to now is        4.7 secs

     total energy              =     -34.29479829 Ry
     Harris-Foulkes estimate   =     -34.59292583 Ry
     estimated scf accuracy    <       0.95437794 Ry

     iteration #  4     ecut=    90.00 Ry     beta=0.70
     Davidson diagonalization with overlap
     ethr =  1.00E-02,  avg # of iterations =  1.0

     total cpu time spent up to now is        4.9 secs

     total energy              =     -34.19898620 Ry
     Harris-Foulkes estimate   =     -34.30640338 Ry
     estimated scf accuracy    <       0.47681022 Ry

     iteration #  5     ecut=    90.00 Ry     beta=0.70
     Davidson diagonalization with overlap
     ethr =  5.96E-03,  avg # of iterations =  1.0

     negative rho (up, down):  2.354E-08 0.000E+00

     total cpu time spent up to now is        5.0 secs

     total energy              =     -34.16819845 Ry
     Harris-Foulkes estimate   =     -34.20021368 Ry
     estimated scf accuracy    <       0.23863700 Ry

     iteration #  6     ecut=    90.00 Ry     beta=0.70
     Davidson diagonalization with overlap
     ethr =  2.98E-03,  avg # of iterations =  1.0

     negative rho (up, down):  1.919E-05 0.000E+00

     total cpu time spent up to now is        5.2 secs

     total energy              =     -34.15989612 Ry
     Harris-Foulkes estimate   =     -34.17085460 Ry
     estimated scf accuracy    <       0.13039985 Ry

     iteration #  7     ecut=    90.00 Ry     beta=0.70
     Davidson diagonalization with overlap
     ethr =  1.63E-03,  avg # of iterations =  1.0

     negative rho (up, down):  4.028E-03 0.000E+00

     total cpu time spent up to now is        5.4 secs

     total energy              =     -34.16064909 Ry
     Harris-Foulkes estimate   =     -34.16112024 Ry
     estimated scf accuracy    <       0.07319961 Ry

     iteration #  8     ecut=    90.00 Ry     beta=0.70
     Davidson diagonalization with overlap
     ethr =  9.15E-04,  avg # of iterations =  1.0

     negative rho (up, down):  4.233E-03 0.000E+00

     total cpu time spent up to now is        5.6 secs

     total energy              =     -34.16576759 Ry
     Harris-Foulkes estimate   =     -34.16298760 Ry
     estimated scf accuracy    <       0.02069199 Ry

     iteration #  9     ecut=    90.00 Ry     beta=0.70
     Davidson diagonalization with overlap
     ethr =  2.59E-04,  avg # of iterations =  1.0

     negative rho (up, down):  2.602E-04 0.000E+00

     total cpu time spent up to now is        5.8 secs

     total energy              =     -34.17105608 Ry
     Harris-Foulkes estimate   =     -34.16620165 Ry
     estimated scf accuracy    <       0.01215189 Ry

     iteration # 10     ecut=    90.00 Ry     beta=0.70
     Davidson diagonalization with overlap
     ethr =  1.52E-04,  avg # of iterations =  7.0

     total cpu time spent up to now is        6.1 secs

     total energy              =     -34.17648953 Ry
     Harris-Foulkes estimate   =     -34.17625298 Ry
     estimated scf accuracy    <       0.00073275 Ry

     iteration # 11     ecut=    90.00 Ry     beta=0.70
     Davidson diagonalization with overlap
     ethr =  9.16E-06,  avg # of iterations = 10.0

     total cpu time spent up to now is        6.4 secs

     total energy              =     -34.17668864 Ry
     Harris-Foulkes estimate   =     -34.17668687 Ry
     estimated scf accuracy    <       0.00003006 Ry

     iteration # 12     ecut=    90.00 Ry     beta=0.70
     Davidson diagonalization with overlap
     ethr =  3.76E-07,  avg # of iterations = 14.0

     total cpu time spent up to now is        6.7 secs

     total energy              =     -34.17669105 Ry
     Harris-Foulkes estimate   =     -34.17669156 Ry
     estimated scf accuracy    <       0.00000493 Ry

     iteration # 13     ecut=    90.00 Ry     beta=0.70
     Davidson diagonalization with overlap
     ethr =  6.16E-08,  avg # of iterations =  3.0

     negative rho (up, down):  1.079E-07 0.000E+00

     total cpu time spent up to now is        6.9 secs

     total energy              =     -34.17668957 Ry
     Harris-Foulkes estimate   =     -34.17669537 Ry
     estimated scf accuracy    <       0.00001116 Ry

     iteration # 14     ecut=    90.00 Ry     beta=0.70
     Davidson diagonalization with overlap
     ethr =  6.16E-08,  avg # of iterations =  2.0

     total cpu time spent up to now is        7.1 secs

     total energy              =     -34.17669109 Ry
     Harris-Foulkes estimate   =     -34.17669140 Ry
     estimated scf accuracy    <       0.00000026 Ry

     iteration # 15     ecut=    90.00 Ry     beta=0.70
     Davidson diagonalization with overlap
     ethr =  3.28E-09,  avg # of iterations =  2.0

     negative rho (up, down):  6.483E-08 0.000E+00

     total cpu time spent up to now is        7.3 secs

     total energy              =     -34.17669078 Ry
     Harris-Foulkes estimate   =     -34.17669112 Ry
     estimated scf accuracy    <       0.00000018 Ry

     iteration # 16     ecut=    90.00 Ry     beta=0.70
     Davidson diagonalization with overlap
     ethr =  2.21E-09,  avg # of iterations =  1.0

     total cpu time spent up to now is        7.5 secs

     total energy              =     -34.17669047 Ry
     Harris-Foulkes estimate   =     -34.17669079 Ry
     estimated scf accuracy    <       0.00000005 Ry

     iteration # 17     ecut=    90.00 Ry     beta=0.70
     Davidson diagonalization with overlap
     ethr =  6.36E-10,  avg # of iterations =  2.0

     total cpu time spent up to now is        7.7 secs

     End of self-consistent calculation

          k = 0.0000 0.0000 0.0000 (115313 PWs)   bands (ev):

   -25.1742 -12.7850  -9.1736  -7.0874  -0.9559   0.4129   0.7587   1.1261

     the Fermi energy is    -5.1089 ev

!    total energy              =     -34.17669027 Ry
     Harris-Foulkes estimate   =     -34.17669047 Ry
     estimated scf accuracy    <          7.4E-09 Ry

     The total energy is the sum of the following terms:

     one-electron contribution =     -63.77070741 Ry
     hartree contribution      =      33.30443619 Ry
     xc contribution           =      -8.36521808 Ry
     ewald contribution        =       4.65479903 Ry
     smearing contrib. (-TS)   =       0.00000000 Ry

     convergence has been achieved in  17 iterations

     Forces acting on atoms (Ry/au):

     atom    1 type  1   force =     0.02623269   -0.03527737   -0.09426953
     atom    2 type  1   force =    -0.05162343   -0.04018388   -0.01696584
     atom    3 type  2   force =     0.02539075    0.07546125    0.11123537

     Total force =     0.184660     Total SCF correction =     0.000266

     number of scf cycles    =   2
     number of bfgs steps    =   1

     energy   old            =     -34.1736515855 Ry
     energy   new            =     -34.1766902721 Ry

     CASE: energy  _new < energy  _old

     new trust radius        =       0.0665798543 bohr
     new conv_thr            =       0.0000000030 Ry


ATOMIC_POSITIONS (angstrom)
H        0.186961349  -0.371118619  -0.833715258
H        0.703894292   0.554343093   0.288331119
O       -0.052948642  -0.025981474   0.064662139



     Writing output data file pwscf.save
     Check: negative starting charge=   -0.015950
     NEW-OLD atomic charge density approx. for the potential
     Check: negative starting charge=   -0.015968

     negative rho (up, down):  1.210E-02 0.000E+00

     total cpu time spent up to now is        8.2 secs

     per-process dynamical memory:    45.8 Mb

     Self-consistent Calculation

     iteration #  1     ecut=    90.00 Ry     beta=0.70
     Davidson diagonalization with overlap
     c_bands:  1 eigenvalues not converged
     ethr =  1.00E-06,  avg # of iterations = 20.0

     negative rho (up, down):  3.175E-03 0.000E+00

     total cpu time spent up to now is        8.8 secs

     total energy              =     -34.17661470 Ry
     Harris-Foulkes estimate   =     -34.16509273 Ry
     estimated scf accuracy    <       0.00184285 Ry

     iteration #  2     ecut=    90.00 Ry     beta=0.70
     Davidson diagonalization with overlap
     ethr =  2.30E-05,  avg # of iterations =  5.0

     negative rho (up, down):  1.305E-03 0.000E+00

     total cpu time spent up to now is        9.0 secs

     total energy              =     -34.17913592 Ry
     Harris-Foulkes estimate   =     -34.17717618 Ry
     estimated scf accuracy    <       0.00024885 Ry

     iteration #  3     ecut=    90.00 Ry     beta=0.70
     Davidson diagonalization with overlap
     ethr =  3.11E-06,  avg # of iterations = 18.0

     negative rho (up, down):  5.492E-04 0.000E+00

     total cpu time spent up to now is        9.3 secs

     total energy              =     -34.17934115 Ry
     Harris-Foulkes estimate   =     -34.17923249 Ry
     estimated scf accuracy    <       0.00007156 Ry

     iteration #  4     ecut=    90.00 Ry     beta=0.70
     Davidson diagonalization with overlap
     ethr =  8.95E-07,  avg # of iterations = 16.0

     negative rho (up, down):  1.591E-05 0.000E+00

     total cpu time spent up to now is        9.6 secs

     total energy              =     -34.18344535 Ry
     Harris-Foulkes estimate   =     -34.18343748 Ry
     estimated scf accuracy    <       0.00000408 Ry

     iteration #  5     ecut=    90.00 Ry     beta=0.70
     Davidson diagonalization with overlap
     ethr =  5.10E-08,  avg # of iterations =  5.0

     total cpu time spent up to now is        9.9 secs

     total energy              =     -34.18344645 Ry
     Harris-Foulkes estimate   =     -34.18344647 Ry
     estimated scf accuracy    <       0.00000004 Ry

     iteration #  6     ecut=    90.00 Ry     beta=0.70
     Davidson diagonalization with overlap
     ethr =  4.72E-10,  avg # of iterations =  3.0

     total cpu time spent up to now is       10.1 secs

     total energy              =     -34.18344646 Ry
     Harris-Foulkes estimate   =     -34.18344648 Ry
     estimated scf accuracy    <          3.9E-09 Ry

     iteration #  7     ecut=    90.00 Ry     beta=0.70
     Davidson diagonalization with overlap
     ethr =  4.93E-11,  avg # of iterations =  2.0

     total cpu time spent up to now is       10.2 secs

     End of self-consistent calculation

          k = 0.0000 0.0000 0.0000 (115313 PWs)   bands (ev):

   -25.0545 -12.6882  -9.1872  -7.0714  -0.9610   0.4209   0.7343   1.1272

     the Fermi energy is    -5.0781 ev

!    total energy              =     -34.18344646 Ry
     Harris-Foulkes estimate   =     -34.18344646 Ry
     estimated scf accuracy    <          2.1E-10 Ry

     The total energy is the sum of the following terms:

     one-electron contribution =     -63.55386290 Ry
     hartree contribution      =      33.20023704 Ry
     xc contribution           =      -8.34699814 Ry
     ewald contribution        =       4.51717753 Ry
     smearing contrib. (-TS)   =       0.00000000 Ry

     convergence has been achieved in   7 iterations

     Forces acting on atoms (Ry/au):

     atom    1 type  1   force =    -0.00591482    0.00676813    0.01838953
     atom    2 type  1   force =     0.00165249    0.00230162    0.00194532
     atom    3 type  2   force =     0.00426233   -0.00906975   -0.02033485

     Total force =     0.030736     Total SCF correction =     0.000048

     number of scf cycles    =   3
     number of bfgs steps    =   2

     energy   old            =     -34.1766902721 Ry
     energy   new            =     -34.1834464578 Ry

     CASE: energy  _new < energy  _old

     new trust radius        =       0.0115119921 bohr
     new conv_thr            =       0.0000000020 Ry


ATOMIC_POSITIONS (angstrom)
H        0.185222750  -0.369329991  -0.828796741
H        0.702674813   0.553861975   0.288575086
O       -0.049990563  -0.027288984   0.059499655



     Writing output data file pwscf.save
     Check: negative starting charge=   -0.015968
     NEW-OLD atomic charge density approx. for the potential
     Check: negative starting charge=   -0.015962

     negative rho (up, down):  1.861E-03 0.000E+00

     total cpu time spent up to now is       10.8 secs

     per-process dynamical memory:    45.8 Mb

     Self-consistent Calculation

     iteration #  1     ecut=    90.00 Ry     beta=0.70
     Davidson diagonalization with overlap
     ethr =  1.00E-06,  avg # of iterations = 17.0

     negative rho (up, down):  4.742E-04 0.000E+00

     total cpu time spent up to now is       11.1 secs

     total energy              =     -34.17953428 Ry
     Harris-Foulkes estimate   =     -34.17907776 Ry
     estimated scf accuracy    <       0.00012088 Ry

     iteration #  2     ecut=    90.00 Ry     beta=0.70
     Davidson diagonalization with overlap
     c_bands:  1 eigenvalues not converged
     ethr =  1.51E-06,  avg # of iterations = 20.0

     negative rho (up, down):  2.841E-04 0.000E+00

     total cpu time spent up to now is       11.5 secs

     total energy              =     -34.18364597 Ry
     Harris-Foulkes estimate   =     -34.18369600 Ry
     estimated scf accuracy    <       0.00011568 Ry

     iteration #  3     ecut=    90.00 Ry     beta=0.70
     Davidson diagonalization with overlap
     ethr =  1.45E-06,  avg # of iterations = 12.0

     negative rho (up, down):  5.191E-05 0.000E+00

     total cpu time spent up to now is       11.8 secs

     total energy              =     -34.18367236 Ry
     Harris-Foulkes estimate   =     -34.18367093 Ry
     estimated scf accuracy    <       0.00000110 Ry

     iteration #  4     ecut=    90.00 Ry     beta=0.70
     Davidson diagonalization with overlap
     ethr =  1.38E-08,  avg # of iterations =  4.0

     negative rho (up, down):  1.880E-06 0.000E+00

     total cpu time spent up to now is       12.0 secs

     total energy              =     -34.18367215 Ry
     Harris-Foulkes estimate   =     -34.18367278 Ry
     estimated scf accuracy    <       0.00000004 Ry

     iteration #  5     ecut=    90.00 Ry     beta=0.70
     Davidson diagonalization with overlap
     ethr =  4.39E-10,  avg # of iterations =  3.0

     total cpu time spent up to now is       12.1 secs

     End of self-consistent calculation

          k = 0.0000 0.0000 0.0000 (115313 PWs)   bands (ev):

   -25.1136 -12.7709  -9.1716  -7.0811  -0.9405   0.4274   0.7476   1.1278

     the Fermi energy is    -5.0924 ev

!    total energy              =     -34.18367199 Ry
     Harris-Foulkes estimate   =     -34.18367218 Ry
     estimated scf accuracy    <          1.5E-09 Ry

     The total energy is the sum of the following terms:

     one-electron contribution =     -63.69772739 Ry
     hartree contribution      =      33.26961265 Ry
     xc contribution           =      -8.35833647 Ry
     ewald contribution        =       4.60277922 Ry
     smearing contrib. (-TS)   =       0.00000000 Ry

     convergence has been achieved in   5 iterations

     Forces acting on atoms (Ry/au):

     atom    1 type  1   force =    -0.00015301    0.00001589   -0.00026527
     atom    2 type  1   force =     0.00379351    0.00329597    0.00149475
     atom    3 type  2   force =    -0.00364050   -0.00331186   -0.00122947

     Total force =     0.007302     Total SCF correction =     0.000753
     SCF correction compared to forces is large: reduce conv_thr to get better values

     number of scf cycles    =   4
     number of bfgs steps    =   3

     energy   old            =     -34.1834464578 Ry
     energy   new            =     -34.1836719876 Ry

     CASE: energy  _new < energy  _old

     new trust radius        =       0.0043176989 bohr
     new conv_thr            =       0.0000000002 Ry


ATOMIC_POSITIONS (angstrom)
H        0.185166834  -0.369388668  -0.829101513
H        0.704284406   0.555323654   0.289277329
O       -0.051544240  -0.028691985   0.059102184



     Writing output data file pwscf.save
     Check: negative starting charge=   -0.015962
     NEW-OLD atomic charge density approx. for the potential
     Check: negative starting charge=   -0.015960

     negative rho (up, down):  5.717E-04 0.000E+00

     total cpu time spent up to now is       12.8 secs

     per-process dynamical memory:    45.8 Mb

     Self-consistent Calculation

     iteration #  1     ecut=    90.00 Ry     beta=0.70
     Davidson diagonalization with overlap
     ethr =  1.00E-06,  avg # of iterations =  5.0

     negative rho (up, down):  1.356E-04 0.000E+00

     total cpu time spent up to now is       13.1 secs

     total energy              =     -34.18367312 Ry
     Harris-Foulkes estimate   =     -34.18367657 Ry
     estimated scf accuracy    <       0.00001398 Ry

     iteration #  2     ecut=    90.00 Ry     beta=0.70
     Davidson diagonalization with overlap
     ethr =  1.75E-07,  avg # of iterations =  3.0

     negative rho (up, down):  7.386E-05 0.000E+00

     total cpu time spent up to now is       13.6 secs

     total energy              =     -34.18367679 Ry
     Harris-Foulkes estimate   =     -34.18368164 Ry
     estimated scf accuracy    <       0.00001087 Ry

     iteration #  3     ecut=    90.00 Ry     beta=0.70
     Davidson diagonalization with overlap
     ethr =  1.36E-07,  avg # of iterations =  2.0

     negative rho (up, down):  1.220E-05 0.000E+00

     total cpu time spent up to now is       13.8 secs

     total energy              =     -34.18368031 Ry
     Harris-Foulkes estimate   =     -34.18367937 Ry
     estimated scf accuracy    <       0.00000025 Ry

     iteration #  4     ecut=    90.00 Ry     beta=0.70
     Davidson diagonalization with overlap
     ethr =  3.16E-09,  avg # of iterations =  2.0

     negative rho (up, down):  1.878E-07 0.000E+00

     total cpu time spent up to now is       14.0 secs

     total energy              =     -34.18368066 Ry
     Harris-Foulkes estimate   =     -34.18368039 Ry
     estimated scf accuracy    <          5.8E-09 Ry

     iteration #  5     ecut=    90.00 Ry     beta=0.70
     Davidson diagonalization with overlap
     ethr =  7.24E-11,  avg # of iterations =  3.0

     total cpu time spent up to now is       14.2 secs

     total energy              =     -34.18368062 Ry
     Harris-Foulkes estimate   =     -34.18368066 Ry
     estimated scf accuracy    <          3.3E-10 Ry

     iteration #  6     ecut=    90.00 Ry     beta=0.70
     Davidson diagonalization with overlap
     ethr =  4.07E-12,  avg # of iterations =  2.0

     total cpu time spent up to now is       14.4 secs

     End of self-consistent calculation

          k = 0.0000 0.0000 0.0000 (115313 PWs)   bands (ev):

   -25.0926 -12.7468  -9.1736  -7.0776  -0.9468   0.4257   0.7433   1.1273

     the Fermi energy is    -5.0876 ev

!    total energy              =     -34.18368063 Ry
     Harris-Foulkes estimate   =     -34.18368062 Ry
     estimated scf accuracy    <          1.7E-11 Ry

     The total energy is the sum of the following terms:

     one-electron contribution =     -63.64995961 Ry
     hartree contribution      =      33.24674429 Ry
     xc contribution           =      -8.35459778 Ry
     ewald contribution        =       4.57413247 Ry
     smearing contrib. (-TS)   =       0.00000000 Ry

     convergence has been achieved in   6 iterations

     Forces acting on atoms (Ry/au):

     atom    1 type  1   force =    -0.00020866   -0.00017359   -0.00057102
     atom    2 type  1   force =    -0.00276183   -0.00158835   -0.00020265
     atom    3 type  2   force =     0.00297049    0.00176193    0.00077368

     Total force =     0.004808     Total SCF correction =     0.000046

     number of scf cycles    =   5
     number of bfgs steps    =   4

     energy   old            =     -34.1836719876 Ry
     energy   new            =     -34.1836806254 Ry

     CASE: energy  _new < energy  _old

     new trust radius        =       0.0017016203 bohr
     new conv_thr            =            1.0E-10 Ry


ATOMIC_POSITIONS (angstrom)
H        0.185079249  -0.369409731  -0.829200965
H        0.703572399   0.554946924   0.289261717
O       -0.050744648  -0.028294193   0.059217248



     Writing output data file pwscf.save
     Check: negative starting charge=   -0.015960
     NEW-OLD atomic charge density approx. for the potential
     Check: negative starting charge=   -0.015960

     negative rho (up, down):  2.061E-04 0.000E+00

     total cpu time spent up to now is       14.9 secs

     per-process dynamical memory:    45.8 Mb

     Self-consistent Calculation

     iteration #  1     ecut=    90.00 Ry     beta=0.70
     Davidson diagonalization with overlap
     ethr =  1.00E-06,  avg # of iterations =  3.0

     Threshold (ethr) on eigenvalues was too large:
     Diagonalizing with lowered threshold

     Davidson diagonalization with overlap
     ethr =  2.49E-08,  avg # of iterations =  1.0

     negative rho (up, down):  4.255E-05 0.000E+00

     total cpu time spent up to now is       15.3 secs

     total energy              =     -34.18368612 Ry
     Harris-Foulkes estimate   =     -34.18368798 Ry
     estimated scf accuracy    <       0.00000200 Ry

     iteration #  2     ecut=    90.00 Ry     beta=0.70
     Davidson diagonalization with overlap
     ethr =  2.50E-08,  avg # of iterations =  2.0

     negative rho (up, down):  2.103E-05 0.000E+00

     total cpu time spent up to now is       15.5 secs

     total energy              =     -34.18368642 Ry
     Harris-Foulkes estimate   =     -34.18368736 Ry
     estimated scf accuracy    <       0.00000161 Ry

     iteration #  3     ecut=    90.00 Ry     beta=0.70
     Davidson diagonalization with overlap
     ethr =  2.02E-08,  avg # of iterations =  2.0

     negative rho (up, down):  1.582E-06 0.000E+00

     total cpu time spent up to now is       15.7 secs

     total energy              =     -34.18368660 Ry
     Harris-Foulkes estimate   =     -34.18368681 Ry
     estimated scf accuracy    <       0.00000003 Ry

     iteration #  4     ecut=    90.00 Ry     beta=0.70
     Davidson diagonalization with overlap
     ethr =  4.06E-10,  avg # of iterations =  2.0

     negative rho (up, down):  2.458E-08 0.000E+00

     total cpu time spent up to now is       15.9 secs

     total energy              =     -34.18368650 Ry
     Harris-Foulkes estimate   =     -34.18368661 Ry
     estimated scf accuracy    <          8.4E-10 Ry

     iteration #  5     ecut=    90.00 Ry     beta=0.70
     Davidson diagonalization with overlap
     ethr =  1.05E-11,  avg # of iterations =  3.0

     total cpu time spent up to now is       16.1 secs

     End of self-consistent calculation

          k = 0.0000 0.0000 0.0000 (115313 PWs)   bands (ev):

   -25.0995 -12.7575  -9.1708  -7.0787  -0.9444   0.4266   0.7447   1.1272

     the Fermi energy is    -5.0893 ev

!    total energy              =     -34.18368646 Ry
     Harris-Foulkes estimate   =     -34.18368651 Ry
     estimated scf accuracy    <          4.7E-11 Ry

     The total energy is the sum of the following terms:

     one-electron contribution =     -63.66705479 Ry
     hartree contribution      =      33.25499218 Ry
     xc contribution           =      -8.35594587 Ry
     ewald contribution        =       4.58432203 Ry
     smearing contrib. (-TS)   =       0.00000000 Ry

     convergence has been achieved in   5 iterations

     Forces acting on atoms (Ry/au):

     atom    1 type  1   force =    -0.00010026    0.00006647   -0.00023555
     atom    2 type  1   force =    -0.00027423    0.00023707    0.00039863
     atom    3 type  2   force =     0.00037449   -0.00030354   -0.00016308

     Total force =     0.000787     Total SCF correction =     0.000174
     SCF correction compared to forces is large: reduce conv_thr to get better values

     bfgs converged in   6 scf cycles and   5 bfgs steps
     (criteria: energy <  1.0E-04, force <  1.0E-03)

     End of BFGS Geometry Optimization

     Final energy   =     -34.1836864601 Ry
Begin final coordinates

ATOMIC_POSITIONS (angstrom)
H        0.185079249  -0.369409731  -0.829200965
H        0.703572399   0.554946924   0.289261717
O       -0.050744648  -0.028294193   0.059217248
End final coordinates



     Writing output data file pwscf.save
 
     init_run     :      0.50s CPU      0.55s WALL (       1 calls)
     electrons    :     10.70s CPU     12.80s WALL (       6 calls)
     update_pot   :      1.22s CPU      1.44s WALL (       5 calls)
     forces       :      0.42s CPU      0.50s WALL (       6 calls)

     Called by init_run:
     wfcinit      :      0.03s CPU      0.04s WALL (       1 calls)
     potinit      :      0.11s CPU      0.11s WALL (       1 calls)

     Called by electrons:
     c_bands      :      5.01s CPU      5.43s WALL (      49 calls)
     sum_band     :      1.06s CPU      1.11s WALL (      49 calls)
     v_of_rho     :      2.78s CPU      2.87s WALL (      54 calls)
     mix_rho      :      1.26s CPU      2.30s WALL (      49 calls)

     Called by c_bands:
     init_us_2    :      0.03s CPU      0.03s WALL (      99 calls)
     cegterg      :      4.98s CPU      5.38s WALL (      49 calls)

     Called by sum_band:

     Called by *egterg:
     h_psi        :      4.18s CPU      4.48s WALL (     333 calls)
     g_psi        :      0.04s CPU      0.04s WALL (     283 calls)
     cdiaghg      :      0.11s CPU      0.12s WALL (     326 calls)

     Called by h_psi:
     h_psi:pot    :      4.14s CPU      4.44s WALL (     333 calls)
     h_psi:calbec :      0.09s CPU      0.25s WALL (     333 calls)
     vloc_psi     :      4.02s CPU      4.15s WALL (     333 calls)
     add_vuspsi   :      0.03s CPU      0.03s WALL (     333 calls)

     General routines
     calbec       :      0.09s CPU      0.25s WALL (     357 calls)
     fft          :      1.99s CPU      2.09s WALL (     607 calls)
     fftw         :      4.04s CPU      4.19s WALL (    3144 calls)
     davcio       :      0.17s CPU      1.01s WALL (     463 calls)
 
     Parallel routines
     fft_scatter  :      2.24s CPU      2.44s WALL (    3751 calls)
 
     PWSCF        :    13.30s CPU        16.59s WALL

 
   This run was terminated on:   2:30: 0  28Jul2018            

=------------------------------------------------------------------------------=
   JOB DONE.
=------------------------------------------------------------------------------=
