
     Program PWSCF v.6.0 (svn rev. 13079) starts on 28Jul2018 at  2:30: 4 

     This program is part of the open-source Quantum ESPRESSO suite
     for quantum simulation of materials; please cite
         "P. Giannozzi et al., J. Phys.:Condens. Matter 21 395502 (2009);
          URL http://www.quantum-espresso.org", 
     in publications or presentations arising from this work. More details at
     http://www.quantum-espresso.org/quote

     Parallel version (MPI), running on    28 processors
     R & G space division:  proc/nbgrp/npool/nimage =      28
     Reading input from ../QMCmins/relax-44.in

     Current dimensions of program PWSCF are:
     Max number of different atomic species (ntypx) = 10
     Max number of k-points (npk) =  40000
     Max angular momentum in pseudopotentials (lmaxx) =  3
     Message from routine iosys:
     pot_extrapolation='second-order' not available, using 'atomic'
     Message from routine iosys:
     wfc_extrapolation='second-order' not available, using 'atomic'

     Subspace diagonalization in iterative solution of the eigenvalue problem:
     a serial algorithm will be used

 
     Parallelization info
     --------------------
     sticks:   dense  smooth     PW     G-vecs:    dense   smooth      PW
     Min         408     408    102                32936    32936    4116
     Max         409     409    103                32943    32943    4121
     Sum       11449   11449   2869               922329   922329  115313
 


     bravais-lattice index     =            1
     lattice parameter (alat)  =      20.0000  a.u.
     unit-cell volume          =    8000.0000 (a.u.)^3
     number of atoms/cell      =            3
     number of atomic types    =            2
     number of electrons       =         8.00
     number of Kohn-Sham states=            8
     kinetic-energy cutoff     =      90.0000  Ry
     charge density cutoff     =     360.0000  Ry
     convergence threshold     =      1.0E-08
     mixing beta               =       0.7000
     number of iterations used =            8  plain     mixing
     Exchange-correlation      = BLYP ( 1  3  1  3 0 0)
     nstep                     =           50


     celldm(1)=  20.000000  celldm(2)=   0.000000  celldm(3)=   0.000000
     celldm(4)=   0.000000  celldm(5)=   0.000000  celldm(6)=   0.000000

     crystal axes: (cart. coord. in units of alat)
               a(1) = (   1.000000   0.000000   0.000000 )  
               a(2) = (   0.000000   1.000000   0.000000 )  
               a(3) = (   0.000000   0.000000   1.000000 )  

     reciprocal axes: (cart. coord. in units 2 pi/alat)
               b(1) = (  1.000000  0.000000  0.000000 )  
               b(2) = (  0.000000  1.000000  0.000000 )  
               b(3) = (  0.000000  0.000000  1.000000 )  


     PseudoPot. # 1 for  H read from file:
     ../H.blyp-hgh.UPF
     MD5 check sum: c576e69559cde411e611be972c763230
     Pseudo is Norm-conserving, Zval =  1.0
     Generated in analytical, separable form
     Using radial grid of  929 points,  0 beta functions with: 

     PseudoPot. # 2 for  O read from file:
     ../O.blyp-hgh.UPF
     MD5 check sum: d0b7156309aa9befef28faac7bc56342
     Pseudo is Norm-conserving, Zval =  6.0
     Generated in analytical, separable form
     Using radial grid of 1095 points,  1 beta functions with: 
                l(1) =   0

     atomic species   valence    mass     pseudopotential
        H              1.00     1.01000      H( 1.00)
        O              6.00    16.00000      O( 1.00)

     No symmetry found



   Cartesian axes

     site n.     atom                  positions (alat units)
         1           H   tau(   1) = (   0.0742049   0.0522681   0.0038720  )
         2           H   tau(   2) = (   0.0174343  -0.0920006   0.0061547  )
         3           O   tau(   3) = (  -0.0057847   0.0025081   0.0049450  )

     number of k points=     1  Marzari-Vanderbilt smearing, width (Ry)=  0.0250
                       cart. coord. in units 2pi/alat
        k(    1) = (   0.0000000   0.0000000   0.0000000), wk =   2.0000000

     Dense  grid:   922329 G-vectors     FFT dimensions: ( 125, 125, 125)

     Estimated max dynamical RAM per process >      31.67Mb

     Estimated total allocated dynamical RAM >     886.64Mb

     Initial potential from superposition of free atoms
     Check: negative starting charge=   -0.015904

     starting charge    7.99998, renormalised to    8.00000

     negative rho (up, down):  1.590E-02 0.000E+00
     Starting wfc are    6 randomized atomic wfcs +    2 random wfc

     total cpu time spent up to now is        0.7 secs

     per-process dynamical memory:    33.5 Mb

     Self-consistent Calculation

     iteration #  1     ecut=    90.00 Ry     beta=0.70
     Davidson diagonalization with overlap
     ethr =  1.00E-02,  avg # of iterations =  7.0

     negative rho (up, down):  4.609E-03 0.000E+00

     total cpu time spent up to now is        1.0 secs

     total energy              =     -34.03074540 Ry
     Harris-Foulkes estimate   =     -34.25847192 Ry
     estimated scf accuracy    <       0.34493365 Ry

     iteration #  2     ecut=    90.00 Ry     beta=0.70
     Davidson diagonalization with overlap
     ethr =  4.31E-03,  avg # of iterations =  2.0

     negative rho (up, down):  2.738E-03 0.000E+00

     total cpu time spent up to now is        1.2 secs

     total energy              =     -34.08072806 Ry
     Harris-Foulkes estimate   =     -34.27839988 Ry
     estimated scf accuracy    <       0.43578092 Ry

     iteration #  3     ecut=    90.00 Ry     beta=0.70
     Davidson diagonalization with overlap
     ethr =  4.31E-03,  avg # of iterations =  2.0

     negative rho (up, down):  1.725E-04 0.000E+00

     total cpu time spent up to now is        1.4 secs

     total energy              =     -34.17619612 Ry
     Harris-Foulkes estimate   =     -34.17703584 Ry
     estimated scf accuracy    <       0.00594312 Ry

     iteration #  4     ecut=    90.00 Ry     beta=0.70
     Davidson diagonalization with overlap
     ethr =  7.43E-05,  avg # of iterations =  6.0

     negative rho (up, down):  4.177E-06 0.000E+00

     total cpu time spent up to now is        1.6 secs

     total energy              =     -34.17778771 Ry
     Harris-Foulkes estimate   =     -34.17790879 Ry
     estimated scf accuracy    <       0.00032210 Ry

     iteration #  5     ecut=    90.00 Ry     beta=0.70
     Davidson diagonalization with overlap
     ethr =  4.03E-06,  avg # of iterations =  9.0

     negative rho (up, down):  3.899E-06 0.000E+00

     total cpu time spent up to now is        1.9 secs

     total energy              =     -34.17781054 Ry
     Harris-Foulkes estimate   =     -34.17781457 Ry
     estimated scf accuracy    <       0.00002012 Ry

     iteration #  6     ecut=    90.00 Ry     beta=0.70
     Davidson diagonalization with overlap
     ethr =  2.52E-07,  avg # of iterations =  2.0

     negative rho (up, down):  1.625E-07 0.000E+00

     total cpu time spent up to now is        2.1 secs

     total energy              =     -34.17781255 Ry
     Harris-Foulkes estimate   =     -34.17781310 Ry
     estimated scf accuracy    <       0.00000024 Ry

     iteration #  7     ecut=    90.00 Ry     beta=0.70
     Davidson diagonalization with overlap
     ethr =  2.95E-09,  avg # of iterations =  3.0

     total cpu time spent up to now is        2.3 secs

     total energy              =     -34.17781219 Ry
     Harris-Foulkes estimate   =     -34.17781261 Ry
     estimated scf accuracy    <       0.00000002 Ry

     iteration #  8     ecut=    90.00 Ry     beta=0.70
     Davidson diagonalization with overlap
     ethr =  2.85E-10,  avg # of iterations =  2.0

     total cpu time spent up to now is        2.5 secs

     End of self-consistent calculation

          k = 0.0000 0.0000 0.0000 (115313 PWs)   bands (ev):

   -24.6934 -12.6644  -8.8975  -6.9941  -1.0532   0.3922   0.6619   1.1153

     the Fermi energy is    -4.9967 ev

!    total energy              =     -34.17781206 Ry
     Harris-Foulkes estimate   =     -34.17781219 Ry
     estimated scf accuracy    <          4.8E-09 Ry

     The total energy is the sum of the following terms:

     one-electron contribution =     -62.90754482 Ry
     hartree contribution      =      32.90070055 Ry
     xc contribution           =      -8.29838894 Ry
     ewald contribution        =       4.12742115 Ry
     smearing contrib. (-TS)   =       0.00000000 Ry

     convergence has been achieved in   8 iterations

     Forces acting on atoms (Ry/au):

     atom    1 type  1   force =    -0.01926910   -0.03134973    0.00063894
     atom    2 type  1   force =    -0.00511814    0.08414828   -0.00101344
     atom    3 type  2   force =     0.02438724   -0.05279855    0.00037451

     Total force =     0.108836     Total SCF correction =     0.000062

     BFGS Geometry Optimization

     number of scf cycles    =   1
     number of bfgs steps    =   0

     energy   new            =     -34.1778120631 Ry

     new trust radius        =       0.0843098738 bohr
     new conv_thr            =       0.0000000100 Ry


ATOMIC_POSITIONS (angstrom)
H        0.775154232   0.536592439   0.041318111
H        0.181808599  -0.929162650   0.064602709
O       -0.048317831  -0.001394789   0.052534180



     Writing output data file pwscf.save
     Check: negative starting charge=   -0.015904
     NEW-OLD atomic charge density approx. for the potential
     Check: negative starting charge=   -0.015967

     negative rho (up, down):  1.071E-02 0.000E+00

     total cpu time spent up to now is        3.1 secs

     per-process dynamical memory:    45.8 Mb

     Self-consistent Calculation

     iteration #  1     ecut=    90.00 Ry     beta=0.70
     Davidson diagonalization with overlap
     c_bands:  1 eigenvalues not converged
     ethr =  1.00E-06,  avg # of iterations = 20.0

     negative rho (up, down):  2.800E-03 0.000E+00

     total cpu time spent up to now is        3.5 secs

     total energy              =     -34.17323342 Ry
     Harris-Foulkes estimate   =     -34.16511450 Ry
     estimated scf accuracy    <       0.00503928 Ry

     iteration #  2     ecut=    90.00 Ry     beta=0.70
     Davidson diagonalization with overlap
     ethr =  6.30E-05,  avg # of iterations =  5.0

     negative rho (up, down):  1.709E-03 0.000E+00

     total cpu time spent up to now is        3.8 secs

     total energy              =     -34.17558649 Ry
     Harris-Foulkes estimate   =     -34.17663207 Ry
     estimated scf accuracy    <       0.00475524 Ry

     iteration #  3     ecut=    90.00 Ry     beta=0.70
     Davidson diagonalization with overlap
     ethr =  5.94E-05,  avg # of iterations =  5.0

     negative rho (up, down):  3.802E-04 0.000E+00

     total cpu time spent up to now is        4.0 secs

     total energy              =     -34.17704820 Ry
     Harris-Foulkes estimate   =     -34.17660677 Ry
     estimated scf accuracy    <       0.00004311 Ry

     iteration #  4     ecut=    90.00 Ry     beta=0.70
     Davidson diagonalization with overlap
     ethr =  5.39E-07,  avg # of iterations = 14.0

     negative rho (up, down):  4.511E-05 0.000E+00

     total cpu time spent up to now is        4.3 secs

     total energy              =     -34.18115085 Ry
     Harris-Foulkes estimate   =     -34.18114534 Ry
     estimated scf accuracy    <       0.00000125 Ry

     iteration #  5     ecut=    90.00 Ry     beta=0.70
     Davidson diagonalization with overlap
     ethr =  1.56E-08,  avg # of iterations =  3.0

     negative rho (up, down):  1.413E-07 0.000E+00

     total cpu time spent up to now is        4.5 secs

     total energy              =     -34.18114942 Ry
     Harris-Foulkes estimate   =     -34.18115118 Ry
     estimated scf accuracy    <       0.00000006 Ry

     iteration #  6     ecut=    90.00 Ry     beta=0.70
     Davidson diagonalization with overlap
     ethr =  7.45E-10,  avg # of iterations =  2.0

     total cpu time spent up to now is        4.7 secs

     End of self-consistent calculation

          k = 0.0000 0.0000 0.0000 (115313 PWs)   bands (ev):

   -25.1229 -13.1222  -8.9100  -7.0717  -0.9082   0.4393   0.7626   1.1596

     the Fermi energy is    -5.0709 ev

!    total energy              =     -34.18114923 Ry
     Harris-Foulkes estimate   =     -34.18114945 Ry
     estimated scf accuracy    <          1.8E-09 Ry

     The total energy is the sum of the following terms:

     one-electron contribution =     -63.89034575 Ry
     hartree contribution      =      33.36999067 Ry
     xc contribution           =      -8.37463302 Ry
     ewald contribution        =       4.71383887 Ry
     smearing contrib. (-TS)   =       0.00000000 Ry

     convergence has been achieved in   6 iterations

     Forces acting on atoms (Ry/au):

     atom    1 type  1   force =    -0.00186470   -0.01893551    0.00053075
     atom    2 type  1   force =     0.02564099   -0.04078578    0.00073245
     atom    3 type  2   force =    -0.02377629    0.05972129   -0.00126320

     Total force =     0.082567     Total SCF correction =     0.000317

     number of scf cycles    =   2
     number of bfgs steps    =   1

     energy   old            =     -34.1778120631 Ry
     energy   new            =     -34.1811492322 Ry

     CASE: energy  _new < energy  _old

     new trust radius        =       0.0349887078 bohr
     new conv_thr            =       0.0000000033 Ry


ATOMIC_POSITIONS (angstrom)
H        0.773443011   0.528424250   0.041533624
H        0.190203491  -0.938256464   0.064793912
O       -0.055001502   0.015867214   0.052127464



     Writing output data file pwscf.save
     Check: negative starting charge=   -0.015967
     NEW-OLD atomic charge density approx. for the potential
     Check: negative starting charge=   -0.015954

     negative rho (up, down):  6.154E-03 0.000E+00

     total cpu time spent up to now is        5.2 secs

     per-process dynamical memory:    45.8 Mb

     Self-consistent Calculation

     iteration #  1     ecut=    90.00 Ry     beta=0.70
     Davidson diagonalization with overlap
     ethr =  1.00E-06,  avg # of iterations = 18.0

     negative rho (up, down):  1.598E-03 0.000E+00

     total cpu time spent up to now is        5.6 secs

     total energy              =     -34.17818906 Ry
     Harris-Foulkes estimate   =     -34.17216599 Ry
     estimated scf accuracy    <       0.00058786 Ry

     iteration #  2     ecut=    90.00 Ry     beta=0.70
     Davidson diagonalization with overlap
     ethr =  7.35E-06,  avg # of iterations = 12.0

     negative rho (up, down):  8.845E-04 0.000E+00

     total cpu time spent up to now is        5.9 secs

     total energy              =     -34.17865245 Ry
     Harris-Foulkes estimate   =     -34.17848596 Ry
     estimated scf accuracy    <       0.00031938 Ry

     iteration #  3     ecut=    90.00 Ry     beta=0.70
     Davidson diagonalization with overlap
     ethr =  3.99E-06,  avg # of iterations =  8.0

     negative rho (up, down):  2.656E-04 0.000E+00

     total cpu time spent up to now is        6.2 secs

     total energy              =     -34.18284136 Ry
     Harris-Foulkes estimate   =     -34.18282098 Ry
     estimated scf accuracy    <       0.00002205 Ry

     iteration #  4     ecut=    90.00 Ry     beta=0.70
     Davidson diagonalization with overlap
     ethr =  2.76E-07,  avg # of iterations = 10.0

     negative rho (up, down):  5.735E-06 0.000E+00

     total cpu time spent up to now is        6.5 secs

     total energy              =     -34.18285104 Ry
     Harris-Foulkes estimate   =     -34.18284661 Ry
     estimated scf accuracy    <       0.00000043 Ry

     iteration #  5     ecut=    90.00 Ry     beta=0.70
     Davidson diagonalization with overlap
     ethr =  5.40E-09,  avg # of iterations =  3.0

     total cpu time spent up to now is        6.7 secs

     total energy              =     -34.18285145 Ry
     Harris-Foulkes estimate   =     -34.18285126 Ry
     estimated scf accuracy    <       0.00000001 Ry

     iteration #  6     ecut=    90.00 Ry     beta=0.70
     Davidson diagonalization with overlap
     ethr =  1.32E-10,  avg # of iterations =  2.0

     total cpu time spent up to now is        6.8 secs

     End of self-consistent calculation

          k = 0.0000 0.0000 0.0000 (115313 PWs)   bands (ev):

   -25.0451 -12.9428  -8.9863  -7.0610  -0.9379   0.4296   0.7452   1.1584

     the Fermi energy is    -5.0523 ev

!    total energy              =     -34.18285149 Ry
     Harris-Foulkes estimate   =     -34.18285145 Ry
     estimated scf accuracy    <          6.4E-10 Ry

     The total energy is the sum of the following terms:

     one-electron contribution =     -63.66857145 Ry
     hartree contribution      =      33.26167977 Ry
     xc contribution           =      -8.35689684 Ry
     ewald contribution        =       4.58093703 Ry
     smearing contrib. (-TS)   =       0.00000000 Ry

     convergence has been achieved in   6 iterations

     Forces acting on atoms (Ry/au):

     atom    1 type  1   force =     0.01309835   -0.00486111    0.00019100
     atom    2 type  1   force =     0.00692035    0.01405515   -0.00002888
     atom    3 type  2   force =    -0.02001870   -0.00919404   -0.00016212

     Total force =     0.030430     Total SCF correction =     0.000082

     number of scf cycles    =   3
     number of bfgs steps    =   2

     energy   old            =     -34.1811492322 Ry
     energy   new            =     -34.1828514946 Ry

     CASE: energy  _new < energy  _old

     new trust radius        =       0.0230410044 bohr
     new conv_thr            =       0.0000000017 Ry


ATOMIC_POSITIONS (angstrom)
H        0.779466837   0.523200525   0.041702408
H        0.196359485  -0.933554115   0.064834610
O       -0.067181322   0.016388590   0.051917982



     Writing output data file pwscf.save
     Check: negative starting charge=   -0.015954
     NEW-OLD atomic charge density approx. for the potential
     Check: negative starting charge=   -0.015972

     negative rho (up, down):  3.882E-03 0.000E+00

     total cpu time spent up to now is        7.4 secs

     per-process dynamical memory:    45.8 Mb

     Self-consistent Calculation

     iteration #  1     ecut=    90.00 Ry     beta=0.70
     Davidson diagonalization with overlap
     ethr =  1.00E-06,  avg # of iterations = 10.0

     negative rho (up, down):  1.001E-03 0.000E+00

     total cpu time spent up to now is        7.9 secs

     total energy              =     -34.17905812 Ry
     Harris-Foulkes estimate   =     -34.17595517 Ry
     estimated scf accuracy    <       0.00020056 Ry

     iteration #  2     ecut=    90.00 Ry     beta=0.70
     Davidson diagonalization with overlap
     ethr =  2.51E-06,  avg # of iterations =  8.0

     negative rho (up, down):  5.972E-04 0.000E+00

     total cpu time spent up to now is        8.2 secs

     total energy              =     -34.18322946 Ry
     Harris-Foulkes estimate   =     -34.18326313 Ry
     estimated scf accuracy    <       0.00016727 Ry

     iteration #  3     ecut=    90.00 Ry     beta=0.70
     Davidson diagonalization with overlap
     ethr =  2.09E-06,  avg # of iterations =  4.0

     negative rho (up, down):  8.749E-05 0.000E+00

     total cpu time spent up to now is        8.4 secs

     total energy              =     -34.18327642 Ry
     Harris-Foulkes estimate   =     -34.18326854 Ry
     estimated scf accuracy    <       0.00000380 Ry

     iteration #  4     ecut=    90.00 Ry     beta=0.70
     Davidson diagonalization with overlap
     ethr =  4.75E-08,  avg # of iterations =  4.0

     negative rho (up, down):  2.856E-06 0.000E+00

     total cpu time spent up to now is        8.6 secs

     total energy              =     -34.18327998 Ry
     Harris-Foulkes estimate   =     -34.18327775 Ry
     estimated scf accuracy    <       0.00000009 Ry

     iteration #  5     ecut=    90.00 Ry     beta=0.70
     Davidson diagonalization with overlap
     ethr =  1.08E-09,  avg # of iterations =  3.0

     total cpu time spent up to now is        8.8 secs

     total energy              =     -34.18328021 Ry
     Harris-Foulkes estimate   =     -34.18328004 Ry
     estimated scf accuracy    <          3.3E-09 Ry

     iteration #  6     ecut=    90.00 Ry     beta=0.70
     Davidson diagonalization with overlap
     ethr =  4.06E-11,  avg # of iterations =  2.0

     total cpu time spent up to now is        9.0 secs

     End of self-consistent calculation

          k = 0.0000 0.0000 0.0000 (115313 PWs)   bands (ev):

   -25.0071 -12.7930  -9.0709  -7.0575  -0.9603   0.4221   0.7347   1.1580

     the Fermi energy is    -5.0432 ev

!    total energy              =     -34.18328027 Ry
     Harris-Foulkes estimate   =     -34.18328021 Ry
     estimated scf accuracy    <          1.5E-10 Ry

     The total energy is the sum of the following terms:

     one-electron contribution =     -63.52641108 Ry
     hartree contribution      =      33.19086436 Ry
     xc contribution           =      -8.34535360 Ry
     ewald contribution        =       4.49762005 Ry
     smearing contrib. (-TS)   =       0.00000000 Ry

     convergence has been achieved in   6 iterations

     Forces acting on atoms (Ry/au):

     atom    1 type  1   force =    -0.00859126   -0.01242612    0.00038580
     atom    2 type  1   force =     0.00214838    0.01183457    0.00002980
     atom    3 type  2   force =     0.00644288    0.00059155   -0.00041560

     Total force =     0.020373     Total SCF correction =     0.000037

     number of scf cycles    =   4
     number of bfgs steps    =   3

     energy   old            =     -34.1828514946 Ry
     energy   new            =     -34.1832802680 Ry

     CASE: energy  _new < energy  _old

     new trust radius        =       0.0216713815 bohr
     new conv_thr            =       0.0000000004 Ry


ATOMIC_POSITIONS (angstrom)
H        0.777638831   0.511884360   0.042045713
H        0.202063874  -0.924359999   0.064882067
O       -0.071057706   0.018510638   0.051527220



     Writing output data file pwscf.save
     Check: negative starting charge=   -0.015972
     NEW-OLD atomic charge density approx. for the potential
     Check: negative starting charge=   -0.015986

     negative rho (up, down):  1.318E-03 0.000E+00

     total cpu time spent up to now is        9.7 secs

     per-process dynamical memory:    45.8 Mb

     Self-consistent Calculation

     iteration #  1     ecut=    90.00 Ry     beta=0.70
     Davidson diagonalization with overlap
     ethr =  1.00E-06,  avg # of iterations =  8.0

     negative rho (up, down):  3.292E-04 0.000E+00

     total cpu time spent up to now is       10.0 secs

     total energy              =     -34.18354694 Ry
     Harris-Foulkes estimate   =     -34.18342477 Ry
     estimated scf accuracy    <       0.00005438 Ry

     iteration #  2     ecut=    90.00 Ry     beta=0.70
     Davidson diagonalization with overlap
     ethr =  6.80E-07,  avg # of iterations =  5.0

     negative rho (up, down):  1.651E-04 0.000E+00

     total cpu time spent up to now is       10.2 secs

     total energy              =     -34.18355559 Ry
     Harris-Foulkes estimate   =     -34.18356711 Ry
     estimated scf accuracy    <       0.00002614 Ry

     iteration #  3     ecut=    90.00 Ry     beta=0.70
     Davidson diagonalization with overlap
     ethr =  3.27E-07,  avg # of iterations =  2.0

     negative rho (up, down):  7.685E-06 0.000E+00

     total cpu time spent up to now is       10.4 secs

     total energy              =     -34.18356701 Ry
     Harris-Foulkes estimate   =     -34.18356379 Ry
     estimated scf accuracy    <       0.00000326 Ry

     iteration #  4     ecut=    90.00 Ry     beta=0.70
     Davidson diagonalization with overlap
     ethr =  4.07E-08,  avg # of iterations =  3.0

     negative rho (up, down):  3.805E-08 0.000E+00

     total cpu time spent up to now is       10.7 secs

     total energy              =     -34.18356824 Ry
     Harris-Foulkes estimate   =     -34.18356768 Ry
     estimated scf accuracy    <       0.00000002 Ry

     iteration #  5     ecut=    90.00 Ry     beta=0.70
     Davidson diagonalization with overlap
     ethr =  2.10E-10,  avg # of iterations =  3.0

     total cpu time spent up to now is       10.9 secs

     total energy              =     -34.18356835 Ry
     Harris-Foulkes estimate   =     -34.18356826 Ry
     estimated scf accuracy    <          1.4E-09 Ry

     iteration #  6     ecut=    90.00 Ry     beta=0.70
     Davidson diagonalization with overlap
     ethr =  1.76E-11,  avg # of iterations =  2.0

     total cpu time spent up to now is       11.1 secs

     End of self-consistent calculation

          k = 0.0000 0.0000 0.0000 (115313 PWs)   bands (ev):

   -25.0803 -12.7708  -9.1467  -7.0731  -0.9485   0.4254   0.7487   1.1598

     the Fermi energy is    -5.0600 ev

!    total energy              =     -34.18356840 Ry
     Harris-Foulkes estimate   =     -34.18356835 Ry
     estimated scf accuracy    <          1.4E-10 Ry

     The total energy is the sum of the following terms:

     one-electron contribution =     -63.63987418 Ry
     hartree contribution      =      33.24263464 Ry
     xc contribution           =      -8.35382327 Ry
     ewald contribution        =       4.56749442 Ry
     smearing contrib. (-TS)   =       0.00000000 Ry

     convergence has been achieved in   6 iterations

     Forces acting on atoms (Ry/au):

     atom    1 type  1   force =    -0.00167450   -0.00306113    0.00022222
     atom    2 type  1   force =     0.00023563    0.00179249    0.00017907
     atom    3 type  2   force =     0.00143886    0.00126864   -0.00040129

     Total force =     0.004401     Total SCF correction =     0.000018

     number of scf cycles    =   5
     number of bfgs steps    =   4

     energy   old            =     -34.1832802680 Ry
     energy   new            =     -34.1835683975 Ry

     CASE: energy  _new < energy  _old

     new trust radius        =       0.0062927303 bohr
     new conv_thr            =       0.0000000003 Ry


ATOMIC_POSITIONS (angstrom)
H        0.777358629   0.508571417   0.042231700
H        0.203409213  -0.922036901   0.065006461
O       -0.072122842   0.019500484   0.051216839



     Writing output data file pwscf.save
     Check: negative starting charge=   -0.015986
     NEW-OLD atomic charge density approx. for the potential
     Check: negative starting charge=   -0.015990

     negative rho (up, down):  3.792E-04 0.000E+00

     total cpu time spent up to now is       11.8 secs

     per-process dynamical memory:    45.8 Mb

     Self-consistent Calculation

     iteration #  1     ecut=    90.00 Ry     beta=0.70
     Davidson diagonalization with overlap
     ethr =  1.00E-06,  avg # of iterations =  4.0

     Threshold (ethr) on eigenvalues was too large:
     Diagonalizing with lowered threshold

     Davidson diagonalization with overlap
     ethr =  4.51E-08,  avg # of iterations =  1.0

     negative rho (up, down):  8.574E-05 0.000E+00

     total cpu time spent up to now is       12.1 secs

     total energy              =     -34.18357875 Ry
     Harris-Foulkes estimate   =     -34.18357672 Ry
     estimated scf accuracy    <       0.00000373 Ry

     iteration #  2     ecut=    90.00 Ry     beta=0.70
     Davidson diagonalization with overlap
     ethr =  4.66E-08,  avg # of iterations =  2.0

     negative rho (up, down):  3.373E-05 0.000E+00

     total cpu time spent up to now is       12.3 secs

     total energy              =     -34.18358082 Ry
     Harris-Foulkes estimate   =     -34.18357988 Ry
     estimated scf accuracy    <       0.00000126 Ry

     iteration #  3     ecut=    90.00 Ry     beta=0.70
     Davidson diagonalization with overlap
     ethr =  1.58E-08,  avg # of iterations =  3.0

     negative rho (up, down):  9.396E-07 0.000E+00

     total cpu time spent up to now is       12.5 secs

     total energy              =     -34.18358231 Ry
     Harris-Foulkes estimate   =     -34.18358129 Ry
     estimated scf accuracy    <       0.00000028 Ry

     iteration #  4     ecut=    90.00 Ry     beta=0.70
     Davidson diagonalization with overlap
     ethr =  3.52E-09,  avg # of iterations =  2.0

     total cpu time spent up to now is       12.7 secs

     total energy              =     -34.18358258 Ry
     Harris-Foulkes estimate   =     -34.18358238 Ry
     estimated scf accuracy    <          2.4E-09 Ry

     iteration #  5     ecut=    90.00 Ry     beta=0.70
     Davidson diagonalization with overlap
     ethr =  2.97E-11,  avg # of iterations =  2.0

     total cpu time spent up to now is       12.9 secs

     End of self-consistent calculation

          k = 0.0000 0.0000 0.0000 (115313 PWs)   bands (ev):

   -25.0985 -12.7614  -9.1681  -7.0771  -0.9462   0.4260   0.7520   1.1604

     the Fermi energy is    -5.0641 ev

!    total energy              =     -34.18358265 Ry
     Harris-Foulkes estimate   =     -34.18358258 Ry
     estimated scf accuracy    <          1.7E-10 Ry

     The total energy is the sum of the following terms:

     one-electron contribution =     -63.66603301 Ry
     hartree contribution      =      33.25448713 Ry
     xc contribution           =      -8.35576211 Ry
     ewald contribution        =       4.58372535 Ry
     smearing contrib. (-TS)   =       0.00000000 Ry

     convergence has been achieved in   5 iterations

     Forces acting on atoms (Ry/au):

     atom    1 type  1   force =     0.00046005   -0.00031415    0.00016148
     atom    2 type  1   force =    -0.00058604   -0.00002076    0.00019256
     atom    3 type  2   force =     0.00012598    0.00033491   -0.00035404

     Total force =     0.000985     Total SCF correction =     0.000079

     bfgs converged in   6 scf cycles and   5 bfgs steps
     (criteria: energy <  1.0E-04, force <  1.0E-03)

     End of BFGS Geometry Optimization

     Final energy   =     -34.1835826506 Ry
Begin final coordinates

ATOMIC_POSITIONS (angstrom)
H        0.777358629   0.508571417   0.042231700
H        0.203409213  -0.922036901   0.065006461
O       -0.072122842   0.019500484   0.051216839
End final coordinates



     Writing output data file pwscf.save
 
     init_run     :      0.51s CPU      0.55s WALL (       1 calls)
     electrons    :      8.24s CPU     10.01s WALL (       6 calls)
     update_pot   :      1.31s CPU      1.52s WALL (       5 calls)
     forces       :      0.41s CPU      0.42s WALL (       6 calls)

     Called by init_run:
     wfcinit      :      0.02s CPU      0.04s WALL (       1 calls)
     potinit      :      0.11s CPU      0.11s WALL (       1 calls)

     Called by electrons:
     c_bands      :      4.09s CPU      4.43s WALL (      38 calls)
     sum_band     :      0.78s CPU      0.80s WALL (      38 calls)
     v_of_rho     :      2.16s CPU      2.30s WALL (      43 calls)
     mix_rho      :      0.82s CPU      1.50s WALL (      38 calls)

     Called by c_bands:
     init_us_2    :      0.02s CPU      0.02s WALL (      77 calls)
     cegterg      :      4.06s CPU      4.39s WALL (      38 calls)

     Called by sum_band:

     Called by *egterg:
     h_psi        :      3.51s CPU      3.82s WALL (     242 calls)
     g_psi        :      0.03s CPU      0.03s WALL (     203 calls)
     cdiaghg      :      0.06s CPU      0.06s WALL (     235 calls)

     Called by h_psi:
     h_psi:pot    :      3.48s CPU      3.79s WALL (     242 calls)
     h_psi:calbec :      0.07s CPU      0.10s WALL (     242 calls)
     vloc_psi     :      3.38s CPU      3.66s WALL (     242 calls)
     add_vuspsi   :      0.02s CPU      0.03s WALL (     242 calls)

     General routines
     calbec       :      0.07s CPU      0.10s WALL (     266 calls)
     fft          :      1.52s CPU      1.65s WALL (     486 calls)
     fftw         :      3.36s CPU      3.65s WALL (    2610 calls)
     davcio       :      0.09s CPU      0.66s WALL (     253 calls)
 
     Parallel routines
     fft_scatter  :      1.75s CPU      2.13s WALL (    3096 calls)
 
     PWSCF        :    10.96s CPU        13.32s WALL

 
   This run was terminated on:   2:30:18  28Jul2018            

=------------------------------------------------------------------------------=
   JOB DONE.
=------------------------------------------------------------------------------=
