
     Program PWSCF v.6.0 (svn rev. 13079) starts on 28Jul2018 at  2:42:28 

     This program is part of the open-source Quantum ESPRESSO suite
     for quantum simulation of materials; please cite
         "P. Giannozzi et al., J. Phys.:Condens. Matter 21 395502 (2009);
          URL http://www.quantum-espresso.org", 
     in publications or presentations arising from this work. More details at
     http://www.quantum-espresso.org/quote

     Parallel version (MPI), running on    28 processors
     R & G space division:  proc/nbgrp/npool/nimage =      28
     Reading input from ../QMCmins/relax-75.in

     Current dimensions of program PWSCF are:
     Max number of different atomic species (ntypx) = 10
     Max number of k-points (npk) =  40000
     Max angular momentum in pseudopotentials (lmaxx) =  3
     Message from routine iosys:
     pot_extrapolation='second-order' not available, using 'atomic'
     Message from routine iosys:
     wfc_extrapolation='second-order' not available, using 'atomic'

     Subspace diagonalization in iterative solution of the eigenvalue problem:
     a serial algorithm will be used

 
     Parallelization info
     --------------------
     sticks:   dense  smooth     PW     G-vecs:    dense   smooth      PW
     Min         408     408    102                32936    32936    4116
     Max         409     409    103                32943    32943    4121
     Sum       11449   11449   2869               922329   922329  115313
 


     bravais-lattice index     =            1
     lattice parameter (alat)  =      20.0000  a.u.
     unit-cell volume          =    8000.0000 (a.u.)^3
     number of atoms/cell      =            3
     number of atomic types    =            2
     number of electrons       =         8.00
     number of Kohn-Sham states=            8
     kinetic-energy cutoff     =      90.0000  Ry
     charge density cutoff     =     360.0000  Ry
     convergence threshold     =      1.0E-08
     mixing beta               =       0.7000
     number of iterations used =            8  plain     mixing
     Exchange-correlation      = BLYP ( 1  3  1  3 0 0)
     nstep                     =           50


     celldm(1)=  20.000000  celldm(2)=   0.000000  celldm(3)=   0.000000
     celldm(4)=   0.000000  celldm(5)=   0.000000  celldm(6)=   0.000000

     crystal axes: (cart. coord. in units of alat)
               a(1) = (   1.000000   0.000000   0.000000 )  
               a(2) = (   0.000000   1.000000   0.000000 )  
               a(3) = (   0.000000   0.000000   1.000000 )  

     reciprocal axes: (cart. coord. in units 2 pi/alat)
               b(1) = (  1.000000  0.000000  0.000000 )  
               b(2) = (  0.000000  1.000000  0.000000 )  
               b(3) = (  0.000000  0.000000  1.000000 )  


     PseudoPot. # 1 for  H read from file:
     ../H.blyp-hgh.UPF
     MD5 check sum: c576e69559cde411e611be972c763230
     Pseudo is Norm-conserving, Zval =  1.0
     Generated in analytical, separable form
     Using radial grid of  929 points,  0 beta functions with: 

     PseudoPot. # 2 for  O read from file:
     ../O.blyp-hgh.UPF
     MD5 check sum: d0b7156309aa9befef28faac7bc56342
     Pseudo is Norm-conserving, Zval =  6.0
     Generated in analytical, separable form
     Using radial grid of 1095 points,  1 beta functions with: 
                l(1) =   0

     atomic species   valence    mass     pseudopotential
        H              1.00     1.01000      H( 1.00)
        O              6.00    16.00000      O( 1.00)

     No symmetry found



   Cartesian axes

     site n.     atom                  positions (alat units)
         1           H   tau(   1) = (  -0.0661072  -0.0403732   0.0429619  )
         2           H   tau(   2) = (  -0.0406129   0.0382711  -0.0497150  )
         3           O   tau(   3) = (   0.0067367   0.0001327   0.0060042  )

     number of k points=     1  Marzari-Vanderbilt smearing, width (Ry)=  0.0250
                       cart. coord. in units 2pi/alat
        k(    1) = (   0.0000000   0.0000000   0.0000000), wk =   2.0000000

     Dense  grid:   922329 G-vectors     FFT dimensions: ( 125, 125, 125)

     Estimated max dynamical RAM per process >      31.67Mb

     Estimated total allocated dynamical RAM >     886.64Mb

     Initial potential from superposition of free atoms
     Check: negative starting charge=   -0.016138

     starting charge    7.99998, renormalised to    8.00000

     negative rho (up, down):  1.614E-02 0.000E+00
     Starting wfc are    6 randomized atomic wfcs +    2 random wfc

     total cpu time spent up to now is        0.7 secs

     per-process dynamical memory:    33.5 Mb

     Self-consistent Calculation

     iteration #  1     ecut=    90.00 Ry     beta=0.70
     Davidson diagonalization with overlap
     ethr =  1.00E-02,  avg # of iterations =  8.0

     negative rho (up, down):  4.723E-03 0.000E+00

     total cpu time spent up to now is        0.9 secs

     total energy              =     -33.98466249 Ry
     Harris-Foulkes estimate   =     -34.25567435 Ry
     estimated scf accuracy    <       0.40156696 Ry

     iteration #  2     ecut=    90.00 Ry     beta=0.70
     Davidson diagonalization with overlap
     ethr =  5.02E-03,  avg # of iterations =  2.0

     negative rho (up, down):  2.762E-03 0.000E+00

     total cpu time spent up to now is        1.1 secs

     total energy              =     -34.05729630 Ry
     Harris-Foulkes estimate   =     -34.23682216 Ry
     estimated scf accuracy    <       0.37345130 Ry

     iteration #  3     ecut=    90.00 Ry     beta=0.70
     Davidson diagonalization with overlap
     ethr =  4.67E-03,  avg # of iterations =  2.0

     negative rho (up, down):  1.693E-04 0.000E+00

     total cpu time spent up to now is        1.3 secs

     total energy              =     -34.14330270 Ry
     Harris-Foulkes estimate   =     -34.14456358 Ry
     estimated scf accuracy    <       0.00619965 Ry

     iteration #  4     ecut=    90.00 Ry     beta=0.70
     Davidson diagonalization with overlap
     ethr =  7.75E-05,  avg # of iterations =  7.0

     negative rho (up, down):  5.256E-05 0.000E+00

     total cpu time spent up to now is        1.6 secs

     total energy              =     -34.14100683 Ry
     Harris-Foulkes estimate   =     -34.14118420 Ry
     estimated scf accuracy    <       0.00040244 Ry

     iteration #  5     ecut=    90.00 Ry     beta=0.70
     Davidson diagonalization with overlap
     ethr =  5.03E-06,  avg # of iterations = 10.0

     negative rho (up, down):  1.025E-08 0.000E+00

     total cpu time spent up to now is        1.8 secs

     total energy              =     -34.14513260 Ry
     Harris-Foulkes estimate   =     -34.14513280 Ry
     estimated scf accuracy    <       0.00000494 Ry

     iteration #  6     ecut=    90.00 Ry     beta=0.70
     Davidson diagonalization with overlap
     ethr =  6.17E-08,  avg # of iterations =  2.0

     negative rho (up, down):  3.455E-08 0.000E+00

     total cpu time spent up to now is        2.0 secs

     total energy              =     -34.14513329 Ry
     Harris-Foulkes estimate   =     -34.14513331 Ry
     estimated scf accuracy    <       0.00000243 Ry

     iteration #  7     ecut=    90.00 Ry     beta=0.70
     Davidson diagonalization with overlap
     ethr =  3.04E-08,  avg # of iterations =  2.0

     total cpu time spent up to now is        2.2 secs

     End of self-consistent calculation

          k = 0.0000 0.0000 0.0000 (115313 PWs)   bands (ev):

   -26.1650 -12.6415  -9.8976  -7.2651  -0.8603   0.4386   0.8990   1.1326

     the Fermi energy is    -5.3516 ev

!    total energy              =     -34.14513351 Ry
     Harris-Foulkes estimate   =     -34.14513352 Ry
     estimated scf accuracy    <          8.2E-09 Ry

     The total energy is the sum of the following terms:

     one-electron contribution =     -65.27062395 Ry
     hartree contribution      =      34.00071897 Ry
     xc contribution           =      -8.47940874 Ry
     ewald contribution        =       5.60418021 Ry
     smearing contrib. (-TS)   =       0.00000000 Ry

     convergence has been achieved in   7 iterations

     Forces acting on atoms (Ry/au):

     atom    1 type  1   force =    -0.00800206   -0.04552595    0.05399391
     atom    2 type  1   force =    -0.12890904    0.16578880   -0.22938081
     atom    3 type  2   force =     0.13691110   -0.12026285    0.17538690

     Total force =     0.407111     Total SCF correction =     0.000301

     BFGS Geometry Optimization

     number of scf cycles    =   1
     number of bfgs steps    =   0

     energy   new            =     -34.1451335058 Ry

     new trust radius        =       0.3109968229 bohr
     new conv_thr            =       0.0000000100 Ry


ATOMIC_POSITIONS (angstrom)
H       -0.703882507  -0.451383294   0.483261347
H       -0.498043726   0.492775656  -0.647544097
O        0.143748233  -0.062236362   0.156356750



     Writing output data file pwscf.save
     Check: negative starting charge=   -0.016138
     NEW-OLD atomic charge density approx. for the potential
     Check: negative starting charge=   -0.015999

     negative rho (up, down):  2.787E-02 0.000E+00

     total cpu time spent up to now is        2.8 secs

     per-process dynamical memory:    45.8 Mb

     Self-consistent Calculation

     iteration #  1     ecut=    90.00 Ry     beta=0.70
     Davidson diagonalization with overlap
     c_bands:  2 eigenvalues not converged
     ethr =  1.00E-06,  avg # of iterations = 20.0

     negative rho (up, down):  5.582E-03 0.000E+00

     total cpu time spent up to now is        3.2 secs

     total energy              =      31.79690196 Ry
     Harris-Foulkes estimate   =     -55.00186818 Ry
     estimated scf accuracy    <       7.02940473 Ry

     iteration #  2     ecut=    90.00 Ry     beta=0.70
     Davidson diagonalization with overlap
     ethr =  1.00E-02,  avg # of iterations =  4.0

     total cpu time spent up to now is        3.4 secs

     total energy              =     -32.34736187 Ry
     Harris-Foulkes estimate   =     -38.61988287 Ry
     estimated scf accuracy    <      14.18745789 Ry

     iteration #  3     ecut=    90.00 Ry     beta=0.70
     Davidson diagonalization with overlap
     ethr =  1.00E-02,  avg # of iterations =  3.0

     total cpu time spent up to now is        3.7 secs

     total energy              =     -34.48231267 Ry
     Harris-Foulkes estimate   =     -35.15698362 Ry
     estimated scf accuracy    <       2.01991879 Ry

     iteration #  4     ecut=    90.00 Ry     beta=0.70
     Davidson diagonalization with overlap
     ethr =  1.00E-02,  avg # of iterations =  1.0

     total cpu time spent up to now is        3.8 secs

     total energy              =     -34.42713988 Ry
     Harris-Foulkes estimate   =     -34.53852263 Ry
     estimated scf accuracy    <       1.04327291 Ry

     iteration #  5     ecut=    90.00 Ry     beta=0.70
     Davidson diagonalization with overlap
     ethr =  1.00E-02,  avg # of iterations =  1.0

     negative rho (up, down):  8.541E-02 0.000E+00

     total cpu time spent up to now is        4.0 secs

     total energy              =     -34.06673339 Ry
     Harris-Foulkes estimate   =     -34.42835520 Ry
     estimated scf accuracy    <       0.86307481 Ry

     iteration #  6     ecut=    90.00 Ry     beta=0.70
     Davidson diagonalization with overlap
     ethr =  1.00E-02,  avg # of iterations =  1.0

     negative rho (up, down):  6.117E-02 0.000E+00

     total cpu time spent up to now is        4.2 secs

     total energy              =     -34.09171809 Ry
     Harris-Foulkes estimate   =     -34.09004054 Ry
     estimated scf accuracy    <       0.15117739 Ry

     iteration #  7     ecut=    90.00 Ry     beta=0.70
     Davidson diagonalization with overlap
     ethr =  1.89E-03,  avg # of iterations =  1.0

     negative rho (up, down):  4.781E-02 0.000E+00

     total cpu time spent up to now is        4.4 secs

     total energy              =     -34.08918942 Ry
     Harris-Foulkes estimate   =     -34.09327431 Ry
     estimated scf accuracy    <       0.14079207 Ry

     iteration #  8     ecut=    90.00 Ry     beta=0.70
     Davidson diagonalization with overlap
     ethr =  1.76E-03,  avg # of iterations =  1.0

     total cpu time spent up to now is        4.6 secs

     total energy              =     -34.09995323 Ry
     Harris-Foulkes estimate   =     -34.09056449 Ry
     estimated scf accuracy    <       0.07278357 Ry

     iteration #  9     ecut=    90.00 Ry     beta=0.70
     Davidson diagonalization with overlap
     ethr =  9.10E-04,  avg # of iterations =  1.0

     negative rho (up, down):  9.610E-03 0.000E+00

     total cpu time spent up to now is        5.0 secs

     total energy              =     -34.12579435 Ry
     Harris-Foulkes estimate   =     -34.10061434 Ry
     estimated scf accuracy    <       0.04591724 Ry

     iteration # 10     ecut=    90.00 Ry     beta=0.70
     Davidson diagonalization with overlap
     ethr =  5.74E-04,  avg # of iterations =  2.0

     negative rho (up, down):  1.310E-02 0.000E+00

     total cpu time spent up to now is        5.2 secs

     total energy              =     -34.13423123 Ry
     Harris-Foulkes estimate   =     -34.13374480 Ry
     estimated scf accuracy    <       0.00095587 Ry

     iteration # 11     ecut=    90.00 Ry     beta=0.70
     Davidson diagonalization with overlap
     ethr =  1.19E-05,  avg # of iterations = 15.0

     negative rho (up, down):  1.227E-03 0.000E+00

     total cpu time spent up to now is        5.5 secs

     total energy              =     -34.13437670 Ry
     Harris-Foulkes estimate   =     -34.13451937 Ry
     estimated scf accuracy    <       0.00011735 Ry

     iteration # 12     ecut=    90.00 Ry     beta=0.70
     Davidson diagonalization with overlap
     ethr =  1.47E-06,  avg # of iterations = 14.0

     negative rho (up, down):  1.006E-04 0.000E+00

     total cpu time spent up to now is        5.8 secs

     total energy              =     -34.13440527 Ry
     Harris-Foulkes estimate   =     -34.13439100 Ry
     estimated scf accuracy    <       0.00007292 Ry

     iteration # 13     ecut=    90.00 Ry     beta=0.70
     Davidson diagonalization with overlap
     ethr =  9.11E-07,  avg # of iterations =  4.0

     total cpu time spent up to now is        6.1 secs

     total energy              =     -34.13442516 Ry
     Harris-Foulkes estimate   =     -34.13441041 Ry
     estimated scf accuracy    <       0.00014618 Ry

     iteration # 14     ecut=    90.00 Ry     beta=0.70
     Davidson diagonalization with overlap
     ethr =  9.11E-07,  avg # of iterations =  1.0

     negative rho (up, down):  7.226E-05 0.000E+00

     total cpu time spent up to now is        6.3 secs

     total energy              =     -34.13441077 Ry
     Harris-Foulkes estimate   =     -34.13442717 Ry
     estimated scf accuracy    <       0.00022098 Ry

     iteration # 15     ecut=    90.00 Ry     beta=0.70
     Davidson diagonalization with overlap
     ethr =  9.11E-07,  avg # of iterations =  1.0

     negative rho (up, down):  1.384E-05 0.000E+00

     total cpu time spent up to now is        6.5 secs

     total energy              =     -34.13441522 Ry
     Harris-Foulkes estimate   =     -34.13441174 Ry
     estimated scf accuracy    <       0.00016477 Ry

     iteration # 16     ecut=    90.00 Ry     beta=0.70
     Davidson diagonalization with overlap
     ethr =  9.11E-07,  avg # of iterations =  1.0

     negative rho (up, down):  9.648E-07 0.000E+00

     total cpu time spent up to now is        6.7 secs

     total energy              =     -34.13441801 Ry
     Harris-Foulkes estimate   =     -34.13441534 Ry
     estimated scf accuracy    <       0.00017743 Ry

     iteration # 17     ecut=    90.00 Ry     beta=0.70
     Davidson diagonalization with overlap
     ethr =  9.11E-07,  avg # of iterations =  1.0

     negative rho (up, down):  1.496E-06 0.000E+00

     total cpu time spent up to now is        6.9 secs

     total energy              =     -34.13441824 Ry
     Harris-Foulkes estimate   =     -34.13441805 Ry
     estimated scf accuracy    <       0.00018764 Ry

     iteration # 18     ecut=    90.00 Ry     beta=0.70
     Davidson diagonalization with overlap
     ethr =  9.11E-07,  avg # of iterations =  1.0

     negative rho (up, down):  1.732E-04 0.000E+00

     total cpu time spent up to now is        7.1 secs

     total energy              =     -34.13435876 Ry
     Harris-Foulkes estimate   =     -34.13441825 Ry
     estimated scf accuracy    <       0.00018862 Ry

     iteration # 19     ecut=    90.00 Ry     beta=0.70
     Davidson diagonalization with overlap
     ethr =  9.11E-07,  avg # of iterations =  2.0

     negative rho (up, down):  4.807E-05 0.000E+00

     total cpu time spent up to now is        7.3 secs

     total energy              =     -34.13436261 Ry
     Harris-Foulkes estimate   =     -34.13437302 Ry
     estimated scf accuracy    <       0.00002858 Ry

     iteration # 20     ecut=    90.00 Ry     beta=0.70
     Davidson diagonalization with overlap
     ethr =  3.57E-07,  avg # of iterations =  2.0

     negative rho (up, down):  2.057E-07 0.000E+00

     total cpu time spent up to now is        7.5 secs

     total energy              =     -34.13436658 Ry
     Harris-Foulkes estimate   =     -34.13436700 Ry
     estimated scf accuracy    <       0.00000055 Ry

     iteration # 21     ecut=    90.00 Ry     beta=0.70
     Davidson diagonalization with overlap
     ethr =  6.85E-09,  avg # of iterations =  2.0

     total cpu time spent up to now is        7.8 secs

     total energy              =     -34.13436663 Ry
     Harris-Foulkes estimate   =     -34.13436664 Ry
     estimated scf accuracy    <       0.00000002 Ry

     iteration # 22     ecut=    90.00 Ry     beta=0.70
     Davidson diagonalization with overlap
     ethr =  3.03E-10,  avg # of iterations =  2.0

     total cpu time spent up to now is        8.0 secs

     total energy              =     -34.13436662 Ry
     Harris-Foulkes estimate   =     -34.13436664 Ry
     estimated scf accuracy    <       0.00000001 Ry

     iteration # 23     ecut=    90.00 Ry     beta=0.70
     Davidson diagonalization with overlap
     ethr =  1.26E-10,  avg # of iterations =  2.0

     total cpu time spent up to now is        8.2 secs

     End of self-consistent calculation

          k = 0.0000 0.0000 0.0000 (115313 PWs)   bands (ev):

   -24.5544 -11.2002  -9.8557  -7.0175  -1.5165   0.1992   0.5744   1.1357

     the Fermi energy is    -4.9467 ev

!    total energy              =     -34.13436663 Ry
     Harris-Foulkes estimate   =     -34.13436662 Ry
     estimated scf accuracy    <          1.2E-10 Ry

     The total energy is the sum of the following terms:

     one-electron contribution =     -61.75874122 Ry
     hartree contribution      =      32.31311495 Ry
     xc contribution           =      -8.20912534 Ry
     ewald contribution        =       3.52038498 Ry
     smearing contrib. (-TS)   =       0.00000000 Ry

     convergence has been achieved in  23 iterations

     Forces acting on atoms (Ry/au):

     atom    1 type  1   force =     0.01730506   -0.02124318    0.02982954
     atom    2 type  1   force =     0.12016311   -0.06541008    0.10337416
     atom    3 type  2   force =    -0.13746817    0.08665326   -0.13320370

     Total force =     0.274215     Total SCF correction =     0.000015

     number of scf cycles    =   2
     number of bfgs steps    =   1

     energy   old            =     -34.1451335058 Ry
     energy   new            =     -34.1343666260 Ry

     CASE: energy  _new > energy  _old

     new trust radius        =       0.1460130101 bohr
     new conv_thr            =       0.0000000100 Ry


ATOMIC_POSITIONS (angstrom)
H       -0.701636101  -0.438602863   0.468103717
H       -0.461855284   0.446234013  -0.583150365
O        0.105313385  -0.028475150   0.107120648



     Writing output data file pwscf.save
     Check: negative starting charge=   -0.015999
     NEW-OLD atomic charge density approx. for the potential
     Check: negative starting charge=   -0.016062

     negative rho (up, down):  2.371E-02 0.000E+00

     total cpu time spent up to now is        8.8 secs

     per-process dynamical memory:    45.8 Mb

     Self-consistent Calculation

     iteration #  1     ecut=    90.00 Ry     beta=0.70
     Davidson diagonalization with overlap
     c_bands:  1 eigenvalues not converged
     ethr =  1.00E-06,  avg # of iterations = 20.0

     negative rho (up, down):  6.189E-03 0.000E+00

     total cpu time spent up to now is        9.3 secs

     total energy              =     -34.15914678 Ry
     Harris-Foulkes estimate   =     -34.14152330 Ry
     estimated scf accuracy    <       0.01351226 Ry

     iteration #  2     ecut=    90.00 Ry     beta=0.70
     Davidson diagonalization with overlap
     ethr =  1.69E-04,  avg # of iterations =  3.0

     negative rho (up, down):  3.799E-03 0.000E+00

     total cpu time spent up to now is        9.5 secs

     total energy              =     -34.16239239 Ry
     Harris-Foulkes estimate   =     -34.16811587 Ry
     estimated scf accuracy    <       0.01317170 Ry

     iteration #  3     ecut=    90.00 Ry     beta=0.70
     Davidson diagonalization with overlap
     ethr =  1.65E-04,  avg # of iterations =  2.0

     negative rho (up, down):  8.755E-04 0.000E+00

     total cpu time spent up to now is        9.7 secs

     total energy              =     -34.16787328 Ry
     Harris-Foulkes estimate   =     -34.16525996 Ry
     estimated scf accuracy    <       0.00015224 Ry

     iteration #  4     ecut=    90.00 Ry     beta=0.70
     Davidson diagonalization with overlap
     c_bands:  1 eigenvalues not converged
     ethr =  1.90E-06,  avg # of iterations = 20.0

     negative rho (up, down):  1.672E-04 0.000E+00

     total cpu time spent up to now is       10.2 secs

     total energy              =     -34.17205414 Ry
     Harris-Foulkes estimate   =     -34.17203179 Ry
     estimated scf accuracy    <       0.00000559 Ry

     iteration #  5     ecut=    90.00 Ry     beta=0.70
     Davidson diagonalization with overlap
     c_bands:  1 eigenvalues not converged
     ethr =  6.99E-08,  avg # of iterations = 20.0

     negative rho (up, down):  8.158E-07 0.000E+00

     total cpu time spent up to now is       10.5 secs

     total energy              =     -34.17205481 Ry
     Harris-Foulkes estimate   =     -34.17205561 Ry
     estimated scf accuracy    <       0.00000038 Ry

     iteration #  6     ecut=    90.00 Ry     beta=0.70
     Davidson diagonalization with overlap
     ethr =  4.72E-09,  avg # of iterations =  9.0

     total cpu time spent up to now is       10.7 secs

     End of self-consistent calculation

          k = 0.0000 0.0000 0.0000 (115313 PWs)   bands (ev):

   -25.2505 -11.9119  -9.8874  -7.1291  -1.0449   0.3864   0.7631   1.1204

     the Fermi energy is    -5.1322 ev

!    total energy              =     -34.17205460 Ry
     Harris-Foulkes estimate   =     -34.17205494 Ry
     estimated scf accuracy    <          1.0E-08 Ry

     The total energy is the sum of the following terms:

     one-electron contribution =     -63.47458474 Ry
     hartree contribution      =      33.14021905 Ry
     xc contribution           =      -8.33571197 Ry
     ewald contribution        =       4.49802306 Ry
     smearing contrib. (-TS)   =       0.00000000 Ry

     convergence has been achieved in   6 iterations

     Forces acting on atoms (Ry/au):

     atom    1 type  1   force =     0.00071820   -0.03421993    0.04198969
     atom    2 type  1   force =     0.05598869    0.00240058    0.00679140
     atom    3 type  2   force =    -0.05670690    0.03181935   -0.04878109

     Total force =     0.112823     Total SCF correction =     0.000457

     number of scf cycles    =   3
     number of bfgs steps    =   1

     energy   old            =     -34.1451335058 Ry
     energy   new            =     -34.1720545996 Ry

     CASE: energy  _new < energy  _old

     new trust radius        =       0.0549207145 bohr
     new conv_thr            =       0.0000000057 Ry


ATOMIC_POSITIONS (angstrom)
H       -0.701771807  -0.457016110   0.490588817
H       -0.443585092   0.457003844  -0.593393937
O        0.087178898  -0.020831735   0.094879120



     Writing output data file pwscf.save
     Check: negative starting charge=   -0.016062
     NEW-OLD atomic charge density approx. for the potential
     Check: negative starting charge=   -0.016065

     negative rho (up, down):  7.900E-03 0.000E+00

     total cpu time spent up to now is       11.3 secs

     per-process dynamical memory:    45.8 Mb

     Self-consistent Calculation

     iteration #  1     ecut=    90.00 Ry     beta=0.70
     Davidson diagonalization with overlap
     c_bands:  1 eigenvalues not converged
     ethr =  1.00E-06,  avg # of iterations = 20.0

     negative rho (up, down):  2.078E-03 0.000E+00

     total cpu time spent up to now is       11.7 secs

     total energy              =     -34.16498385 Ry
     Harris-Foulkes estimate   =     -34.19132596 Ry
     estimated scf accuracy    <       0.00101021 Ry

     iteration #  2     ecut=    90.00 Ry     beta=0.70
     Davidson diagonalization with overlap
     ethr =  1.26E-05,  avg # of iterations = 12.0

     negative rho (up, down):  1.394E-03 0.000E+00

     total cpu time spent up to now is       12.0 secs

     total energy              =     -34.17419503 Ry
     Harris-Foulkes estimate   =     -34.17422131 Ry
     estimated scf accuracy    <       0.00162380 Ry

     iteration #  3     ecut=    90.00 Ry     beta=0.70
     Davidson diagonalization with overlap
     ethr =  1.26E-05,  avg # of iterations =  4.0

     negative rho (up, down):  5.591E-04 0.000E+00

     total cpu time spent up to now is       12.2 secs

     total energy              =     -34.17870262 Ry
     Harris-Foulkes estimate   =     -34.17851379 Ry
     estimated scf accuracy    <       0.00005575 Ry

     iteration #  4     ecut=    90.00 Ry     beta=0.70
     Davidson diagonalization with overlap
     ethr =  6.97E-07,  avg # of iterations = 15.0

     negative rho (up, down):  2.370E-05 0.000E+00

     total cpu time spent up to now is       12.5 secs

     total energy              =     -34.17871969 Ry
     Harris-Foulkes estimate   =     -34.17870856 Ry
     estimated scf accuracy    <       0.00001266 Ry

     iteration #  5     ecut=    90.00 Ry     beta=0.70
     Davidson diagonalization with overlap
     c_bands:  1 eigenvalues not converged
     ethr =  1.58E-07,  avg # of iterations = 20.0

     negative rho (up, down):  3.154E-07 0.000E+00

     total cpu time spent up to now is       12.9 secs

     total energy              =     -34.17872120 Ry
     Harris-Foulkes estimate   =     -34.17872187 Ry
     estimated scf accuracy    <       0.00000010 Ry

     iteration #  6     ecut=    90.00 Ry     beta=0.70
     Davidson diagonalization with overlap
     ethr =  1.22E-09,  avg # of iterations =  2.0

     total cpu time spent up to now is       13.1 secs

     total energy              =     -34.17872129 Ry
     Harris-Foulkes estimate   =     -34.17872126 Ry
     estimated scf accuracy    <       0.00000002 Ry

     iteration #  7     ecut=    90.00 Ry     beta=0.70
     Davidson diagonalization with overlap
     ethr =  2.80E-10,  avg # of iterations =  2.0

     total cpu time spent up to now is       13.2 secs

     End of self-consistent calculation

          k = 0.0000 0.0000 0.0000 (115313 PWs)   bands (ev):

   -25.2064 -12.1914  -9.6636  -7.1143  -1.0012   0.4038   0.7612   1.1261

     the Fermi energy is    -5.1169 ev

!    total energy              =     -34.17872129 Ry
     Harris-Foulkes estimate   =     -34.17872129 Ry
     estimated scf accuracy    <          2.0E-09 Ry

     The total energy is the sum of the following terms:

     one-electron contribution =     -63.55299906 Ry
     hartree contribution      =      33.18497419 Ry
     xc contribution           =      -8.34361438 Ry
     ewald contribution        =       4.53291795 Ry
     smearing contrib. (-TS)   =       0.00000000 Ry

     convergence has been achieved in   7 iterations

     Forces acting on atoms (Ry/au):

     atom    1 type  1   force =     0.01465409   -0.01777378    0.02185668
     atom    2 type  1   force =     0.03040389    0.00673581   -0.00544194
     atom    3 type  2   force =    -0.04505798    0.01103798   -0.01641473

     Total force =     0.066553     Total SCF correction =     0.000071

     number of scf cycles    =   4
     number of bfgs steps    =   2

     energy   old            =     -34.1720545996 Ry
     energy   new            =     -34.1787212933 Ry

     CASE: energy  _new < energy  _old

     new trust radius        =       0.0604127859 bohr
     new conv_thr            =       0.0000000045 Ry


ATOMIC_POSITIONS (angstrom)
H       -0.691049116  -0.475789765   0.513556032
H       -0.423285388   0.471613532  -0.609857782
O        0.056156504  -0.016667766   0.088375750



     Writing output data file pwscf.save
     Check: negative starting charge=   -0.016065
     NEW-OLD atomic charge density approx. for the potential
     Check: negative starting charge=   -0.016024

     negative rho (up, down):  1.084E-02 0.000E+00

     total cpu time spent up to now is       13.8 secs

     per-process dynamical memory:    45.8 Mb

     Self-consistent Calculation

     iteration #  1     ecut=    90.00 Ry     beta=0.70
     Davidson diagonalization with overlap
     c_bands:  1 eigenvalues not converged
     ethr =  1.00E-06,  avg # of iterations = 20.0

     negative rho (up, down):  2.852E-03 0.000E+00

     total cpu time spent up to now is       14.3 secs

     total energy              =     -34.17651591 Ry
     Harris-Foulkes estimate   =     -34.16578306 Ry
     estimated scf accuracy    <       0.00092474 Ry

     iteration #  2     ecut=    90.00 Ry     beta=0.70
     Davidson diagonalization with overlap
     ethr =  1.16E-05,  avg # of iterations = 18.0

     negative rho (up, down):  1.669E-03 0.000E+00

     total cpu time spent up to now is       14.6 secs

     total energy              =     -34.17809839 Ry
     Harris-Foulkes estimate   =     -34.17701880 Ry
     estimated scf accuracy    <       0.00068565 Ry

     iteration #  3     ecut=    90.00 Ry     beta=0.70
     Davidson diagonalization with overlap
     ethr =  8.57E-06,  avg # of iterations =  6.0

     negative rho (up, down):  1.445E-04 0.000E+00

     total cpu time spent up to now is       15.0 secs

     total energy              =     -34.17870194 Ry
     Harris-Foulkes estimate   =     -34.17826413 Ry
     estimated scf accuracy    <       0.00002621 Ry

     iteration #  4     ecut=    90.00 Ry     beta=0.70
     Davidson diagonalization with overlap
     c_bands:  1 eigenvalues not converged
     ethr =  3.28E-07,  avg # of iterations = 20.0

     negative rho (up, down):  4.772E-06 0.000E+00

     total cpu time spent up to now is       15.3 secs

     total energy              =     -34.18278661 Ry
     Harris-Foulkes estimate   =     -34.18278904 Ry
     estimated scf accuracy    <       0.00000036 Ry

     iteration #  5     ecut=    90.00 Ry     beta=0.70
     Davidson diagonalization with overlap
     ethr =  4.45E-09,  avg # of iterations = 11.0

     total cpu time spent up to now is       15.6 secs

     total energy              =     -34.18278627 Ry
     Harris-Foulkes estimate   =     -34.18278677 Ry
     estimated scf accuracy    <       0.00000002 Ry

     iteration #  6     ecut=    90.00 Ry     beta=0.70
     Davidson diagonalization with overlap
     ethr =  3.02E-10,  avg # of iterations =  2.0

     total cpu time spent up to now is       15.7 secs

     End of self-consistent calculation

          k = 0.0000 0.0000 0.0000 (115313 PWs)   bands (ev):

   -25.2177 -12.6162  -9.3637  -7.1062  -0.9418   0.4256   0.7711   1.1342

     the Fermi energy is    -5.1136 ev

!    total energy              =     -34.18278624 Ry
     Harris-Foulkes estimate   =     -34.18278628 Ry
     estimated scf accuracy    <          7.9E-10 Ry

     The total energy is the sum of the following terms:

     one-electron contribution =     -63.79223331 Ry
     hartree contribution      =      33.30869604 Ry
     xc contribution           =      -8.36452487 Ry
     ewald contribution        =       4.66527591 Ry
     smearing contrib. (-TS)   =       0.00000000 Ry

     convergence has been achieved in   6 iterations

     Forces acting on atoms (Ry/au):

     atom    1 type  1   force =    -0.00460383   -0.01255625    0.01456001
     atom    2 type  1   force =     0.00562653    0.00997014   -0.01141977
     atom    3 type  2   force =    -0.00102270    0.00258611   -0.00314024

     Total force =     0.025883     Total SCF correction =     0.000052

     number of scf cycles    =   5
     number of bfgs steps    =   3

     energy   old            =     -34.1787212933 Ry
     energy   new            =     -34.1827862423 Ry

     CASE: energy  _new < energy  _old

     new trust radius        =       0.0483096323 bohr
     new conv_thr            =       0.0000000015 Ry


ATOMIC_POSITIONS (angstrom)
H       -0.690791036  -0.492266025   0.533100919
H       -0.411418722   0.484412163  -0.624352298
O        0.044031758  -0.012990138   0.083325379



     Writing output data file pwscf.save
     Check: negative starting charge=   -0.016024
     NEW-OLD atomic charge density approx. for the potential
     Check: negative starting charge=   -0.016010

     negative rho (up, down):  4.446E-03 0.000E+00

     total cpu time spent up to now is       16.4 secs

     per-process dynamical memory:    45.8 Mb

     Self-consistent Calculation

     iteration #  1     ecut=    90.00 Ry     beta=0.70
     Davidson diagonalization with overlap
     c_bands:  1 eigenvalues not converged
     ethr =  1.00E-06,  avg # of iterations = 20.0

     negative rho (up, down):  1.157E-03 0.000E+00

     total cpu time spent up to now is       16.8 secs

     total energy              =     -34.17934556 Ry
     Harris-Foulkes estimate   =     -34.17543830 Ry
     estimated scf accuracy    <       0.00019083 Ry

     iteration #  2     ecut=    90.00 Ry     beta=0.70
     Davidson diagonalization with overlap
     ethr =  2.39E-06,  avg # of iterations = 15.0

     negative rho (up, down):  3.418E-04 0.000E+00

     total cpu time spent up to now is       17.1 secs

     total energy              =     -34.18354200 Ry
     Harris-Foulkes estimate   =     -34.18346054 Ry
     estimated scf accuracy    <       0.00002563 Ry

     iteration #  3     ecut=    90.00 Ry     beta=0.70
     Davidson diagonalization with overlap
     ethr =  3.20E-07,  avg # of iterations =  5.0

     negative rho (up, down):  4.964E-05 0.000E+00

     total cpu time spent up to now is       17.4 secs

     total energy              =     -34.18355144 Ry
     Harris-Foulkes estimate   =     -34.18355521 Ry
     estimated scf accuracy    <       0.00001637 Ry

     iteration #  4     ecut=    90.00 Ry     beta=0.70
     Davidson diagonalization with overlap
     ethr =  2.05E-07,  avg # of iterations =  3.0

     negative rho (up, down):  5.694E-07 0.000E+00

     total cpu time spent up to now is       17.6 secs

     total energy              =     -34.18355365 Ry
     Harris-Foulkes estimate   =     -34.18355507 Ry
     estimated scf accuracy    <       0.00000025 Ry

     iteration #  5     ecut=    90.00 Ry     beta=0.70
     Davidson diagonalization with overlap
     ethr =  3.12E-09,  avg # of iterations =  2.0

     total cpu time spent up to now is       17.9 secs

     total energy              =     -34.18355358 Ry
     Harris-Foulkes estimate   =     -34.18355374 Ry
     estimated scf accuracy    <          6.3E-09 Ry

     iteration #  6     ecut=    90.00 Ry     beta=0.70
     Davidson diagonalization with overlap
     ethr =  7.93E-11,  avg # of iterations =  3.0

     total cpu time spent up to now is       18.0 secs

     End of self-consistent calculation

          k = 0.0000 0.0000 0.0000 (115313 PWs)   bands (ev):

   -25.0930 -12.7368  -9.1801  -7.0781  -0.9488   0.4251   0.7492   1.1501

     the Fermi energy is    -5.0705 ev

!    total energy              =     -34.18355357 Ry
     Harris-Foulkes estimate   =     -34.18355358 Ry
     estimated scf accuracy    <          4.6E-10 Ry

     The total energy is the sum of the following terms:

     one-electron contribution =     -63.64338734 Ry
     hartree contribution      =      33.24318556 Ry
     xc contribution           =      -8.35396023 Ry
     ewald contribution        =       4.57060843 Ry
     smearing contrib. (-TS)   =       0.00000000 Ry

     convergence has been achieved in   6 iterations

     Forces acting on atoms (Ry/au):

     atom    1 type  1   force =     0.00711829    0.00448802   -0.00395675
     atom    2 type  1   force =    -0.00269700    0.00382680   -0.00511153
     atom    3 type  2   force =    -0.00442128   -0.00831482    0.00906828

     Total force =     0.017477     Total SCF correction =     0.000046

     number of scf cycles    =   6
     number of bfgs steps    =   4

     energy   old            =     -34.1827862423 Ry
     energy   new            =     -34.1835535732 Ry

     CASE: energy  _new < energy  _old

     new trust radius        =       0.0081409093 bohr
     new conv_thr            =       0.0000000008 Ry


ATOMIC_POSITIONS (angstrom)
H       -0.688465764  -0.491469304   0.532816786
H       -0.410812681   0.486046955  -0.626081587
O        0.041100445  -0.015421651   0.085338801



     Writing output data file pwscf.save
     Check: negative starting charge=   -0.016010
     NEW-OLD atomic charge density approx. for the potential
     Check: negative starting charge=   -0.016007

     negative rho (up, down):  1.279E-03 0.000E+00

     total cpu time spent up to now is       18.6 secs

     per-process dynamical memory:    45.8 Mb

     Self-consistent Calculation

     iteration #  1     ecut=    90.00 Ry     beta=0.70
     Davidson diagonalization with overlap
     ethr =  1.00E-06,  avg # of iterations =  8.0

     negative rho (up, down):  3.211E-04 0.000E+00

     total cpu time spent up to now is       19.0 secs

     total energy              =     -34.18360561 Ry
     Harris-Foulkes estimate   =     -34.18351472 Ry
     estimated scf accuracy    <       0.00002585 Ry

     iteration #  2     ecut=    90.00 Ry     beta=0.70
     Davidson diagonalization with overlap
     ethr =  3.23E-07,  avg # of iterations =  5.0

     negative rho (up, down):  1.572E-04 0.000E+00

     total cpu time spent up to now is       19.2 secs

     total energy              =     -34.18361474 Ry
     Harris-Foulkes estimate   =     -34.18361764 Ry
     estimated scf accuracy    <       0.00001051 Ry

     iteration #  3     ecut=    90.00 Ry     beta=0.70
     Davidson diagonalization with overlap
     ethr =  1.31E-07,  avg # of iterations =  2.0

     negative rho (up, down):  3.934E-05 0.000E+00

     total cpu time spent up to now is       19.4 secs

     total energy              =     -34.18361707 Ry
     Harris-Foulkes estimate   =     -34.18361804 Ry
     estimated scf accuracy    <       0.00000116 Ry

     iteration #  4     ecut=    90.00 Ry     beta=0.70
     Davidson diagonalization with overlap
     ethr =  1.46E-08,  avg # of iterations =  2.0

     negative rho (up, down):  1.844E-07 0.000E+00

     total cpu time spent up to now is       19.6 secs

     total energy              =     -34.18361739 Ry
     Harris-Foulkes estimate   =     -34.18361736 Ry
     estimated scf accuracy    <       0.00000002 Ry

     iteration #  5     ecut=    90.00 Ry     beta=0.70
     Davidson diagonalization with overlap
     ethr =  2.66E-10,  avg # of iterations =  3.0

     total cpu time spent up to now is       19.8 secs

     total energy              =     -34.18361737 Ry
     Harris-Foulkes estimate   =     -34.18361741 Ry
     estimated scf accuracy    <          1.1E-09 Ry

     iteration #  6     ecut=    90.00 Ry     beta=0.70
     Davidson diagonalization with overlap
     ethr =  1.40E-11,  avg # of iterations =  2.0

     total cpu time spent up to now is       20.1 secs

     End of self-consistent calculation

          k = 0.0000 0.0000 0.0000 (115313 PWs)   bands (ev):

   -25.1044 -12.7701  -9.1643  -7.0794  -0.9429   0.4272   0.7519   1.1503

     the Fermi energy is    -5.0732 ev

!    total energy              =     -34.18361736 Ry
     Harris-Foulkes estimate   =     -34.18361737 Ry
     estimated scf accuracy    <          1.2E-10 Ry

     The total energy is the sum of the following terms:

     one-electron contribution =     -63.68006270 Ry
     hartree contribution      =      33.26125780 Ry
     xc contribution           =      -8.35690700 Ry
     ewald contribution        =       4.59209454 Ry
     smearing contrib. (-TS)   =       0.00000000 Ry

     convergence has been achieved in   6 iterations

     Forces acting on atoms (Ry/au):

     atom    1 type  1   force =    -0.00253701   -0.00093661    0.00085600
     atom    2 type  1   force =    -0.00056224    0.00016183   -0.00014276
     atom    3 type  2   force =     0.00309925    0.00077479   -0.00071324

     Total force =     0.004373     Total SCF correction =     0.000061

     number of scf cycles    =   7
     number of bfgs steps    =   5

     energy   old            =     -34.1835535732 Ry
     energy   new            =     -34.1836173599 Ry

     CASE: energy  _new < energy  _old

     new trust radius        =       0.0025188471 bohr
     new conv_thr            =            1.0E-10 Ry


ATOMIC_POSITIONS (angstrom)
H       -0.689267512  -0.491232079   0.532444771
H       -0.411333991   0.485664452  -0.625638327
O        0.042423504  -0.015276372   0.085267556



     Writing output data file pwscf.save
     Check: negative starting charge=   -0.016007
     NEW-OLD atomic charge density approx. for the potential
     Check: negative starting charge=   -0.016008

     negative rho (up, down):  3.234E-04 0.000E+00

     total cpu time spent up to now is       20.6 secs

     per-process dynamical memory:    45.8 Mb

     Self-consistent Calculation

     iteration #  1     ecut=    90.00 Ry     beta=0.70
     Davidson diagonalization with overlap
     ethr =  1.00E-06,  avg # of iterations =  3.0

     Threshold (ethr) on eigenvalues was too large:
     Diagonalizing with lowered threshold

     Davidson diagonalization with overlap
     ethr =  3.55E-08,  avg # of iterations =  1.0

     negative rho (up, down):  7.214E-05 0.000E+00

     total cpu time spent up to now is       21.0 secs

     total energy              =     -34.18362014 Ry
     Harris-Foulkes estimate   =     -34.18361893 Ry
     estimated scf accuracy    <       0.00000266 Ry

     iteration #  2     ecut=    90.00 Ry     beta=0.70
     Davidson diagonalization with overlap
     ethr =  3.32E-08,  avg # of iterations =  3.0

     negative rho (up, down):  3.926E-05 0.000E+00

     total cpu time spent up to now is       21.2 secs

     total energy              =     -34.18362151 Ry
     Harris-Foulkes estimate   =     -34.18362199 Ry
     estimated scf accuracy    <       0.00000254 Ry

     iteration #  3     ecut=    90.00 Ry     beta=0.70
     Davidson diagonalization with overlap
     ethr =  3.17E-08,  avg # of iterations =  2.0

     negative rho (up, down):  1.847E-06 0.000E+00

     total cpu time spent up to now is       21.4 secs

     total energy              =     -34.18362285 Ry
     Harris-Foulkes estimate   =     -34.18362206 Ry
     estimated scf accuracy    <       0.00000003 Ry

     iteration #  4     ecut=    90.00 Ry     beta=0.70
     Davidson diagonalization with overlap
     ethr =  4.10E-10,  avg # of iterations =  2.0

     negative rho (up, down):  3.503E-08 0.000E+00

     total cpu time spent up to now is       21.6 secs

     total energy              =     -34.18362318 Ry
     Harris-Foulkes estimate   =     -34.18362287 Ry
     estimated scf accuracy    <          1.4E-09 Ry

     iteration #  5     ecut=    90.00 Ry     beta=0.70
     Davidson diagonalization with overlap
     ethr =  1.73E-11,  avg # of iterations =  2.0

     total cpu time spent up to now is       21.7 secs

     End of self-consistent calculation

          k = 0.0000 0.0000 0.0000 (115313 PWs)   bands (ev):

   -25.0993 -12.7528  -9.1735  -7.0789  -0.9456   0.4264   0.7509   1.1501

     the Fermi energy is    -5.0721 ev

!    total energy              =     -34.18362332 Ry
     Harris-Foulkes estimate   =     -34.18362319 Ry
     estimated scf accuracy    <          5.9E-11 Ry

     The total energy is the sum of the following terms:

     one-electron contribution =     -63.66271011 Ry
     hartree contribution      =      33.25269258 Ry
     xc contribution           =      -8.35550812 Ry
     ewald contribution        =       4.58190233 Ry
     smearing contrib. (-TS)   =       0.00000000 Ry

     convergence has been achieved in   5 iterations

     Forces acting on atoms (Ry/au):

     atom    1 type  1   force =    -0.00023506    0.00006567    0.00005674
     atom    2 type  1   force =     0.00009176    0.00030356   -0.00020004
     atom    3 type  2   force =     0.00014331   -0.00036923    0.00014330

     Total force =     0.000617     Total SCF correction =     0.000186
     SCF correction compared to forces is large: reduce conv_thr to get better values

     bfgs converged in   8 scf cycles and   6 bfgs steps
     (criteria: energy <  1.0E-04, force <  1.0E-03)

     End of BFGS Geometry Optimization

     Final energy   =     -34.1836233221 Ry
Begin final coordinates

ATOMIC_POSITIONS (angstrom)
H       -0.689267512  -0.491232079   0.532444771
H       -0.411333991   0.485664452  -0.625638327
O        0.042423504  -0.015276372   0.085267556
End final coordinates



     Writing output data file pwscf.save
 
     init_run     :      0.51s CPU      0.54s WALL (       1 calls)
     electrons    :     15.40s CPU     18.00s WALL (       8 calls)
     update_pot   :      1.72s CPU      2.04s WALL (       7 calls)
     forces       :      0.54s CPU      0.54s WALL (       8 calls)

     Called by init_run:
     wfcinit      :      0.03s CPU      0.04s WALL (       1 calls)
     potinit      :      0.11s CPU      0.11s WALL (       1 calls)

     Called by electrons:
     c_bands      :      7.45s CPU      7.70s WALL (      67 calls)
     sum_band     :      1.45s CPU      1.61s WALL (      67 calls)
     v_of_rho     :      3.80s CPU      3.86s WALL (      74 calls)
     mix_rho      :      2.00s CPU      3.41s WALL (      67 calls)

     Called by c_bands:
     init_us_2    :      0.04s CPU      0.04s WALL (     135 calls)
     cegterg      :      7.41s CPU      7.63s WALL (      67 calls)

     Called by sum_band:

     Called by *egterg:
     h_psi        :      6.27s CPU      6.47s WALL (     493 calls)
     g_psi        :      0.06s CPU      0.06s WALL (     425 calls)
     cdiaghg      :      0.14s CPU      0.15s WALL (     484 calls)

     Called by h_psi:
     h_psi:pot    :      6.21s CPU      6.40s WALL (     493 calls)
     h_psi:calbec :      0.09s CPU      0.11s WALL (     493 calls)
     vloc_psi     :      6.07s CPU      6.25s WALL (     493 calls)
     add_vuspsi   :      0.04s CPU      0.04s WALL (     493 calls)

     General routines
     calbec       :      0.09s CPU      0.11s WALL (     525 calls)
     fft          :      2.67s CPU      2.76s WALL (     831 calls)
     fftw         :      6.04s CPU      6.35s WALL (    4646 calls)
     davcio       :      0.26s CPU      1.41s WALL (     657 calls)
 
     Parallel routines
     fft_scatter  :      3.18s CPU      3.54s WALL (    5477 calls)
 
     PWSCF        :    18.70s CPU        22.20s WALL

 
   This run was terminated on:   2:42:50  28Jul2018            

=------------------------------------------------------------------------------=
   JOB DONE.
=------------------------------------------------------------------------------=
