
     Program PWSCF v.6.0 (svn rev. 13079) starts on 28Jul2018 at  2:43:42 

     This program is part of the open-source Quantum ESPRESSO suite
     for quantum simulation of materials; please cite
         "P. Giannozzi et al., J. Phys.:Condens. Matter 21 395502 (2009);
          URL http://www.quantum-espresso.org", 
     in publications or presentations arising from this work. More details at
     http://www.quantum-espresso.org/quote

     Parallel version (MPI), running on    28 processors
     R & G space division:  proc/nbgrp/npool/nimage =      28
     Reading input from ../QMCmins/relax-78.in

     Current dimensions of program PWSCF are:
     Max number of different atomic species (ntypx) = 10
     Max number of k-points (npk) =  40000
     Max angular momentum in pseudopotentials (lmaxx) =  3
     Message from routine iosys:
     pot_extrapolation='second-order' not available, using 'atomic'
     Message from routine iosys:
     wfc_extrapolation='second-order' not available, using 'atomic'

     Subspace diagonalization in iterative solution of the eigenvalue problem:
     a serial algorithm will be used

 
     Parallelization info
     --------------------
     sticks:   dense  smooth     PW     G-vecs:    dense   smooth      PW
     Min         408     408    102                32936    32936    4116
     Max         409     409    103                32943    32943    4121
     Sum       11449   11449   2869               922329   922329  115313
 


     bravais-lattice index     =            1
     lattice parameter (alat)  =      20.0000  a.u.
     unit-cell volume          =    8000.0000 (a.u.)^3
     number of atoms/cell      =            3
     number of atomic types    =            2
     number of electrons       =         8.00
     number of Kohn-Sham states=            8
     kinetic-energy cutoff     =      90.0000  Ry
     charge density cutoff     =     360.0000  Ry
     convergence threshold     =      1.0E-08
     mixing beta               =       0.7000
     number of iterations used =            8  plain     mixing
     Exchange-correlation      = BLYP ( 1  3  1  3 0 0)
     nstep                     =           50


     celldm(1)=  20.000000  celldm(2)=   0.000000  celldm(3)=   0.000000
     celldm(4)=   0.000000  celldm(5)=   0.000000  celldm(6)=   0.000000

     crystal axes: (cart. coord. in units of alat)
               a(1) = (   1.000000   0.000000   0.000000 )  
               a(2) = (   0.000000   1.000000   0.000000 )  
               a(3) = (   0.000000   0.000000   1.000000 )  

     reciprocal axes: (cart. coord. in units 2 pi/alat)
               b(1) = (  1.000000  0.000000  0.000000 )  
               b(2) = (  0.000000  1.000000  0.000000 )  
               b(3) = (  0.000000  0.000000  1.000000 )  


     PseudoPot. # 1 for  H read from file:
     ../H.blyp-hgh.UPF
     MD5 check sum: c576e69559cde411e611be972c763230
     Pseudo is Norm-conserving, Zval =  1.0
     Generated in analytical, separable form
     Using radial grid of  929 points,  0 beta functions with: 

     PseudoPot. # 2 for  O read from file:
     ../O.blyp-hgh.UPF
     MD5 check sum: d0b7156309aa9befef28faac7bc56342
     Pseudo is Norm-conserving, Zval =  6.0
     Generated in analytical, separable form
     Using radial grid of 1095 points,  1 beta functions with: 
                l(1) =   0

     atomic species   valence    mass     pseudopotential
        H              1.00     1.01000      H( 1.00)
        O              6.00    16.00000      O( 1.00)

     No symmetry found



   Cartesian axes

     site n.     atom                  positions (alat units)
         1           H   tau(   1) = (  -0.0009132  -0.0718897   0.0654394  )
         2           H   tau(   2) = (  -0.0862280   0.0165792   0.0093875  )
         3           O   tau(   3) = (   0.0055008   0.0034915   0.0008545  )

     number of k points=     1  Marzari-Vanderbilt smearing, width (Ry)=  0.0250
                       cart. coord. in units 2pi/alat
        k(    1) = (   0.0000000   0.0000000   0.0000000), wk =   2.0000000

     Dense  grid:   922329 G-vectors     FFT dimensions: ( 125, 125, 125)

     Estimated max dynamical RAM per process >      31.67Mb

     Estimated total allocated dynamical RAM >     886.64Mb

     Initial potential from superposition of free atoms
     Check: negative starting charge=   -0.016039

     starting charge    7.99998, renormalised to    8.00000

     negative rho (up, down):  1.604E-02 0.000E+00
     Starting wfc are    6 randomized atomic wfcs +    2 random wfc

     total cpu time spent up to now is        0.7 secs

     per-process dynamical memory:    33.5 Mb

     Self-consistent Calculation

     iteration #  1     ecut=    90.00 Ry     beta=0.70
     Davidson diagonalization with overlap
     ethr =  1.00E-02,  avg # of iterations =  7.0

     negative rho (up, down):  4.663E-03 0.000E+00

     total cpu time spent up to now is        1.0 secs

     total energy              =     -34.03242074 Ry
     Harris-Foulkes estimate   =     -34.24329081 Ry
     estimated scf accuracy    <       0.32257665 Ry

     iteration #  2     ecut=    90.00 Ry     beta=0.70
     Davidson diagonalization with overlap
     ethr =  4.03E-03,  avg # of iterations =  2.0

     negative rho (up, down):  2.863E-03 0.000E+00

     total cpu time spent up to now is        1.2 secs

     total energy              =     -34.07412713 Ry
     Harris-Foulkes estimate   =     -34.26144618 Ry
     estimated scf accuracy    <       0.41560061 Ry

     iteration #  3     ecut=    90.00 Ry     beta=0.70
     Davidson diagonalization with overlap
     ethr =  4.03E-03,  avg # of iterations =  2.0

     negative rho (up, down):  1.416E-04 0.000E+00

     total cpu time spent up to now is        1.3 secs

     total energy              =     -34.16559448 Ry
     Harris-Foulkes estimate   =     -34.16636872 Ry
     estimated scf accuracy    <       0.00606608 Ry

     iteration #  4     ecut=    90.00 Ry     beta=0.70
     Davidson diagonalization with overlap
     ethr =  7.58E-05,  avg # of iterations =  8.0

     negative rho (up, down):  4.190E-06 0.000E+00

     total cpu time spent up to now is        1.6 secs

     total energy              =     -34.16720698 Ry
     Harris-Foulkes estimate   =     -34.16731661 Ry
     estimated scf accuracy    <       0.00030033 Ry

     iteration #  5     ecut=    90.00 Ry     beta=0.70
     Davidson diagonalization with overlap
     ethr =  3.75E-06,  avg # of iterations = 11.0

     negative rho (up, down):  6.028E-07 0.000E+00

     total cpu time spent up to now is        1.9 secs

     total energy              =     -34.16722576 Ry
     Harris-Foulkes estimate   =     -34.16723191 Ry
     estimated scf accuracy    <       0.00002471 Ry

     iteration #  6     ecut=    90.00 Ry     beta=0.70
     Davidson diagonalization with overlap
     ethr =  3.09E-07,  avg # of iterations =  2.0

     negative rho (up, down):  4.260E-07 0.000E+00

     total cpu time spent up to now is        2.1 secs

     total energy              =     -34.16722818 Ry
     Harris-Foulkes estimate   =     -34.16722804 Ry
     estimated scf accuracy    <       0.00000188 Ry

     iteration #  7     ecut=    90.00 Ry     beta=0.70
     Davidson diagonalization with overlap
     ethr =  2.35E-08,  avg # of iterations =  2.0

     total cpu time spent up to now is        2.3 secs

     total energy              =     -34.16722813 Ry
     Harris-Foulkes estimate   =     -34.16722852 Ry
     estimated scf accuracy    <       0.00000013 Ry

     iteration #  8     ecut=    90.00 Ry     beta=0.70
     Davidson diagonalization with overlap
     ethr =  1.59E-09,  avg # of iterations =  3.0

     total cpu time spent up to now is        2.5 secs

     total energy              =     -34.16722804 Ry
     Harris-Foulkes estimate   =     -34.16722817 Ry
     estimated scf accuracy    <       0.00000001 Ry

     iteration #  9     ecut=    90.00 Ry     beta=0.70
     Davidson diagonalization with overlap
     ethr =  1.38E-10,  avg # of iterations =  1.0

     total cpu time spent up to now is        2.7 secs

     End of self-consistent calculation

          k = 0.0000 0.0000 0.0000 (115313 PWs)   bands (ev):

   -24.9873 -11.7099  -9.8529  -7.0865  -1.1372   0.3560   0.6863   1.1112

     the Fermi energy is    -5.0733 ev

!    total energy              =     -34.16722803 Ry
     Harris-Foulkes estimate   =     -34.16722804 Ry
     estimated scf accuracy    <          7.5E-10 Ry

     The total energy is the sum of the following terms:

     one-electron contribution =     -62.91422189 Ry
     hartree contribution      =      32.87200977 Ry
     xc contribution           =      -8.29311658 Ry
     ewald contribution        =       4.16810067 Ry
     smearing contrib. (-TS)   =       0.00000000 Ry

     convergence has been achieved in   9 iterations

     Forces acting on atoms (Ry/au):

     atom    1 type  1   force =     0.04492117    0.06208147   -0.06188826
     atom    2 type  1   force =    -0.00647614    0.03298925   -0.02642145
     atom    3 type  2   force =    -0.03844504   -0.09507072    0.08830971

     Total force =     0.172759     Total SCF correction =     0.000075

     BFGS Geometry Optimization

     number of scf cycles    =   1
     number of bfgs steps    =   0

     energy   new            =     -34.1672280280 Ry

     new trust radius        =       0.1353331762 bohr
     new conv_thr            =       0.0000000100 Ry


ATOMIC_POSITIONS (angstrom)
H        0.014106261  -0.727995901   0.659831143
H       -0.916025023   0.192924161   0.085371370
O        0.037873762  -0.013357260   0.055775487



     Writing output data file pwscf.save
     Check: negative starting charge=   -0.016039
     NEW-OLD atomic charge density approx. for the potential
     Check: negative starting charge=   -0.016032

     negative rho (up, down):  2.309E-02 0.000E+00

     total cpu time spent up to now is        3.4 secs

     per-process dynamical memory:    45.8 Mb

     Self-consistent Calculation

     iteration #  1     ecut=    90.00 Ry     beta=0.70
     Davidson diagonalization with overlap
     ethr =  1.00E-06,  avg # of iterations = 18.0

     negative rho (up, down):  6.227E-03 0.000E+00

     total cpu time spent up to now is        3.9 secs

     total energy              =     -33.92021567 Ry
     Harris-Foulkes estimate   =     -34.42837703 Ry
     estimated scf accuracy    <       0.06357312 Ry

     iteration #  2     ecut=    90.00 Ry     beta=0.70
     Davidson diagonalization with overlap
     ethr =  7.95E-04,  avg # of iterations =  3.0

     negative rho (up, down):  4.255E-03 0.000E+00

     total cpu time spent up to now is        4.1 secs

     total energy              =     -34.14866905 Ry
     Harris-Foulkes estimate   =     -34.20645535 Ry
     estimated scf accuracy    <       0.16031010 Ry

     iteration #  3     ecut=    90.00 Ry     beta=0.70
     Davidson diagonalization with overlap
     ethr =  7.95E-04,  avg # of iterations =  2.0

     negative rho (up, down):  2.606E-03 0.000E+00

     total cpu time spent up to now is        4.3 secs

     total energy              =     -34.17086328 Ry
     Harris-Foulkes estimate   =     -34.16905085 Ry
     estimated scf accuracy    <       0.00713591 Ry

     iteration #  4     ecut=    90.00 Ry     beta=0.70
     Davidson diagonalization with overlap
     ethr =  8.92E-05,  avg # of iterations =  4.0

     negative rho (up, down):  1.615E-04 0.000E+00

     total cpu time spent up to now is        4.6 secs

     total energy              =     -34.17184747 Ry
     Harris-Foulkes estimate   =     -34.17105013 Ry
     estimated scf accuracy    <       0.00309009 Ry

     iteration #  5     ecut=    90.00 Ry     beta=0.70
     Davidson diagonalization with overlap
     ethr =  3.86E-05,  avg # of iterations = 14.0

     negative rho (up, down):  9.284E-05 0.000E+00

     total cpu time spent up to now is        4.8 secs

     total energy              =     -34.17653665 Ry
     Harris-Foulkes estimate   =     -34.17655183 Ry
     estimated scf accuracy    <       0.00004871 Ry

     iteration #  6     ecut=    90.00 Ry     beta=0.70
     Davidson diagonalization with overlap
     ethr =  6.09E-07,  avg # of iterations = 10.0

     negative rho (up, down):  2.002E-05 0.000E+00

     total cpu time spent up to now is        5.1 secs

     total energy              =     -34.17655110 Ry
     Harris-Foulkes estimate   =     -34.17655432 Ry
     estimated scf accuracy    <       0.00001061 Ry

     iteration #  7     ecut=    90.00 Ry     beta=0.70
     Davidson diagonalization with overlap
     ethr =  1.33E-07,  avg # of iterations =  2.0

     negative rho (up, down):  1.604E-07 0.000E+00

     total cpu time spent up to now is        5.3 secs

     total energy              =     -34.17655118 Ry
     Harris-Foulkes estimate   =     -34.17655218 Ry
     estimated scf accuracy    <       0.00000116 Ry

     iteration #  8     ecut=    90.00 Ry     beta=0.70
     Davidson diagonalization with overlap
     ethr =  1.46E-08,  avg # of iterations =  2.0

     negative rho (up, down):  1.123E-08 0.000E+00

     total cpu time spent up to now is        5.5 secs

     total energy              =     -34.17655140 Ry
     Harris-Foulkes estimate   =     -34.17655137 Ry
     estimated scf accuracy    <       0.00000001 Ry

     iteration #  9     ecut=    90.00 Ry     beta=0.70
     Davidson diagonalization with overlap
     ethr =  1.44E-10,  avg # of iterations =  2.0

     total cpu time spent up to now is        5.7 secs

     End of self-consistent calculation

          k = 0.0000 0.0000 0.0000 (115313 PWs)   bands (ev):

   -25.5184 -12.6297  -9.5549  -7.1600  -0.9042   0.4335   0.8112   1.1257

     the Fermi energy is    -5.1952 ev

!    total energy              =     -34.17655138 Ry
     Harris-Foulkes estimate   =     -34.17655140 Ry
     estimated scf accuracy    <          5.8E-10 Ry

     The total energy is the sum of the following terms:

     one-electron contribution =     -64.28728821 Ry
     hartree contribution      =      33.54010008 Ry
     xc contribution           =      -8.40251012 Ry
     ewald contribution        =       4.97314687 Ry
     smearing contrib. (-TS)   =       0.00000000 Ry

     convergence has been achieved in   9 iterations

     Forces acting on atoms (Ry/au):

     atom    1 type  1   force =     0.02297792   -0.08414181    0.06605799
     atom    2 type  1   force =    -0.01257593    0.02252242   -0.01567827
     atom    3 type  2   force =    -0.01040199    0.06161939   -0.05037972

     Total force =     0.139018     Total SCF correction =     0.000056

     number of scf cycles    =   2
     number of bfgs steps    =   1

     energy   old            =     -34.1672280280 Ry
     energy   new            =     -34.1765513797 Ry

     CASE: energy  _new < energy  _old

     new trust radius        =       0.0603576029 bohr
     new conv_thr            =       0.0000000084 Ry


ATOMIC_POSITIONS (angstrom)
H        0.025005023  -0.752050769   0.677795984
H       -0.920722749   0.202834242   0.078230873
O        0.031672726   0.000787526   0.044951143



     Writing output data file pwscf.save
     Check: negative starting charge=   -0.016032
     NEW-OLD atomic charge density approx. for the potential
     Check: negative starting charge=   -0.016036

     negative rho (up, down):  6.344E-03 0.000E+00

     total cpu time spent up to now is        6.2 secs

     per-process dynamical memory:    45.8 Mb

     Self-consistent Calculation

     iteration #  1     ecut=    90.00 Ry     beta=0.70
     Davidson diagonalization with overlap
     ethr =  1.00E-06,  avg # of iterations = 20.0

     negative rho (up, down):  1.662E-03 0.000E+00

     total cpu time spent up to now is        6.7 secs

     total energy              =     -34.17658809 Ry
     Harris-Foulkes estimate   =     -34.17108132 Ry
     estimated scf accuracy    <       0.00164157 Ry

     iteration #  2     ecut=    90.00 Ry     beta=0.70
     Davidson diagonalization with overlap
     ethr =  2.05E-05,  avg # of iterations = 14.0

     negative rho (up, down):  9.808E-04 0.000E+00

     total cpu time spent up to now is        7.0 secs

     total energy              =     -34.18130706 Ry
     Harris-Foulkes estimate   =     -34.18159819 Ry
     estimated scf accuracy    <       0.00119391 Ry

     iteration #  3     ecut=    90.00 Ry     beta=0.70
     Davidson diagonalization with overlap
     ethr =  1.49E-05,  avg # of iterations =  9.0

     negative rho (up, down):  2.618E-04 0.000E+00

     total cpu time spent up to now is        7.2 secs

     total energy              =     -34.18162708 Ry
     Harris-Foulkes estimate   =     -34.18160151 Ry
     estimated scf accuracy    <       0.00003800 Ry

     iteration #  4     ecut=    90.00 Ry     beta=0.70
     Davidson diagonalization with overlap
     ethr =  4.75E-07,  avg # of iterations =  9.0

     negative rho (up, down):  1.535E-05 0.000E+00

     total cpu time spent up to now is        7.5 secs

     total energy              =     -34.18163911 Ry
     Harris-Foulkes estimate   =     -34.18163581 Ry
     estimated scf accuracy    <       0.00000069 Ry

     iteration #  5     ecut=    90.00 Ry     beta=0.70
     Davidson diagonalization with overlap
     ethr =  8.59E-09,  avg # of iterations = 10.0

     negative rho (up, down):  7.366E-08 0.000E+00

     total cpu time spent up to now is        7.7 secs

     total energy              =     -34.18163937 Ry
     Harris-Foulkes estimate   =     -34.18163935 Ry
     estimated scf accuracy    <       0.00000003 Ry

     iteration #  6     ecut=    90.00 Ry     beta=0.70
     Davidson diagonalization with overlap
     ethr =  3.34E-10,  avg # of iterations =  2.0

     total cpu time spent up to now is        7.9 secs

     End of self-consistent calculation

          k = 0.0000 0.0000 0.0000 (115313 PWs)   bands (ev):

   -25.2333 -12.4724  -9.4802  -7.1120  -0.9575   0.4193   0.7610   1.1210

     the Fermi energy is    -5.1274 ev

!    total energy              =     -34.18163936 Ry
     Harris-Foulkes estimate   =     -34.18163939 Ry
     estimated scf accuracy    <          1.8E-09 Ry

     The total energy is the sum of the following terms:

     one-electron contribution =     -63.74472427 Ry
     hartree contribution      =      33.28261407 Ry
     xc contribution           =      -8.36003635 Ry
     ewald contribution        =       4.64050718 Ry
     smearing contrib. (-TS)   =       0.00000000 Ry

     convergence has been achieved in   6 iterations

     Forces acting on atoms (Ry/au):

     atom    1 type  1   force =     0.01847357   -0.00337275   -0.00120604
     atom    2 type  1   force =    -0.01728448    0.01866475   -0.01200152
     atom    3 type  2   force =    -0.00118909   -0.01529200    0.01320756

     Total force =     0.039433     Total SCF correction =     0.000263

     number of scf cycles    =   3
     number of bfgs steps    =   2

     energy   old            =     -34.1765513797 Ry
     energy   new            =     -34.1816393563 Ry

     CASE: energy  _new < energy  _old

     new trust radius        =       0.0401144882 bohr
     new conv_thr            =       0.0000000019 Ry


ATOMIC_POSITIONS (angstrom)
H        0.040416801  -0.760731996   0.681771163
H       -0.932190266   0.217666114   0.068274683
O        0.027728465  -0.005363118   0.050932154



     Writing output data file pwscf.save
     Check: negative starting charge=   -0.016036
     NEW-OLD atomic charge density approx. for the potential
     Check: negative starting charge=   -0.016014

     negative rho (up, down):  3.024E-03 0.000E+00

     total cpu time spent up to now is        8.6 secs

     per-process dynamical memory:    45.8 Mb

     Self-consistent Calculation

     iteration #  1     ecut=    90.00 Ry     beta=0.70
     Davidson diagonalization with overlap
     c_bands:  1 eigenvalues not converged
     ethr =  1.00E-06,  avg # of iterations = 20.0

     negative rho (up, down):  7.823E-04 0.000E+00

     total cpu time spent up to now is        9.0 secs

     total energy              =     -34.17888575 Ry
     Harris-Foulkes estimate   =     -34.17699831 Ry
     estimated scf accuracy    <       0.00015041 Ry

     iteration #  2     ecut=    90.00 Ry     beta=0.70
     Davidson diagonalization with overlap
     ethr =  1.88E-06,  avg # of iterations = 12.0

     negative rho (up, down):  3.528E-04 0.000E+00

     total cpu time spent up to now is        9.3 secs

     total energy              =     -34.18299849 Ry
     Harris-Foulkes estimate   =     -34.18300698 Ry
     estimated scf accuracy    <       0.00004601 Ry

     iteration #  3     ecut=    90.00 Ry     beta=0.70
     Davidson diagonalization with overlap
     ethr =  5.75E-07,  avg # of iterations =  3.0

     negative rho (up, down):  3.887E-05 0.000E+00

     total cpu time spent up to now is        9.5 secs

     total energy              =     -34.18301402 Ry
     Harris-Foulkes estimate   =     -34.18301671 Ry
     estimated scf accuracy    <       0.00001321 Ry

     iteration #  4     ecut=    90.00 Ry     beta=0.70
     Davidson diagonalization with overlap
     ethr =  1.65E-07,  avg # of iterations = 20.0

     negative rho (up, down):  5.500E-07 0.000E+00

     total cpu time spent up to now is        9.8 secs

     total energy              =     -34.18301625 Ry
     Harris-Foulkes estimate   =     -34.18301673 Ry
     estimated scf accuracy    <       0.00000013 Ry

     iteration #  5     ecut=    90.00 Ry     beta=0.70
     Davidson diagonalization with overlap
     ethr =  1.63E-09,  avg # of iterations =  2.0

     total cpu time spent up to now is       10.0 secs

     total energy              =     -34.18301629 Ry
     Harris-Foulkes estimate   =     -34.18301631 Ry
     estimated scf accuracy    <          5.6E-09 Ry

     iteration #  6     ecut=    90.00 Ry     beta=0.70
     Davidson diagonalization with overlap
     ethr =  6.97E-11,  avg # of iterations =  2.0

     total cpu time spent up to now is       10.2 secs

     End of self-consistent calculation

          k = 0.0000 0.0000 0.0000 (115313 PWs)   bands (ev):

   -25.1165 -12.5504  -9.3386  -7.0873  -0.9660   0.4180   0.7398   1.1215

     the Fermi energy is    -5.0979 ev

!    total energy              =     -34.18301630 Ry
     Harris-Foulkes estimate   =     -34.18301629 Ry
     estimated scf accuracy    <          2.1E-10 Ry

     The total energy is the sum of the following terms:

     one-electron contribution =     -63.58853536 Ry
     hartree contribution      =      33.21204746 Ry
     xc contribution           =      -8.34872245 Ry
     ewald contribution        =       4.54219405 Ry
     smearing contrib. (-TS)   =       0.00000000 Ry

     convergence has been achieved in   6 iterations

     Forces acting on atoms (Ry/au):

     atom    1 type  1   force =     0.00933516    0.00108044   -0.00271596
     atom    2 type  1   force =     0.00603545    0.00642273   -0.00642425
     atom    3 type  2   force =    -0.01537060   -0.00750317    0.00914021

     Total force =     0.024305     Total SCF correction =     0.000047

     number of scf cycles    =   4
     number of bfgs steps    =   3

     energy   old            =     -34.1816393563 Ry
     energy   new            =     -34.1830163015 Ry

     CASE: energy  _new < energy  _old

     new trust radius        =       0.0393793309 bohr
     new conv_thr            =       0.0000000014 Ry


ATOMIC_POSITIONS (angstrom)
H        0.059146982  -0.769245418   0.685080405
H       -0.934176411   0.233263865   0.055879372
O        0.010984430  -0.012447447   0.060018223



     Writing output data file pwscf.save
     Check: negative starting charge=   -0.016014
     NEW-OLD atomic charge density approx. for the potential
     Check: negative starting charge=   -0.015988

     negative rho (up, down):  6.848E-03 0.000E+00

     total cpu time spent up to now is       10.7 secs

     per-process dynamical memory:    45.8 Mb

     Self-consistent Calculation

     iteration #  1     ecut=    90.00 Ry     beta=0.70
     Davidson diagonalization with overlap
     c_bands:  1 eigenvalues not converged
     ethr =  1.00E-06,  avg # of iterations = 20.0

     negative rho (up, down):  1.791E-03 0.000E+00

     total cpu time spent up to now is       11.2 secs

     total energy              =     -34.17878454 Ry
     Harris-Foulkes estimate   =     -34.17250047 Ry
     estimated scf accuracy    <       0.00032647 Ry

     iteration #  2     ecut=    90.00 Ry     beta=0.70
     Davidson diagonalization with overlap
     ethr =  4.08E-06,  avg # of iterations = 13.0

     negative rho (up, down):  1.020E-03 0.000E+00

     total cpu time spent up to now is       11.5 secs

     total energy              =     -34.17930972 Ry
     Harris-Foulkes estimate   =     -34.17897289 Ry
     estimated scf accuracy    <       0.00022017 Ry

     iteration #  3     ecut=    90.00 Ry     beta=0.70
     Davidson diagonalization with overlap
     ethr =  2.75E-06,  avg # of iterations =  6.0

     negative rho (up, down):  8.136E-05 0.000E+00

     total cpu time spent up to now is       11.8 secs

     total energy              =     -34.18349007 Ry
     Harris-Foulkes estimate   =     -34.18344304 Ry
     estimated scf accuracy    <       0.00001140 Ry

     iteration #  4     ecut=    90.00 Ry     beta=0.70
     Davidson diagonalization with overlap
     c_bands:  1 eigenvalues not converged
     ethr =  1.43E-07,  avg # of iterations = 20.0

     negative rho (up, down):  8.747E-07 0.000E+00

     total cpu time spent up to now is       12.1 secs

     total energy              =     -34.18349177 Ry
     Harris-Foulkes estimate   =     -34.18349385 Ry
     estimated scf accuracy    <       0.00000014 Ry

     iteration #  5     ecut=    90.00 Ry     beta=0.70
     Davidson diagonalization with overlap
     ethr =  1.79E-09,  avg # of iterations = 10.0

     total cpu time spent up to now is       12.3 secs

     total energy              =     -34.18349165 Ry
     Harris-Foulkes estimate   =     -34.18349185 Ry
     estimated scf accuracy    <          7.9E-09 Ry

     iteration #  6     ecut=    90.00 Ry     beta=0.70
     Davidson diagonalization with overlap
     ethr =  9.92E-11,  avg # of iterations =  2.0

     total cpu time spent up to now is       12.5 secs

     End of self-consistent calculation

          k = 0.0000 0.0000 0.0000 (115313 PWs)   bands (ev):

   -25.1020 -12.7938  -9.1453  -7.0761  -0.9407   0.4277   0.7415   1.1247

     the Fermi energy is    -5.0919 ev

!    total energy              =     -34.18349165 Ry
     Harris-Foulkes estimate   =     -34.18349166 Ry
     estimated scf accuracy    <          3.1E-10 Ry

     The total energy is the sum of the following terms:

     one-electron contribution =     -63.68673095 Ry
     hartree contribution      =      33.26500058 Ry
     xc contribution           =      -8.35739925 Ry
     ewald contribution        =       4.59563797 Ry
     smearing contrib. (-TS)   =       0.00000000 Ry

     convergence has been achieved in   6 iterations

     Forces acting on atoms (Ry/au):

     atom    1 type  1   force =    -0.00223271    0.00346545   -0.00230356
     atom    2 type  1   force =    -0.00833491    0.00098836    0.00115641
     atom    3 type  2   force =     0.01056761   -0.00445381    0.00114715

     Total force =     0.015064     Total SCF correction =     0.000031

     number of scf cycles    =   5
     number of bfgs steps    =   4

     energy   old            =     -34.1830163015 Ry
     energy   new            =     -34.1834916508 Ry

     CASE: energy  _new < energy  _old

     new trust radius        =       0.0082895180 bohr
     new conv_thr            =       0.0000000005 Ry


ATOMIC_POSITIONS (angstrom)
H        0.056300887  -0.767481350   0.684277008
H       -0.935620376   0.231735526   0.057567243
O        0.015274489  -0.012683176   0.059133750



     Writing output data file pwscf.save
     Check: negative starting charge=   -0.015988
     NEW-OLD atomic charge density approx. for the potential
     Check: negative starting charge=   -0.015988

     negative rho (up, down):  1.273E-03 0.000E+00

     total cpu time spent up to now is       13.1 secs

     per-process dynamical memory:    45.8 Mb

     Self-consistent Calculation

     iteration #  1     ecut=    90.00 Ry     beta=0.70
     Davidson diagonalization with overlap
     ethr =  1.00E-06,  avg # of iterations = 15.0

     negative rho (up, down):  3.189E-04 0.000E+00

     total cpu time spent up to now is       13.7 secs

     total energy              =     -34.18354499 Ry
     Harris-Foulkes estimate   =     -34.18341253 Ry
     estimated scf accuracy    <       0.00002250 Ry

     iteration #  2     ecut=    90.00 Ry     beta=0.70
     Davidson diagonalization with overlap
     ethr =  2.81E-07,  avg # of iterations = 14.0

     negative rho (up, down):  1.683E-04 0.000E+00

     total cpu time spent up to now is       14.0 secs

     total energy              =     -34.18355075 Ry
     Harris-Foulkes estimate   =     -34.18355670 Ry
     estimated scf accuracy    <       0.00001256 Ry

     iteration #  3     ecut=    90.00 Ry     beta=0.70
     Davidson diagonalization with overlap
     ethr =  1.57E-07,  avg # of iterations =  2.0

     negative rho (up, down):  3.124E-05 0.000E+00

     total cpu time spent up to now is       14.2 secs

     total energy              =     -34.18355764 Ry
     Harris-Foulkes estimate   =     -34.18355426 Ry
     estimated scf accuracy    <       0.00000086 Ry

     iteration #  4     ecut=    90.00 Ry     beta=0.70
     Davidson diagonalization with overlap
     ethr =  1.08E-08,  avg # of iterations =  3.0

     negative rho (up, down):  2.749E-07 0.000E+00

     total cpu time spent up to now is       14.4 secs

     total energy              =     -34.18355845 Ry
     Harris-Foulkes estimate   =     -34.18355788 Ry
     estimated scf accuracy    <       0.00000002 Ry

     iteration #  5     ecut=    90.00 Ry     beta=0.70
     Davidson diagonalization with overlap
     ethr =  2.22E-10,  avg # of iterations =  2.0

     total cpu time spent up to now is       14.5 secs

     End of self-consistent calculation

          k = 0.0000 0.0000 0.0000 (115313 PWs)   bands (ev):

   -25.0944 -12.7478  -9.1742  -7.0763  -0.9467   0.4260   0.7395   1.1255

     the Fermi energy is    -5.0893 ev

!    total energy              =     -34.18355853 Ry
     Harris-Foulkes estimate   =     -34.18355847 Ry
     estimated scf accuracy    <          4.6E-10 Ry

     The total energy is the sum of the following terms:

     one-electron contribution =     -63.65098361 Ry
     hartree contribution      =      33.24705307 Ry
     xc contribution           =      -8.35448289 Ry
     ewald contribution        =       4.57485490 Ry
     smearing contrib. (-TS)   =       0.00000000 Ry

     convergence has been achieved in   5 iterations

     Forces acting on atoms (Ry/au):

     atom    1 type  1   force =    -0.00036817    0.00019817    0.00015847
     atom    2 type  1   force =     0.00112221   -0.00005590    0.00013853
     atom    3 type  2   force =    -0.00075405   -0.00014227   -0.00029700

     Total force =     0.001469     Total SCF correction =     0.000387
     SCF correction compared to forces is large: reduce conv_thr to get better values

     number of scf cycles    =   6
     number of bfgs steps    =   5

     energy   old            =     -34.1834916508 Ry
     energy   new            =     -34.1835585261 Ry

     CASE: energy  _new < energy  _old

     new trust radius        =       0.0010445478 bohr
     new conv_thr            =            1.0E-10 Ry


ATOMIC_POSITIONS (angstrom)
H        0.055857545  -0.767238532   0.684289322
H       -0.935168334   0.231527841   0.057808196
O        0.015265789  -0.012718309   0.058880481



     Writing output data file pwscf.save
     Check: negative starting charge=   -0.015988
     NEW-OLD atomic charge density approx. for the potential
     Check: negative starting charge=   -0.015988

     negative rho (up, down):  3.843E-05 0.000E+00

     total cpu time spent up to now is       15.1 secs

     per-process dynamical memory:    45.8 Mb

     Self-consistent Calculation

     iteration #  1     ecut=    90.00 Ry     beta=0.70
     Davidson diagonalization with overlap
     ethr =  1.00E-06,  avg # of iterations =  2.0

     Threshold (ethr) on eigenvalues was too large:
     Diagonalizing with lowered threshold

     Davidson diagonalization with overlap
     ethr =  2.23E-09,  avg # of iterations =  2.0

     negative rho (up, down):  5.013E-06 0.000E+00

     total cpu time spent up to now is       15.4 secs

     total energy              =     -34.18355913 Ry
     Harris-Foulkes estimate   =     -34.18355841 Ry
     estimated scf accuracy    <       0.00000022 Ry

     iteration #  2     ecut=    90.00 Ry     beta=0.70
     Davidson diagonalization with overlap
     ethr =  2.75E-09,  avg # of iterations =  2.0

     negative rho (up, down):  1.704E-06 0.000E+00

     total cpu time spent up to now is       15.6 secs

     total energy              =     -34.18355935 Ry
     Harris-Foulkes estimate   =     -34.18355924 Ry
     estimated scf accuracy    <       0.00000014 Ry

     iteration #  3     ecut=    90.00 Ry     beta=0.70
     Davidson diagonalization with overlap
     ethr =  1.70E-09,  avg # of iterations =  2.0

     negative rho (up, down):  1.391E-08 0.000E+00

     total cpu time spent up to now is       15.8 secs

     total energy              =     -34.18355949 Ry
     Harris-Foulkes estimate   =     -34.18355938 Ry
     estimated scf accuracy    <          7.9E-09 Ry

     iteration #  4     ecut=    90.00 Ry     beta=0.70
     Davidson diagonalization with overlap
     ethr =  9.83E-11,  avg # of iterations =  2.0

     total cpu time spent up to now is       16.0 secs

     total energy              =     -34.18355949 Ry
     Harris-Foulkes estimate   =     -34.18355949 Ry
     estimated scf accuracy    <          1.1E-10 Ry

     iteration #  5     ecut=    90.00 Ry     beta=0.70
     Davidson diagonalization with overlap
     ethr =  1.31E-12,  avg # of iterations =  3.0

     total cpu time spent up to now is       16.1 secs

     End of self-consistent calculation

          k = 0.0000 0.0000 0.0000 (115313 PWs)   bands (ev):

   -25.0982 -12.7480  -9.1770  -7.0771  -0.9461   0.4257   0.7401   1.1252

     the Fermi energy is    -5.0905 ev

!    total energy              =     -34.18355948 Ry
     Harris-Foulkes estimate   =     -34.18355949 Ry
     estimated scf accuracy    <          8.0E-12 Ry

     The total energy is the sum of the following terms:

     one-electron contribution =     -63.65759920 Ry
     hartree contribution      =      33.25011504 Ry
     xc contribution           =      -8.35498307 Ry
     ewald contribution        =       4.57890775 Ry
     smearing contrib. (-TS)   =       0.00000000 Ry

     convergence has been achieved in   5 iterations

     Forces acting on atoms (Ry/au):

     atom    1 type  1   force =    -0.00030665    0.00007453    0.00026259
     atom    2 type  1   force =     0.00008432    0.00032886    0.00004909
     atom    3 type  2   force =     0.00022232   -0.00040339   -0.00031168

     Total force =     0.000772     Total SCF correction =     0.000025

     bfgs converged in   7 scf cycles and   6 bfgs steps
     (criteria: energy <  1.0E-04, force <  1.0E-03)

     End of BFGS Geometry Optimization

     Final energy   =     -34.1835594820 Ry
Begin final coordinates

ATOMIC_POSITIONS (angstrom)
H        0.055857545  -0.767238532   0.684289322
H       -0.935168334   0.231527841   0.057808196
O        0.015265789  -0.012718309   0.058880481
End final coordinates



     Writing output data file pwscf.save
 
     init_run     :      0.52s CPU      0.56s WALL (       1 calls)
     electrons    :     10.84s CPU     12.50s WALL (       7 calls)
     update_pot   :      1.55s CPU      2.11s WALL (       6 calls)
     forces       :      0.47s CPU      0.47s WALL (       7 calls)

     Called by init_run:
     wfcinit      :      0.02s CPU      0.04s WALL (       1 calls)
     potinit      :      0.11s CPU      0.11s WALL (       1 calls)

     Called by electrons:
     c_bands      :      5.53s CPU      5.68s WALL (      47 calls)
     sum_band     :      0.96s CPU      0.99s WALL (      47 calls)
     v_of_rho     :      2.71s CPU      2.75s WALL (      53 calls)
     mix_rho      :      0.96s CPU      1.85s WALL (      47 calls)

     Called by c_bands:
     init_us_2    :      0.03s CPU      0.03s WALL (      95 calls)
     cegterg      :      5.51s CPU      5.64s WALL (      47 calls)

     Called by sum_band:

     Called by *egterg:
     h_psi        :      4.69s CPU      4.80s WALL (     386 calls)
     g_psi        :      0.04s CPU      0.04s WALL (     338 calls)
     cdiaghg      :      0.10s CPU      0.10s WALL (     378 calls)

     Called by h_psi:
     h_psi:pot    :      4.64s CPU      4.75s WALL (     386 calls)
     h_psi:calbec :      0.05s CPU      0.06s WALL (     386 calls)
     vloc_psi     :      4.55s CPU      4.66s WALL (     386 calls)
     add_vuspsi   :      0.03s CPU      0.03s WALL (     386 calls)

     General routines
     calbec       :      0.06s CPU      0.06s WALL (     414 calls)
     fft          :      1.91s CPU      2.06s WALL (     598 calls)
     fftw         :      4.48s CPU      4.59s WALL (    3424 calls)
     davcio       :      0.13s CPU      0.87s WALL (     346 calls)
 
     Parallel routines
     fft_scatter  :      2.30s CPU      2.55s WALL (    4022 calls)
 
     PWSCF        :    13.87s CPU        16.52s WALL

 
   This run was terminated on:   2:43:59  28Jul2018            

=------------------------------------------------------------------------------=
   JOB DONE.
=------------------------------------------------------------------------------=
