
     Program PWSCF v.6.0 (svn rev. 13079) starts on 28Jul2018 at  2:52:22 

     This program is part of the open-source Quantum ESPRESSO suite
     for quantum simulation of materials; please cite
         "P. Giannozzi et al., J. Phys.:Condens. Matter 21 395502 (2009);
          URL http://www.quantum-espresso.org", 
     in publications or presentations arising from this work. More details at
     http://www.quantum-espresso.org/quote

     Parallel version (MPI), running on    28 processors
     R & G space division:  proc/nbgrp/npool/nimage =      28
     Reading input from ../QMCmins/relax-99.in

     Current dimensions of program PWSCF are:
     Max number of different atomic species (ntypx) = 10
     Max number of k-points (npk) =  40000
     Max angular momentum in pseudopotentials (lmaxx) =  3
     Message from routine iosys:
     pot_extrapolation='second-order' not available, using 'atomic'
     Message from routine iosys:
     wfc_extrapolation='second-order' not available, using 'atomic'

     Subspace diagonalization in iterative solution of the eigenvalue problem:
     a serial algorithm will be used

 
     Parallelization info
     --------------------
     sticks:   dense  smooth     PW     G-vecs:    dense   smooth      PW
     Min         408     408    102                32936    32936    4116
     Max         409     409    103                32943    32943    4121
     Sum       11449   11449   2869               922329   922329  115313
 


     bravais-lattice index     =            1
     lattice parameter (alat)  =      20.0000  a.u.
     unit-cell volume          =    8000.0000 (a.u.)^3
     number of atoms/cell      =            3
     number of atomic types    =            2
     number of electrons       =         8.00
     number of Kohn-Sham states=            8
     kinetic-energy cutoff     =      90.0000  Ry
     charge density cutoff     =     360.0000  Ry
     convergence threshold     =      1.0E-08
     mixing beta               =       0.7000
     number of iterations used =            8  plain     mixing
     Exchange-correlation      = BLYP ( 1  3  1  3 0 0)
     nstep                     =           50


     celldm(1)=  20.000000  celldm(2)=   0.000000  celldm(3)=   0.000000
     celldm(4)=   0.000000  celldm(5)=   0.000000  celldm(6)=   0.000000

     crystal axes: (cart. coord. in units of alat)
               a(1) = (   1.000000   0.000000   0.000000 )  
               a(2) = (   0.000000   1.000000   0.000000 )  
               a(3) = (   0.000000   0.000000   1.000000 )  

     reciprocal axes: (cart. coord. in units 2 pi/alat)
               b(1) = (  1.000000  0.000000  0.000000 )  
               b(2) = (  0.000000  1.000000  0.000000 )  
               b(3) = (  0.000000  0.000000  1.000000 )  


     PseudoPot. # 1 for  H read from file:
     ../H.blyp-hgh.UPF
     MD5 check sum: c576e69559cde411e611be972c763230
     Pseudo is Norm-conserving, Zval =  1.0
     Generated in analytical, separable form
     Using radial grid of  929 points,  0 beta functions with: 

     PseudoPot. # 2 for  O read from file:
     ../O.blyp-hgh.UPF
     MD5 check sum: d0b7156309aa9befef28faac7bc56342
     Pseudo is Norm-conserving, Zval =  6.0
     Generated in analytical, separable form
     Using radial grid of 1095 points,  1 beta functions with: 
                l(1) =   0

     atomic species   valence    mass     pseudopotential
        H              1.00     1.01000      H( 1.00)
        O              6.00    16.00000      O( 1.00)

     No symmetry found



   Cartesian axes

     site n.     atom                  positions (alat units)
         1           H   tau(   1) = (   0.0283985  -0.0748315  -0.0026908  )
         2           H   tau(   2) = (  -0.0763251  -0.0043120  -0.0013832  )
         3           O   tau(   3) = (   0.0030254   0.0049960   0.0058352  )

     number of k points=     1  Marzari-Vanderbilt smearing, width (Ry)=  0.0250
                       cart. coord. in units 2pi/alat
        k(    1) = (   0.0000000   0.0000000   0.0000000), wk =   2.0000000

     Dense  grid:   922329 G-vectors     FFT dimensions: ( 125, 125, 125)

     Estimated max dynamical RAM per process >      31.67Mb

     Estimated total allocated dynamical RAM >     886.64Mb

     Initial potential from superposition of free atoms
     Check: negative starting charge=   -0.016099

     starting charge    7.99998, renormalised to    8.00000

     negative rho (up, down):  1.610E-02 0.000E+00
     Starting wfc are    6 randomized atomic wfcs +    2 random wfc

     total cpu time spent up to now is        0.7 secs

     per-process dynamical memory:    33.5 Mb

     Self-consistent Calculation

     iteration #  1     ecut=    90.00 Ry     beta=0.70
     Davidson diagonalization with overlap
     ethr =  1.00E-02,  avg # of iterations =  8.0

     negative rho (up, down):  4.724E-03 0.000E+00

     total cpu time spent up to now is        1.3 secs

     total energy              =     -33.94505624 Ry
     Harris-Foulkes estimate   =     -34.25676081 Ry
     estimated scf accuracy    <       0.45566472 Ry

     iteration #  2     ecut=    90.00 Ry     beta=0.70
     Davidson diagonalization with overlap
     ethr =  5.70E-03,  avg # of iterations =  2.0

     negative rho (up, down):  2.639E-03 0.000E+00

     total cpu time spent up to now is        1.5 secs

     total energy              =     -34.03660513 Ry
     Harris-Foulkes estimate   =     -34.21377405 Ry
     estimated scf accuracy    <       0.35769752 Ry

     iteration #  3     ecut=    90.00 Ry     beta=0.70
     Davidson diagonalization with overlap
     ethr =  4.47E-03,  avg # of iterations =  2.0

     negative rho (up, down):  1.861E-04 0.000E+00

     total cpu time spent up to now is        1.7 secs

     total energy              =     -34.12073046 Ry
     Harris-Foulkes estimate   =     -34.12237466 Ry
     estimated scf accuracy    <       0.00638737 Ry

     iteration #  4     ecut=    90.00 Ry     beta=0.70
     Davidson diagonalization with overlap
     ethr =  7.98E-05,  avg # of iterations =  6.0

     negative rho (up, down):  5.068E-05 0.000E+00

     total cpu time spent up to now is        1.9 secs

     total energy              =     -34.11848688 Ry
     Harris-Foulkes estimate   =     -34.11869387 Ry
     estimated scf accuracy    <       0.00046385 Ry

     iteration #  5     ecut=    90.00 Ry     beta=0.70
     Davidson diagonalization with overlap
     ethr =  5.80E-06,  avg # of iterations =  4.0

     total cpu time spent up to now is        2.2 secs

     total energy              =     -34.12262698 Ry
     Harris-Foulkes estimate   =     -34.12262568 Ry
     estimated scf accuracy    <       0.00000467 Ry

     iteration #  6     ecut=    90.00 Ry     beta=0.70
     Davidson diagonalization with overlap
     ethr =  5.84E-08,  avg # of iterations =  8.0

     negative rho (up, down):  2.237E-08 0.000E+00

     total cpu time spent up to now is        2.4 secs

     total energy              =     -34.12262769 Ry
     Harris-Foulkes estimate   =     -34.12262765 Ry
     estimated scf accuracy    <       0.00000236 Ry

     iteration #  7     ecut=    90.00 Ry     beta=0.70
     Davidson diagonalization with overlap
     ethr =  2.95E-08,  avg # of iterations =  2.0

     total cpu time spent up to now is        2.6 secs

     End of self-consistent calculation

          k = 0.0000 0.0000 0.0000 (115313 PWs)   bands (ev):

   -26.5630 -13.6615  -9.5215  -7.3302  -0.7093   0.5083   0.9270   1.1345

     the Fermi energy is    -5.4497 ev

!    total energy              =     -34.12262793 Ry
     Harris-Foulkes estimate   =     -34.12262796 Ry
     estimated scf accuracy    <          8.0E-09 Ry

     The total energy is the sum of the following terms:

     one-electron contribution =     -66.46294553 Ry
     hartree contribution      =      34.58082574 Ry
     xc contribution           =      -8.57931423 Ry
     ewald contribution        =       6.33880608 Ry
     smearing contrib. (-TS)   =       0.00000000 Ry

     convergence has been achieved in   7 iterations

     Forces acting on atoms (Ry/au):

     atom    1 type  1   force =     0.09676019   -0.20960411   -0.01997388
     atom    2 type  1   force =    -0.38625941   -0.01436608   -0.03089953
     atom    3 type  2   force =     0.28949921    0.22397018    0.05087340

     Total force =     0.583621     Total SCF correction =     0.000268

     BFGS Geometry Optimization

     number of scf cycles    =   1
     number of bfgs steps    =   0

     energy   new            =     -34.1226279336 Ry

     new trust radius        =       0.3877595816 bohr
     new conv_thr            =       0.0000000100 Ry


ATOMIC_POSITIONS (angstrom)
H        0.351760289  -0.902899716  -0.039047720
H       -1.012189674  -0.053238201  -0.030990326
O        0.185215384   0.171394917   0.088678046



     Writing output data file pwscf.save
     Check: negative starting charge=   -0.016099
     NEW-OLD atomic charge density approx. for the potential
     Check: negative starting charge=   -0.015895

     negative rho (up, down):  2.337E-02 0.000E+00

     total cpu time spent up to now is        3.1 secs

     per-process dynamical memory:    45.8 Mb

     Self-consistent Calculation

     iteration #  1     ecut=    90.00 Ry     beta=0.70
     Davidson diagonalization with overlap
     c_bands:  2 eigenvalues not converged
     ethr =  1.00E-06,  avg # of iterations = 20.0

     negative rho (up, down):  5.556E-03 0.000E+00

     total cpu time spent up to now is        3.8 secs

     total energy              =     -34.00890144 Ry
     Harris-Foulkes estimate   =     -34.10368261 Ry
     estimated scf accuracy    <       0.18041718 Ry

     iteration #  2     ecut=    90.00 Ry     beta=0.70
     Davidson diagonalization with overlap
     ethr =  2.26E-03,  avg # of iterations =  3.0

     negative rho (up, down):  3.854E-03 0.000E+00

     total cpu time spent up to now is        4.0 secs

     total energy              =     -34.04111736 Ry
     Harris-Foulkes estimate   =     -34.16952672 Ry
     estimated scf accuracy    <       0.30371926 Ry

     iteration #  3     ecut=    90.00 Ry     beta=0.70
     Davidson diagonalization with overlap
     ethr =  2.26E-03,  avg # of iterations =  2.0

     negative rho (up, down):  1.299E-03 0.000E+00

     total cpu time spent up to now is        4.2 secs

     total energy              =     -34.09737468 Ry
     Harris-Foulkes estimate   =     -34.09424127 Ry
     estimated scf accuracy    <       0.00245465 Ry

     iteration #  4     ecut=    90.00 Ry     beta=0.70
     Davidson diagonalization with overlap
     ethr =  3.07E-05,  avg # of iterations = 14.0

     negative rho (up, down):  1.182E-04 0.000E+00

     total cpu time spent up to now is        4.5 secs

     total energy              =     -34.10217024 Ry
     Harris-Foulkes estimate   =     -34.10191087 Ry
     estimated scf accuracy    <       0.00010006 Ry

     iteration #  5     ecut=    90.00 Ry     beta=0.70
     Davidson diagonalization with overlap
     ethr =  1.25E-06,  avg # of iterations = 17.0

     negative rho (up, down):  9.958E-08 0.000E+00

     total cpu time spent up to now is        4.8 secs

     total energy              =     -34.10218644 Ry
     Harris-Foulkes estimate   =     -34.10218702 Ry
     estimated scf accuracy    <       0.00000565 Ry

     iteration #  6     ecut=    90.00 Ry     beta=0.70
     Davidson diagonalization with overlap
     ethr =  7.07E-08,  avg # of iterations =  2.0

     total cpu time spent up to now is        5.0 secs

     total energy              =     -34.10218752 Ry
     Harris-Foulkes estimate   =     -34.10218733 Ry
     estimated scf accuracy    <       0.00000014 Ry

     iteration #  7     ecut=    90.00 Ry     beta=0.70
     Davidson diagonalization with overlap
     ethr =  1.70E-09,  avg # of iterations =  2.0

     total cpu time spent up to now is        5.1 secs

     End of self-consistent calculation

          k = 0.0000 0.0000 0.0000 (115313 PWs)   bands (ev):

   -23.8158 -10.7266  -9.6953  -6.9055  -1.8196  -0.0347   0.3127   1.0755

     the Fermi energy is    -4.8072 ev

!    total energy              =     -34.10218767 Ry
     Harris-Foulkes estimate   =     -34.10218754 Ry
     estimated scf accuracy    <          8.3E-09 Ry

     The total energy is the sum of the following terms:

     one-electron contribution =     -60.15892218 Ry
     hartree contribution      =      31.54473495 Ry
     xc contribution           =      -8.09141554 Ry
     ewald contribution        =       2.60341511 Ry
     smearing contrib. (-TS)   =       0.00000000 Ry

     convergence has been achieved in   7 iterations

     Forces acting on atoms (Ry/au):

     atom    1 type  1   force =     0.00755972    0.13133364    0.01916478
     atom    2 type  1   force =     0.18054044    0.05580882    0.02231892
     atom    3 type  2   force =    -0.18810017   -0.18714245   -0.04148370

     Total force =     0.354972     Total SCF correction =     0.000057

     number of scf cycles    =   2
     number of bfgs steps    =   1

     energy   old            =     -34.1226279336 Ry
     energy   new            =     -34.1021876701 Ry

     CASE: energy  _new > energy  _old

     new trust radius        =       0.1829037106 bohr
     new conv_thr            =       0.0000000100 Ry


ATOMIC_POSITIONS (angstrom)
H        0.324709264  -0.844301176  -0.033463669
H       -0.904204017  -0.049221910  -0.022351816
O        0.104280753   0.108780086   0.074455485



     Writing output data file pwscf.save
     Check: negative starting charge=   -0.015895
     NEW-OLD atomic charge density approx. for the potential
     Check: negative starting charge=   -0.016033

     negative rho (up, down):  2.935E-02 0.000E+00

     total cpu time spent up to now is        5.7 secs

     per-process dynamical memory:    45.8 Mb

     Self-consistent Calculation

     iteration #  1     ecut=    90.00 Ry     beta=0.70
     Davidson diagonalization with overlap
     ethr =  1.00E-06,  avg # of iterations = 18.0

     negative rho (up, down):  7.703E-03 0.000E+00

     total cpu time spent up to now is        6.4 secs

     total energy              =     -34.20724072 Ry
     Harris-Foulkes estimate   =     -34.15467982 Ry
     estimated scf accuracy    <       0.04024889 Ry

     iteration #  2     ecut=    90.00 Ry     beta=0.70
     Davidson diagonalization with overlap
     ethr =  5.03E-04,  avg # of iterations =  3.0

     negative rho (up, down):  4.619E-03 0.000E+00

     total cpu time spent up to now is        6.6 secs

     total energy              =     -34.14902679 Ry
     Harris-Foulkes estimate   =     -34.24732458 Ry
     estimated scf accuracy    <       0.04057390 Ry

     iteration #  3     ecut=    90.00 Ry     beta=0.70
     Davidson diagonalization with overlap
     ethr =  5.03E-04,  avg # of iterations =  2.0

     negative rho (up, down):  1.232E-03 0.000E+00

     total cpu time spent up to now is        6.8 secs

     total energy              =     -34.17188324 Ry
     Harris-Foulkes estimate   =     -34.16984257 Ry
     estimated scf accuracy    <       0.00025228 Ry

     iteration #  4     ecut=    90.00 Ry     beta=0.70
     Davidson diagonalization with overlap
     ethr =  3.15E-06,  avg # of iterations = 14.0

     negative rho (up, down):  1.662E-04 0.000E+00

     total cpu time spent up to now is        7.1 secs

     total energy              =     -34.17623043 Ry
     Harris-Foulkes estimate   =     -34.17614159 Ry
     estimated scf accuracy    <       0.00001765 Ry

     iteration #  5     ecut=    90.00 Ry     beta=0.70
     Davidson diagonalization with overlap
     ethr =  2.21E-07,  avg # of iterations =  5.0

     negative rho (up, down):  2.016E-08 0.000E+00

     total cpu time spent up to now is        7.4 secs

     total energy              =     -34.17623057 Ry
     Harris-Foulkes estimate   =     -34.17623475 Ry
     estimated scf accuracy    <       0.00000095 Ry

     iteration #  6     ecut=    90.00 Ry     beta=0.70
     Davidson diagonalization with overlap
     ethr =  1.19E-08,  avg # of iterations =  3.0

     negative rho (up, down):  5.498E-08 0.000E+00

     total cpu time spent up to now is        7.6 secs

     total energy              =     -34.17623064 Ry
     Harris-Foulkes estimate   =     -34.17623076 Ry
     estimated scf accuracy    <       0.00000003 Ry

     iteration #  7     ecut=    90.00 Ry     beta=0.70
     Davidson diagonalization with overlap
     ethr =  3.90E-10,  avg # of iterations =  2.0

     total cpu time spent up to now is        7.8 secs

     End of self-consistent calculation

          k = 0.0000 0.0000 0.0000 (115313 PWs)   bands (ev):

   -25.0363 -12.0499  -9.6443  -7.0859  -1.0573   0.3853   0.7107   1.1101

     the Fermi energy is    -5.0863 ev

!    total energy              =     -34.17623076 Ry
     Harris-Foulkes estimate   =     -34.17623065 Ry
     estimated scf accuracy    <          1.3E-09 Ry

     The total energy is the sum of the following terms:

     one-electron contribution =     -63.18593263 Ry
     hartree contribution      =      33.00922545 Ry
     xc contribution           =      -8.31538918 Ry
     ewald contribution        =       4.31586559 Ry
     smearing contrib. (-TS)   =       0.00000000 Ry

     convergence has been achieved in   7 iterations

     Forces acting on atoms (Ry/au):

     atom    1 type  1   force =     0.02887521    0.00086184    0.00182671
     atom    2 type  1   force =     0.05578341    0.03638168    0.00849478
     atom    3 type  2   force =    -0.08465862   -0.03724352   -0.01032149

     Total force =     0.118347     Total SCF correction =     0.000121

     number of scf cycles    =   3
     number of bfgs steps    =   1

     energy   old            =     -34.1226279336 Ry
     energy   new            =     -34.1762307618 Ry

     CASE: energy  _new < energy  _old

     new trust radius        =       0.0509843904 bohr
     new conv_thr            =       0.0000000085 Ry


ATOMIC_POSITIONS (angstrom)
H        0.342221007  -0.853207287  -0.033513740
H       -0.895807187  -0.033204853  -0.019834229
O        0.078372179   0.101669140   0.071987969



     Writing output data file pwscf.save
     Check: negative starting charge=   -0.016033
     NEW-OLD atomic charge density approx. for the potential
     Check: negative starting charge=   -0.016028

     negative rho (up, down):  9.130E-03 0.000E+00

     total cpu time spent up to now is        8.3 secs

     per-process dynamical memory:    45.8 Mb

     Self-consistent Calculation

     iteration #  1     ecut=    90.00 Ry     beta=0.70
     Davidson diagonalization with overlap
     c_bands:  1 eigenvalues not converged
     ethr =  1.00E-06,  avg # of iterations = 20.0

     negative rho (up, down):  2.403E-03 0.000E+00

     total cpu time spent up to now is        8.8 secs

     total energy              =     -34.17541370 Ry
     Harris-Foulkes estimate   =     -34.16847326 Ry
     estimated scf accuracy    <       0.00097333 Ry

     iteration #  2     ecut=    90.00 Ry     beta=0.70
     Davidson diagonalization with overlap
     ethr =  1.22E-05,  avg # of iterations = 11.0

     negative rho (up, down):  1.404E-03 0.000E+00

     total cpu time spent up to now is        9.1 secs

     total energy              =     -34.17674211 Ry
     Harris-Foulkes estimate   =     -34.17609733 Ry
     estimated scf accuracy    <       0.00070788 Ry

     iteration #  3     ecut=    90.00 Ry     beta=0.70
     Davidson diagonalization with overlap
     ethr =  8.85E-06,  avg # of iterations =  5.0

     negative rho (up, down):  3.534E-04 0.000E+00

     total cpu time spent up to now is        9.4 secs

     total energy              =     -34.18120901 Ry
     Harris-Foulkes estimate   =     -34.18099392 Ry
     estimated scf accuracy    <       0.00002757 Ry

     iteration #  4     ecut=    90.00 Ry     beta=0.70
     Davidson diagonalization with overlap
     c_bands:  1 eigenvalues not converged
     ethr =  3.45E-07,  avg # of iterations = 20.0

     negative rho (up, down):  1.529E-05 0.000E+00

     total cpu time spent up to now is        9.7 secs

     total energy              =     -34.18122147 Ry
     Harris-Foulkes estimate   =     -34.18121824 Ry
     estimated scf accuracy    <       0.00000086 Ry

     iteration #  5     ecut=    90.00 Ry     beta=0.70
     Davidson diagonalization with overlap
     ethr =  1.07E-08,  avg # of iterations =  9.0

     negative rho (up, down):  2.608E-08 0.000E+00

     total cpu time spent up to now is       10.0 secs

     total energy              =     -34.18122131 Ry
     Harris-Foulkes estimate   =     -34.18122179 Ry
     estimated scf accuracy    <       0.00000002 Ry

     iteration #  6     ecut=    90.00 Ry     beta=0.70
     Davidson diagonalization with overlap
     ethr =  2.50E-10,  avg # of iterations =  2.0

     total cpu time spent up to now is       10.1 secs

     End of self-consistent calculation

          k = 0.0000 0.0000 0.0000 (115313 PWs)   bands (ev):

   -25.1005 -12.3309  -9.4890  -7.0895  -0.9987   0.4064   0.7332   1.1141

     the Fermi energy is    -5.0994 ev

!    total energy              =     -34.18122125 Ry
     Harris-Foulkes estimate   =     -34.18122133 Ry
     estimated scf accuracy    <          6.7E-10 Ry

     The total energy is the sum of the following terms:

     one-electron contribution =     -63.44630380 Ry
     hartree contribution      =      33.13905065 Ry
     xc contribution           =      -8.33655746 Ry
     ewald contribution        =       4.46258937 Ry
     smearing contrib. (-TS)   =       0.00000000 Ry

     convergence has been achieved in   6 iterations

     Forces acting on atoms (Ry/au):

     atom    1 type  1   force =     0.01290030    0.02493484    0.00219801
     atom    2 type  1   force =     0.00258832    0.02003126    0.00060623
     atom    3 type  2   force =    -0.01548862   -0.04496610   -0.00280424

     Total force =     0.058915     Total SCF correction =     0.000137

     number of scf cycles    =   4
     number of bfgs steps    =   2

     energy   old            =     -34.1762307618 Ry
     energy   new            =     -34.1812212473 Ry

     CASE: energy  _new < energy  _old

     new trust radius        =       0.0637603677 bohr
     new conv_thr            =       0.0000000045 Ry


ATOMIC_POSITIONS (angstrom)
H        0.361507317  -0.844260183  -0.032441819
H       -0.899754991  -0.012156256  -0.019059054
O        0.063033674   0.071673439   0.070140873



     Writing output data file pwscf.save
     Check: negative starting charge=   -0.016028
     NEW-OLD atomic charge density approx. for the potential
     Check: negative starting charge=   -0.015991

     negative rho (up, down):  1.154E-02 0.000E+00

     total cpu time spent up to now is       10.8 secs

     per-process dynamical memory:    45.8 Mb

     Self-consistent Calculation

     iteration #  1     ecut=    90.00 Ry     beta=0.70
     Davidson diagonalization with overlap
     c_bands:  1 eigenvalues not converged
     ethr =  1.00E-06,  avg # of iterations = 20.0

     negative rho (up, down):  3.043E-03 0.000E+00

     total cpu time spent up to now is       11.2 secs

     total energy              =     -34.17608655 Ry
     Harris-Foulkes estimate   =     -34.16467383 Ry
     estimated scf accuracy    <       0.00179489 Ry

     iteration #  2     ecut=    90.00 Ry     beta=0.70
     Davidson diagonalization with overlap
     ethr =  2.24E-05,  avg # of iterations = 11.0

     negative rho (up, down):  1.875E-03 0.000E+00

     total cpu time spent up to now is       11.5 secs

     total energy              =     -34.17794779 Ry
     Harris-Foulkes estimate   =     -34.17730029 Ry
     estimated scf accuracy    <       0.00173375 Ry

     iteration #  3     ecut=    90.00 Ry     beta=0.70
     Davidson diagonalization with overlap
     ethr =  2.17E-05,  avg # of iterations =  6.0

     negative rho (up, down):  2.699E-04 0.000E+00

     total cpu time spent up to now is       11.8 secs

     total energy              =     -34.17892269 Ry
     Harris-Foulkes estimate   =     -34.17831286 Ry
     estimated scf accuracy    <       0.00001836 Ry

     iteration #  4     ecut=    90.00 Ry     beta=0.70
     Davidson diagonalization with overlap
     c_bands:  1 eigenvalues not converged
     ethr =  2.30E-07,  avg # of iterations = 20.0

     negative rho (up, down):  1.051E-05 0.000E+00

     total cpu time spent up to now is       12.1 secs

     total energy              =     -34.18301233 Ry
     Harris-Foulkes estimate   =     -34.18301090 Ry
     estimated scf accuracy    <       0.00000051 Ry

     iteration #  5     ecut=    90.00 Ry     beta=0.70
     Davidson diagonalization with overlap
     ethr =  6.32E-09,  avg # of iterations = 11.0

     total cpu time spent up to now is       12.4 secs

     total energy              =     -34.18301159 Ry
     Harris-Foulkes estimate   =     -34.18301250 Ry
     estimated scf accuracy    <       0.00000002 Ry

     iteration #  6     ecut=    90.00 Ry     beta=0.70
     Davidson diagonalization with overlap
     ethr =  2.08E-10,  avg # of iterations =  2.0

     total cpu time spent up to now is       12.5 secs

     End of self-consistent calculation

          k = 0.0000 0.0000 0.0000 (115313 PWs)   bands (ev):

   -25.2426 -12.8008  -9.2474  -7.1059  -0.9169   0.4346   0.7698   1.1204

     the Fermi energy is    -5.1302 ev

!    total energy              =     -34.18301151 Ry
     Harris-Foulkes estimate   =     -34.18301160 Ry
     estimated scf accuracy    <          6.2E-10 Ry

     The total energy is the sum of the following terms:

     one-electron contribution =     -63.92902453 Ry
     hartree contribution      =      33.37775593 Ry
     xc contribution           =      -8.37595537 Ry
     ewald contribution        =       4.74421246 Ry
     smearing contrib. (-TS)   =       0.00000000 Ry

     convergence has been achieved in   6 iterations

     Forces acting on atoms (Ry/au):

     atom    1 type  1   force =     0.01288513   -0.02193803   -0.00222373
     atom    2 type  1   force =    -0.02123301    0.00328665   -0.00156050
     atom    3 type  2   force =     0.00834788    0.01865137    0.00378424

     Total force =     0.039347     Total SCF correction =     0.000049

     number of scf cycles    =   5
     number of bfgs steps    =   3

     energy   old            =     -34.1812212473 Ry
     energy   new            =     -34.1830115119 Ry

     CASE: energy  _new < energy  _old

     new trust radius        =       0.0152614642 bohr
     new conv_thr            =       0.0000000018 Ry


ATOMIC_POSITIONS (angstrom)
H        0.367188904  -0.849967026  -0.033053034
H       -0.904792663  -0.009024842  -0.019362577
O        0.062389759   0.074248868   0.071055611



     Writing output data file pwscf.save
     Check: negative starting charge=   -0.015991
     NEW-OLD atomic charge density approx. for the potential
     Check: negative starting charge=   -0.015989

     negative rho (up, down):  7.742E-04 0.000E+00

     total cpu time spent up to now is       13.1 secs

     per-process dynamical memory:    45.8 Mb

     Self-consistent Calculation

     iteration #  1     ecut=    90.00 Ry     beta=0.70
     Davidson diagonalization with overlap
     ethr =  1.00E-06,  avg # of iterations =  4.0

     negative rho (up, down):  1.888E-04 0.000E+00

     total cpu time spent up to now is       13.5 secs

     total energy              =     -34.18341573 Ry
     Harris-Foulkes estimate   =     -34.18348387 Ry
     estimated scf accuracy    <       0.00012249 Ry

     iteration #  2     ecut=    90.00 Ry     beta=0.70
     Davidson diagonalization with overlap
     ethr =  1.53E-06,  avg # of iterations =  3.0

     negative rho (up, down):  1.093E-04 0.000E+00

     total cpu time spent up to now is       13.7 secs

     total energy              =     -34.18343934 Ry
     Harris-Foulkes estimate   =     -34.18349716 Ry
     estimated scf accuracy    <       0.00011542 Ry

     iteration #  3     ecut=    90.00 Ry     beta=0.70
     Davidson diagonalization with overlap
     ethr =  1.44E-06,  avg # of iterations =  2.0

     negative rho (up, down):  1.435E-05 0.000E+00

     total cpu time spent up to now is       13.9 secs

     total energy              =     -34.18346613 Ry
     Harris-Foulkes estimate   =     -34.18346432 Ry
     estimated scf accuracy    <       0.00000116 Ry

     iteration #  4     ecut=    90.00 Ry     beta=0.70
     Davidson diagonalization with overlap
     ethr =  1.45E-08,  avg # of iterations =  3.0

     negative rho (up, down):  3.644E-07 0.000E+00

     total cpu time spent up to now is       14.1 secs

     total energy              =     -34.18346680 Ry
     Harris-Foulkes estimate   =     -34.18346649 Ry
     estimated scf accuracy    <       0.00000003 Ry

     iteration #  5     ecut=    90.00 Ry     beta=0.70
     Davidson diagonalization with overlap
     ethr =  3.73E-10,  avg # of iterations =  2.0

     total cpu time spent up to now is       14.3 secs

     End of self-consistent calculation

          k = 0.0000 0.0000 0.0000 (115313 PWs)   bands (ev):

   -25.1588 -12.7472  -9.2237  -7.0907  -0.9365   0.4287   0.7541   1.1198

     the Fermi energy is    -5.1097 ev

!    total energy              =     -34.18346695 Ry
     Harris-Foulkes estimate   =     -34.18346681 Ry
     estimated scf accuracy    <          1.4E-09 Ry

     The total energy is the sum of the following terms:

     one-electron contribution =     -63.76043589 Ry
     hartree contribution      =      33.29786349 Ry
     xc contribution           =      -8.36285411 Ry
     ewald contribution        =       4.64195956 Ry
     smearing contrib. (-TS)   =       0.00000000 Ry

     convergence has been achieved in   5 iterations

     Forces acting on atoms (Ry/au):

     atom    1 type  1   force =     0.00499182   -0.00344239   -0.00035351
     atom    2 type  1   force =    -0.01228308    0.00243209   -0.00102809
     atom    3 type  2   force =     0.00729126    0.00101030    0.00138160

     Total force =     0.015838     Total SCF correction =     0.000442

     number of scf cycles    =   6
     number of bfgs steps    =   4

     energy   old            =     -34.1830115119 Ry
     energy   new            =     -34.1834669490 Ry

     CASE: energy  _new < energy  _old

     new trust radius        =       0.0143343779 bohr
     new conv_thr            =       0.0000000005 Ry


ATOMIC_POSITIONS (angstrom)
H        0.373180631  -0.852405585  -0.033242910
H       -0.910917488  -0.004561381  -0.019683093
O        0.062522857   0.072223966   0.071566003



     Writing output data file pwscf.save
     Check: negative starting charge=   -0.015989
     NEW-OLD atomic charge density approx. for the potential
     Check: negative starting charge=   -0.015980

     negative rho (up, down):  5.530E-04 0.000E+00

     total cpu time spent up to now is       14.9 secs

     per-process dynamical memory:    45.8 Mb

     Self-consistent Calculation

     iteration #  1     ecut=    90.00 Ry     beta=0.70
     Davidson diagonalization with overlap
     ethr =  1.00E-06,  avg # of iterations =  4.0

     negative rho (up, down):  1.311E-04 0.000E+00

     total cpu time spent up to now is       15.2 secs

     total energy              =     -34.18358486 Ry
     Harris-Foulkes estimate   =     -34.18359816 Ry
     estimated scf accuracy    <       0.00003880 Ry

     iteration #  2     ecut=    90.00 Ry     beta=0.70
     Davidson diagonalization with overlap
     ethr =  4.85E-07,  avg # of iterations =  3.0

     negative rho (up, down):  6.989E-05 0.000E+00

     total cpu time spent up to now is       15.4 secs

     total energy              =     -34.18359019 Ry
     Harris-Foulkes estimate   =     -34.18360524 Ry
     estimated scf accuracy    <       0.00002773 Ry

     iteration #  3     ecut=    90.00 Ry     beta=0.70
     Davidson diagonalization with overlap
     ethr =  3.47E-07,  avg # of iterations =  2.0

     negative rho (up, down):  4.265E-06 0.000E+00

     total cpu time spent up to now is       15.6 secs

     total energy              =     -34.18359583 Ry
     Harris-Foulkes estimate   =     -34.18359712 Ry
     estimated scf accuracy    <       0.00000107 Ry

     iteration #  4     ecut=    90.00 Ry     beta=0.70
     Davidson diagonalization with overlap
     ethr =  1.34E-08,  avg # of iterations =  3.0

     negative rho (up, down):  3.905E-08 0.000E+00

     total cpu time spent up to now is       15.8 secs

     total energy              =     -34.18359586 Ry
     Harris-Foulkes estimate   =     -34.18359607 Ry
     estimated scf accuracy    <       0.00000002 Ry

     iteration #  5     ecut=    90.00 Ry     beta=0.70
     Davidson diagonalization with overlap
     ethr =  1.89E-10,  avg # of iterations =  2.0

     total cpu time spent up to now is       16.0 secs

     total energy              =     -34.18359574 Ry
     Harris-Foulkes estimate   =     -34.18359586 Ry
     estimated scf accuracy    <          8.0E-10 Ry

     iteration #  6     ecut=    90.00 Ry     beta=0.70
     Davidson diagonalization with overlap
     ethr =  9.98E-12,  avg # of iterations =  2.0

     total cpu time spent up to now is       16.2 secs

     End of self-consistent calculation

          k = 0.0000 0.0000 0.0000 (115313 PWs)   bands (ev):

   -25.1020 -12.7450  -9.1815  -7.0795  -0.9466   0.4255   0.7432   1.1190

     the Fermi energy is    -5.0961 ev

!    total energy              =     -34.18359571 Ry
     Harris-Foulkes estimate   =     -34.18359574 Ry
     estimated scf accuracy    <          6.9E-11 Ry

     The total energy is the sum of the following terms:

     one-electron contribution =     -63.66332760 Ry
     hartree contribution      =      33.25274177 Ry
     xc contribution           =      -8.35548448 Ry
     ewald contribution        =       4.58247461 Ry
     smearing contrib. (-TS)   =       0.00000000 Ry

     convergence has been achieved in   6 iterations

     Forces acting on atoms (Ry/au):

     atom    1 type  1   force =     0.00094740    0.00044881   -0.00010387
     atom    2 type  1   force =    -0.00016145    0.00071684   -0.00024415
     atom    3 type  2   force =    -0.00078596   -0.00116564    0.00034802

     Total force =     0.001951     Total SCF correction =     0.000029

     number of scf cycles    =   7
     number of bfgs steps    =   5

     energy   old            =     -34.1834669490 Ry
     energy   new            =     -34.1835957074 Ry

     CASE: energy  _new < energy  _old

     new trust radius        =       0.0032490641 bohr
     new conv_thr            =       0.0000000001 Ry


ATOMIC_POSITIONS (angstrom)
H        0.374880835  -0.852641396  -0.033341890
H       -0.911755398  -0.003258133  -0.019835123
O        0.061660563   0.071156529   0.071817012



     Writing output data file pwscf.save
     Check: negative starting charge=   -0.015980
     NEW-OLD atomic charge density approx. for the potential
     Check: negative starting charge=   -0.015978

     negative rho (up, down):  3.485E-04 0.000E+00

     total cpu time spent up to now is       17.0 secs

     per-process dynamical memory:    45.8 Mb

     Self-consistent Calculation

     iteration #  1     ecut=    90.00 Ry     beta=0.70
     Davidson diagonalization with overlap
     ethr =  1.00E-06,  avg # of iterations =  3.0

     Threshold (ethr) on eigenvalues was too large:
     Diagonalizing with lowered threshold

     Davidson diagonalization with overlap
     ethr =  1.63E-08,  avg # of iterations =  3.0

     negative rho (up, down):  7.813E-05 0.000E+00

     total cpu time spent up to now is       17.3 secs

     total energy              =     -34.18360187 Ry
     Harris-Foulkes estimate   =     -34.18359856 Ry
     estimated scf accuracy    <       0.00000113 Ry

     iteration #  2     ecut=    90.00 Ry     beta=0.70
     Davidson diagonalization with overlap
     ethr =  1.41E-08,  avg # of iterations =  2.0

     negative rho (up, down):  1.518E-05 0.000E+00

     total cpu time spent up to now is       17.5 secs

     total energy              =     -34.18360137 Ry
     Harris-Foulkes estimate   =     -34.18360212 Ry
     estimated scf accuracy    <       0.00000018 Ry

     iteration #  3     ecut=    90.00 Ry     beta=0.70
     Davidson diagonalization with overlap
     ethr =  2.24E-09,  avg # of iterations =  3.0

     negative rho (up, down):  4.372E-07 0.000E+00

     total cpu time spent up to now is       17.7 secs

     total energy              =     -34.18360108 Ry
     Harris-Foulkes estimate   =     -34.18360147 Ry
     estimated scf accuracy    <       0.00000011 Ry

     iteration #  4     ecut=    90.00 Ry     beta=0.70
     Davidson diagonalization with overlap
     ethr =  1.41E-09,  avg # of iterations =  2.0

     total cpu time spent up to now is       17.9 secs

     total energy              =     -34.18360094 Ry
     Harris-Foulkes estimate   =     -34.18360111 Ry
     estimated scf accuracy    <          6.3E-10 Ry

     iteration #  5     ecut=    90.00 Ry     beta=0.70
     Davidson diagonalization with overlap
     ethr =  7.85E-12,  avg # of iterations =  3.0

     total cpu time spent up to now is       18.0 secs

     End of self-consistent calculation

          k = 0.0000 0.0000 0.0000 (115313 PWs)   bands (ev):

   -25.0974 -12.7592  -9.1673  -7.0782  -0.9459   0.4258   0.7426   1.1191

     the Fermi energy is    -5.0949 ev

!    total energy              =     -34.18360090 Ry
     Harris-Foulkes estimate   =     -34.18360094 Ry
     estimated scf accuracy    <          8.5E-11 Ry

     The total energy is the sum of the following terms:

     one-electron contribution =     -63.66284836 Ry
     hartree contribution      =      33.25294021 Ry
     xc contribution           =      -8.35552313 Ry
     ewald contribution        =       4.58183038 Ry
     smearing contrib. (-TS)   =       0.00000000 Ry

     convergence has been achieved in   5 iterations

     Forces acting on atoms (Ry/au):

     atom    1 type  1   force =     0.00002824    0.00064223   -0.00009421
     atom    2 type  1   force =    -0.00008942   -0.00007539   -0.00029089
     atom    3 type  2   force =     0.00006119   -0.00056684    0.00038510

     Total force =     0.000997     Total SCF correction =     0.000032

     bfgs converged in   8 scf cycles and   6 bfgs steps
     (criteria: energy <  1.0E-04, force <  1.0E-03)

     End of BFGS Geometry Optimization

     Final energy   =     -34.1836009039 Ry
Begin final coordinates

ATOMIC_POSITIONS (angstrom)
H        0.374880835  -0.852641396  -0.033341890
H       -0.911755398  -0.003258133  -0.019835123
O        0.061660563   0.071156529   0.071817012
End final coordinates



     Writing output data file pwscf.save
 
     init_run     :      0.51s CPU      0.56s WALL (       1 calls)
     electrons    :     12.11s CPU     14.05s WALL (       8 calls)
     update_pot   :      1.80s CPU      2.29s WALL (       7 calls)
     forces       :      0.54s CPU      0.54s WALL (       8 calls)

     Called by init_run:
     wfcinit      :      0.02s CPU      0.04s WALL (       1 calls)
     potinit      :      0.11s CPU      0.12s WALL (       1 calls)

     Called by electrons:
     c_bands      :      6.07s CPU      6.30s WALL (      50 calls)
     sum_band     :      1.02s CPU      1.05s WALL (      50 calls)
     v_of_rho     :      2.90s CPU      2.97s WALL (      57 calls)
     mix_rho      :      1.05s CPU      1.89s WALL (      50 calls)

     Called by c_bands:
     init_us_2    :      0.03s CPU      0.03s WALL (     101 calls)
     cegterg      :      6.04s CPU      6.24s WALL (      50 calls)

     Called by sum_band:

     Called by *egterg:
     h_psi        :      5.11s CPU      5.21s WALL (     373 calls)
     g_psi        :      0.05s CPU      0.05s WALL (     322 calls)
     cdiaghg      :      0.13s CPU      0.13s WALL (     364 calls)

     Called by h_psi:
     h_psi:pot    :      5.06s CPU      5.16s WALL (     373 calls)
     h_psi:calbec :      0.09s CPU      0.09s WALL (     373 calls)
     vloc_psi     :      4.93s CPU      5.03s WALL (     373 calls)
     add_vuspsi   :      0.03s CPU      0.03s WALL (     373 calls)

     General routines
     calbec       :      0.09s CPU      0.10s WALL (     405 calls)
     fft          :      2.11s CPU      2.19s WALL (     644 calls)
     fftw         :      4.86s CPU      4.97s WALL (    3676 calls)
     davcio       :      0.13s CPU      0.81s WALL (     331 calls)
 
     Parallel routines
     fft_scatter  :      2.61s CPU      2.78s WALL (    4320 calls)
 
     PWSCF        :    15.47s CPU        18.45s WALL

 
   This run was terminated on:   2:52:40  28Jul2018            

=------------------------------------------------------------------------------=
   JOB DONE.
=------------------------------------------------------------------------------=
