
     Program PWSCF v.6.0 (svn rev. 13079) starts on 28Jul2018 at  2:48:35 

     This program is part of the open-source Quantum ESPRESSO suite
     for quantum simulation of materials; please cite
         "P. Giannozzi et al., J. Phys.:Condens. Matter 21 395502 (2009);
          URL http://www.quantum-espresso.org", 
     in publications or presentations arising from this work. More details at
     http://www.quantum-espresso.org/quote

     Parallel version (MPI), running on    28 processors
     R & G space division:  proc/nbgrp/npool/nimage =      28
     Reading input from ../QMCmins/relax-90.in

     Current dimensions of program PWSCF are:
     Max number of different atomic species (ntypx) = 10
     Max number of k-points (npk) =  40000
     Max angular momentum in pseudopotentials (lmaxx) =  3
     Message from routine iosys:
     pot_extrapolation='second-order' not available, using 'atomic'
     Message from routine iosys:
     wfc_extrapolation='second-order' not available, using 'atomic'

     Subspace diagonalization in iterative solution of the eigenvalue problem:
     a serial algorithm will be used

 
     Parallelization info
     --------------------
     sticks:   dense  smooth     PW     G-vecs:    dense   smooth      PW
     Min         408     408    102                32936    32936    4116
     Max         409     409    103                32943    32943    4121
     Sum       11449   11449   2869               922329   922329  115313
 


     bravais-lattice index     =            1
     lattice parameter (alat)  =      20.0000  a.u.
     unit-cell volume          =    8000.0000 (a.u.)^3
     number of atoms/cell      =            3
     number of atomic types    =            2
     number of electrons       =         8.00
     number of Kohn-Sham states=            8
     kinetic-energy cutoff     =      90.0000  Ry
     charge density cutoff     =     360.0000  Ry
     convergence threshold     =      1.0E-08
     mixing beta               =       0.7000
     number of iterations used =            8  plain     mixing
     Exchange-correlation      = BLYP ( 1  3  1  3 0 0)
     nstep                     =           50


     celldm(1)=  20.000000  celldm(2)=   0.000000  celldm(3)=   0.000000
     celldm(4)=   0.000000  celldm(5)=   0.000000  celldm(6)=   0.000000

     crystal axes: (cart. coord. in units of alat)
               a(1) = (   1.000000   0.000000   0.000000 )  
               a(2) = (   0.000000   1.000000   0.000000 )  
               a(3) = (   0.000000   0.000000   1.000000 )  

     reciprocal axes: (cart. coord. in units 2 pi/alat)
               b(1) = (  1.000000  0.000000  0.000000 )  
               b(2) = (  0.000000  1.000000  0.000000 )  
               b(3) = (  0.000000  0.000000  1.000000 )  


     PseudoPot. # 1 for  H read from file:
     ../H.blyp-hgh.UPF
     MD5 check sum: c576e69559cde411e611be972c763230
     Pseudo is Norm-conserving, Zval =  1.0
     Generated in analytical, separable form
     Using radial grid of  929 points,  0 beta functions with: 

     PseudoPot. # 2 for  O read from file:
     ../O.blyp-hgh.UPF
     MD5 check sum: d0b7156309aa9befef28faac7bc56342
     Pseudo is Norm-conserving, Zval =  6.0
     Generated in analytical, separable form
     Using radial grid of 1095 points,  1 beta functions with: 
                l(1) =   0

     atomic species   valence    mass     pseudopotential
        H              1.00     1.01000      H( 1.00)
        O              6.00    16.00000      O( 1.00)

     No symmetry found



   Cartesian axes

     site n.     atom                  positions (alat units)
         1           H   tau(   1) = (   0.0865608  -0.0183233  -0.0258845  )
         2           H   tau(   2) = (  -0.0642883   0.0628158  -0.0088961  )
         3           O   tau(   3) = (  -0.0014060  -0.0028086   0.0077735  )

     number of k points=     1  Marzari-Vanderbilt smearing, width (Ry)=  0.0250
                       cart. coord. in units 2pi/alat
        k(    1) = (   0.0000000   0.0000000   0.0000000), wk =   2.0000000

     Dense  grid:   922329 G-vectors     FFT dimensions: ( 125, 125, 125)

     Estimated max dynamical RAM per process >      31.67Mb

     Estimated total allocated dynamical RAM >     886.64Mb

     Initial potential from superposition of free atoms
     Check: negative starting charge=   -0.015826

     starting charge    7.99998, renormalised to    8.00000

     negative rho (up, down):  1.583E-02 0.000E+00
     Starting wfc are    6 randomized atomic wfcs +    2 random wfc

     total cpu time spent up to now is        0.7 secs

     per-process dynamical memory:    33.5 Mb

     Self-consistent Calculation

     iteration #  1     ecut=    90.00 Ry     beta=0.70
     Davidson diagonalization with overlap
     ethr =  1.00E-02,  avg # of iterations =  7.0

     negative rho (up, down):  4.599E-03 0.000E+00

     total cpu time spent up to now is        1.0 secs

     total energy              =     -33.98358996 Ry
     Harris-Foulkes estimate   =     -34.24304628 Ry
     estimated scf accuracy    <       0.38549836 Ry

     iteration #  2     ecut=    90.00 Ry     beta=0.70
     Davidson diagonalization with overlap
     ethr =  4.82E-03,  avg # of iterations =  2.0

     negative rho (up, down):  2.702E-03 0.000E+00

     total cpu time spent up to now is        1.2 secs

     total energy              =     -34.04424060 Ry
     Harris-Foulkes estimate   =     -34.25478738 Ry
     estimated scf accuracy    <       0.45733323 Ry

     iteration #  3     ecut=    90.00 Ry     beta=0.70
     Davidson diagonalization with overlap
     ethr =  4.82E-03,  avg # of iterations =  2.0

     negative rho (up, down):  8.687E-05 0.000E+00

     total cpu time spent up to now is        1.4 secs

     total energy              =     -34.14609927 Ry
     Harris-Foulkes estimate   =     -34.14721104 Ry
     estimated scf accuracy    <       0.00640785 Ry

     iteration #  4     ecut=    90.00 Ry     beta=0.70
     Davidson diagonalization with overlap
     ethr =  8.01E-05,  avg # of iterations =  6.0

     negative rho (up, down):  1.567E-05 0.000E+00

     total cpu time spent up to now is        1.8 secs

     total energy              =     -34.14774114 Ry
     Harris-Foulkes estimate   =     -34.14784092 Ry
     estimated scf accuracy    <       0.00025357 Ry

     iteration #  5     ecut=    90.00 Ry     beta=0.70
     Davidson diagonalization with overlap
     ethr =  3.17E-06,  avg # of iterations =  6.0

     negative rho (up, down):  1.714E-06 0.000E+00

     total cpu time spent up to now is        2.0 secs

     total energy              =     -34.14777191 Ry
     Harris-Foulkes estimate   =     -34.14777324 Ry
     estimated scf accuracy    <       0.00000854 Ry

     iteration #  6     ecut=    90.00 Ry     beta=0.70
     Davidson diagonalization with overlap
     ethr =  1.07E-07,  avg # of iterations =  2.0

     total cpu time spent up to now is        2.3 secs

     total energy              =     -34.14777178 Ry
     Harris-Foulkes estimate   =     -34.14777369 Ry
     estimated scf accuracy    <       0.00000134 Ry

     iteration #  7     ecut=    90.00 Ry     beta=0.70
     Davidson diagonalization with overlap
     ethr =  1.68E-08,  avg # of iterations =  2.0

     total cpu time spent up to now is        2.5 secs

     total energy              =     -34.14777188 Ry
     Harris-Foulkes estimate   =     -34.14777197 Ry
     estimated scf accuracy    <       0.00000002 Ry

     iteration #  8     ecut=    90.00 Ry     beta=0.70
     Davidson diagonalization with overlap
     ethr =  2.01E-10,  avg # of iterations =  2.0

     total cpu time spent up to now is        2.6 secs

     End of self-consistent calculation

          k = 0.0000 0.0000 0.0000 (115313 PWs)   bands (ev):

   -24.5268 -13.7275  -7.8033  -6.8947  -1.0557   0.3786   0.6640   1.1253

     the Fermi energy is    -4.9476 ev

!    total energy              =     -34.14777174 Ry
     Harris-Foulkes estimate   =     -34.14777188 Ry
     estimated scf accuracy    <          6.3E-09 Ry

     The total energy is the sum of the following terms:

     one-electron contribution =     -63.23755807 Ry
     hartree contribution      =      33.10399253 Ry
     xc contribution           =      -8.32308221 Ry
     ewald contribution        =       4.30887602 Ry
     smearing contrib. (-TS)   =       0.00000000 Ry

     convergence has been achieved in   8 iterations

     Forces acting on atoms (Ry/au):

     atom    1 type  1   force =    -0.07388742    0.06149141   -0.00736843
     atom    2 type  1   force =     0.05137662    0.01451477   -0.03662538
     atom    3 type  2   force =     0.02251080   -0.07600618    0.04399380

     Total force =     0.147328     Total SCF correction =     0.000101

     BFGS Geometry Optimization

     number of scf cycles    =   1
     number of bfgs steps    =   0

     energy   new            =     -34.1477717417 Ry

     new trust radius        =       0.0964097469 bohr
     new conv_thr            =       0.0000000100 Ry


ATOMIC_POSITIONS (angstrom)
H        0.877020459  -0.161385145  -0.277849204
H       -0.653210662   0.672494883  -0.113533314
O       -0.002967797  -0.069945738   0.105551518



     Writing output data file pwscf.save
     Check: negative starting charge=   -0.015826
     NEW-OLD atomic charge density approx. for the potential
     Check: negative starting charge=   -0.015863

     negative rho (up, down):  1.646E-02 0.000E+00

     total cpu time spent up to now is        3.2 secs

     per-process dynamical memory:    45.8 Mb

     Self-consistent Calculation

     iteration #  1     ecut=    90.00 Ry     beta=0.70
     Davidson diagonalization with overlap
     c_bands:  1 eigenvalues not converged
     ethr =  1.00E-06,  avg # of iterations = 20.0

     negative rho (up, down):  4.206E-03 0.000E+00

     total cpu time spent up to now is        3.7 secs

     total energy              =     -34.15261583 Ry
     Harris-Foulkes estimate   =     -34.14553964 Ry
     estimated scf accuracy    <       0.00214827 Ry

     iteration #  2     ecut=    90.00 Ry     beta=0.70
     Davidson diagonalization with overlap
     ethr =  2.69E-05,  avg # of iterations =  7.0

     negative rho (up, down):  1.324E-03 0.000E+00

     total cpu time spent up to now is        3.9 secs

     total energy              =     -34.15793402 Ry
     Harris-Foulkes estimate   =     -34.15425146 Ry
     estimated scf accuracy    <       0.00015504 Ry

     iteration #  3     ecut=    90.00 Ry     beta=0.70
     Davidson diagonalization with overlap
     ethr =  1.94E-06,  avg # of iterations = 16.0

     negative rho (up, down):  6.860E-05 0.000E+00

     total cpu time spent up to now is        4.2 secs

     total energy              =     -34.15814335 Ry
     Harris-Foulkes estimate   =     -34.15797194 Ry
     estimated scf accuracy    <       0.00001328 Ry

     iteration #  4     ecut=    90.00 Ry     beta=0.70
     Davidson diagonalization with overlap
     c_bands:  1 eigenvalues not converged
     ethr =  1.66E-07,  avg # of iterations = 20.0

     negative rho (up, down):  1.502E-06 0.000E+00

     total cpu time spent up to now is        4.6 secs

     total energy              =     -34.16222678 Ry
     Harris-Foulkes estimate   =     -34.16222559 Ry
     estimated scf accuracy    <       0.00000279 Ry

     iteration #  5     ecut=    90.00 Ry     beta=0.70
     Davidson diagonalization with overlap
     ethr =  3.48E-08,  avg # of iterations =  4.0

     negative rho (up, down):  1.147E-08 0.000E+00

     total cpu time spent up to now is        4.8 secs

     total energy              =     -34.16222795 Ry
     Harris-Foulkes estimate   =     -34.16222763 Ry
     estimated scf accuracy    <       0.00000026 Ry

     iteration #  6     ecut=    90.00 Ry     beta=0.70
     Davidson diagonalization with overlap
     ethr =  3.20E-09,  avg # of iterations =  2.0

     total cpu time spent up to now is        4.9 secs

     End of self-consistent calculation

          k = 0.0000 0.0000 0.0000 (115313 PWs)   bands (ev):

   -24.7084 -13.5504  -8.1576  -6.9532  -0.9929   0.4034   0.6926   1.1265

     the Fermi energy is    -4.9921 ev

!    total energy              =     -34.16222809 Ry
     Harris-Foulkes estimate   =     -34.16222802 Ry
     estimated scf accuracy    <          3.3E-09 Ry

     The total energy is the sum of the following terms:

     one-electron contribution =     -63.41572059 Ry
     hartree contribution      =      33.17168577 Ry
     xc contribution           =      -8.33811716 Ry
     ewald contribution        =       4.41992389 Ry
     smearing contrib. (-TS)   =       0.00000000 Ry

     convergence has been achieved in   6 iterations

     Forces acting on atoms (Ry/au):

     atom    1 type  1   force =     0.00752209    0.04084964   -0.03384392
     atom    2 type  1   force =     0.07915188   -0.03312113   -0.01529150
     atom    3 type  2   force =    -0.08667398   -0.00772852    0.04913542

     Total force =     0.143014     Total SCF correction =     0.000151

     number of scf cycles    =   2
     number of bfgs steps    =   1

     energy   old            =     -34.1477717417 Ry
     energy   new            =     -34.1622280853 Ry

     CASE: energy  _new < energy  _old

     new trust radius        =       0.2121014433 bohr
     new conv_thr            =       0.0000000087 Ry


ATOMIC_POSITIONS (angstrom)
H        0.816756442  -0.077571324  -0.308576720
H       -0.551015213   0.661723953  -0.156995691
O       -0.044899228  -0.142988629   0.179741411



     Writing output data file pwscf.save
     Check: negative starting charge=   -0.015863
     NEW-OLD atomic charge density approx. for the potential
     Check: negative starting charge=   -0.015979

     negative rho (up, down):  3.161E-02 0.000E+00

     total cpu time spent up to now is        5.5 secs

     per-process dynamical memory:    45.8 Mb

     Self-consistent Calculation

     iteration #  1     ecut=    90.00 Ry     beta=0.70
     Davidson diagonalization with overlap
     c_bands:  2 eigenvalues not converged
     ethr =  1.00E-06,  avg # of iterations = 20.0

     negative rho (up, down):  7.440E-03 0.000E+00

     total cpu time spent up to now is        5.9 secs

     total energy              =     -34.16687892 Ry
     Harris-Foulkes estimate   =     -34.13393959 Ry
     estimated scf accuracy    <       0.00807660 Ry

     iteration #  2     ecut=    90.00 Ry     beta=0.70
     Davidson diagonalization with overlap
     ethr =  1.01E-04,  avg # of iterations =  6.0

     negative rho (up, down):  3.989E-03 0.000E+00

     total cpu time spent up to now is        6.2 secs

     total energy              =     -34.17324283 Ry
     Harris-Foulkes estimate   =     -34.16975067 Ry
     estimated scf accuracy    <       0.00415447 Ry

     iteration #  3     ecut=    90.00 Ry     beta=0.70
     Davidson diagonalization with overlap
     ethr =  5.19E-05,  avg # of iterations =  4.0

     negative rho (up, down):  4.254E-04 0.000E+00

     total cpu time spent up to now is        6.6 secs

     total energy              =     -34.17797224 Ry
     Harris-Foulkes estimate   =     -34.17453013 Ry
     estimated scf accuracy    <       0.00055334 Ry

     iteration #  4     ecut=    90.00 Ry     beta=0.70
     Davidson diagonalization with overlap
     ethr =  6.92E-06,  avg # of iterations = 17.0

     total cpu time spent up to now is        6.9 secs

     total energy              =     -34.18216276 Ry
     Harris-Foulkes estimate   =     -34.18215106 Ry
     estimated scf accuracy    <       0.00000367 Ry

     iteration #  5     ecut=    90.00 Ry     beta=0.70
     Davidson diagonalization with overlap
     ethr =  4.59E-08,  avg # of iterations = 12.0

     negative rho (up, down):  1.019E-08 0.000E+00

     total cpu time spent up to now is        7.2 secs

     total energy              =     -34.18216408 Ry
     Harris-Foulkes estimate   =     -34.18216437 Ry
     estimated scf accuracy    <       0.00000019 Ry

     iteration #  6     ecut=    90.00 Ry     beta=0.70
     Davidson diagonalization with overlap
     ethr =  2.41E-09,  avg # of iterations =  2.0

     total cpu time spent up to now is        7.4 secs

     total energy              =     -34.18216398 Ry
     Harris-Foulkes estimate   =     -34.18216410 Ry
     estimated scf accuracy    <       0.00000002 Ry

     iteration #  7     ecut=    90.00 Ry     beta=0.70
     Davidson diagonalization with overlap
     ethr =  2.99E-10,  avg # of iterations =  2.0

     total cpu time spent up to now is        7.6 secs

     End of self-consistent calculation

          k = 0.0000 0.0000 0.0000 (115313 PWs)   bands (ev):

   -24.9070 -12.5360  -9.1856  -7.0461  -1.0093   0.4061   0.7062   1.1161

     the Fermi energy is    -5.0495 ev

!    total energy              =     -34.18216398 Ry
     Harris-Foulkes estimate   =     -34.18216399 Ry
     estimated scf accuracy    <          2.7E-09 Ry

     The total energy is the sum of the following terms:

     one-electron contribution =     -63.22120655 Ry
     hartree contribution      =      33.04084107 Ry
     xc contribution           =      -8.32113766 Ry
     ewald contribution        =       4.31933916 Ry
     smearing contrib. (-TS)   =       0.00000000 Ry

     convergence has been achieved in   7 iterations

     Forces acting on atoms (Ry/au):

     atom    1 type  1   force =    -0.01754311   -0.00200070    0.00990318
     atom    2 type  1   force =     0.02302425   -0.03793782    0.01579854
     atom    3 type  2   force =    -0.00548114    0.03993852   -0.02570172

     Total force =     0.070104     Total SCF correction =     0.000119

     number of scf cycles    =   3
     number of bfgs steps    =   2

     energy   old            =     -34.1622280853 Ry
     energy   new            =     -34.1821639808 Ry

     CASE: energy  _new < energy  _old

     new trust radius        =       0.0400722485 bohr
     new conv_thr            =       0.0000000040 Ry


ATOMIC_POSITIONS (angstrom)
H        0.805133479  -0.077252535  -0.303127242
H       -0.540037465   0.644838227  -0.150360412
O       -0.044254015  -0.126421692   0.167656654



     Writing output data file pwscf.save
     Check: negative starting charge=   -0.015979
     NEW-OLD atomic charge density approx. for the potential
     Check: negative starting charge=   -0.015990

     negative rho (up, down):  6.965E-03 0.000E+00

     total cpu time spent up to now is        8.1 secs

     per-process dynamical memory:    45.8 Mb

     Self-consistent Calculation

     iteration #  1     ecut=    90.00 Ry     beta=0.70
     Davidson diagonalization with overlap
     ethr =  1.00E-06,  avg # of iterations = 19.0

     negative rho (up, down):  1.823E-03 0.000E+00

     total cpu time spent up to now is        8.6 secs

     total energy              =     -34.17778692 Ry
     Harris-Foulkes estimate   =     -34.17201747 Ry
     estimated scf accuracy    <       0.00212824 Ry

     iteration #  2     ecut=    90.00 Ry     beta=0.70
     Davidson diagonalization with overlap
     ethr =  2.66E-05,  avg # of iterations = 11.0

     negative rho (up, down):  1.133E-03 0.000E+00

     total cpu time spent up to now is        8.9 secs

     total energy              =     -34.17872161 Ry
     Harris-Foulkes estimate   =     -34.17933813 Ry
     estimated scf accuracy    <       0.00224819 Ry

     iteration #  3     ecut=    90.00 Ry     beta=0.70
     Davidson diagonalization with overlap
     ethr =  2.66E-05,  avg # of iterations =  3.0

     negative rho (up, down):  2.271E-04 0.000E+00

     total cpu time spent up to now is        9.1 secs

     total energy              =     -34.18333984 Ry
     Harris-Foulkes estimate   =     -34.18325945 Ry
     estimated scf accuracy    <       0.00001150 Ry

     iteration #  4     ecut=    90.00 Ry     beta=0.70
     Davidson diagonalization with overlap
     c_bands:  1 eigenvalues not converged
     ethr =  1.44E-07,  avg # of iterations = 20.0

     negative rho (up, down):  2.273E-05 0.000E+00

     total cpu time spent up to now is        9.4 secs

     total energy              =     -34.18334650 Ry
     Harris-Foulkes estimate   =     -34.18334644 Ry
     estimated scf accuracy    <       0.00000040 Ry

     iteration #  5     ecut=    90.00 Ry     beta=0.70
     Davidson diagonalization with overlap
     ethr =  4.97E-09,  avg # of iterations = 11.0

     negative rho (up, down):  1.541E-08 0.000E+00

     total cpu time spent up to now is        9.7 secs

     total energy              =     -34.18334576 Ry
     Harris-Foulkes estimate   =     -34.18334664 Ry
     estimated scf accuracy    <       0.00000002 Ry

     iteration #  6     ecut=    90.00 Ry     beta=0.70
     Davidson diagonalization with overlap
     ethr =  2.23E-10,  avg # of iterations =  2.0

     total cpu time spent up to now is        9.8 secs

     End of self-consistent calculation

          k = 0.0000 0.0000 0.0000 (115313 PWs)   bands (ev):

   -25.1868 -12.8792  -9.1478  -7.0929  -0.9174   0.4358   0.7693   1.1200

     the Fermi energy is    -5.1166 ev

!    total energy              =     -34.18334565 Ry
     Harris-Foulkes estimate   =     -34.18334578 Ry
     estimated scf accuracy    <          5.3E-10 Ry

     The total energy is the sum of the following terms:

     one-electron contribution =     -63.87678897 Ry
     hartree contribution      =      33.35596247 Ry
     xc contribution           =      -8.37249945 Ry
     ewald contribution        =       4.70998029 Ry
     smearing contrib. (-TS)   =       0.00000000 Ry

     convergence has been achieved in   6 iterations

     Forces acting on atoms (Ry/au):

     atom    1 type  1   force =     0.01323727    0.00184875   -0.00806696
     atom    2 type  1   force =    -0.00901638    0.01587568   -0.00699653
     atom    3 type  2   force =    -0.00422089   -0.01772443    0.01506350

     Total force =     0.034422     Total SCF correction =     0.000153

     number of scf cycles    =   4
     number of bfgs steps    =   3

     energy   old            =     -34.1821639808 Ry
     energy   new            =     -34.1833456515 Ry

     CASE: energy  _new < energy  _old

     new trust radius        =       0.0143381416 bohr
     new conv_thr            =       0.0000000012 Ry


ATOMIC_POSITIONS (angstrom)
H        0.809008558  -0.076426207  -0.305707429
H       -0.542609537   0.649713020  -0.152614303
O       -0.045557021  -0.132122813   0.172490732



     Writing output data file pwscf.save
     Check: negative starting charge=   -0.015990
     NEW-OLD atomic charge density approx. for the potential
     Check: negative starting charge=   -0.015991

     negative rho (up, down):  2.352E-03 0.000E+00

     total cpu time spent up to now is       10.4 secs

     per-process dynamical memory:    45.8 Mb

     Self-consistent Calculation

     iteration #  1     ecut=    90.00 Ry     beta=0.70
     Davidson diagonalization with overlap
     c_bands:  1 eigenvalues not converged
     ethr =  1.00E-06,  avg # of iterations = 20.0

     negative rho (up, down):  6.024E-04 0.000E+00

     total cpu time spent up to now is       10.9 secs

     total energy              =     -34.17946960 Ry
     Harris-Foulkes estimate   =     -34.17855899 Ry
     estimated scf accuracy    <       0.00025376 Ry

     iteration #  2     ecut=    90.00 Ry     beta=0.70
     Davidson diagonalization with overlap
     ethr =  3.17E-06,  avg # of iterations = 15.0

     negative rho (up, down):  3.712E-04 0.000E+00

     total cpu time spent up to now is       12.7 secs

     total energy              =     -34.18360792 Ry
     Harris-Foulkes estimate   =     -34.18373407 Ry
     estimated scf accuracy    <       0.00026895 Ry

     iteration #  3     ecut=    90.00 Ry     beta=0.70
     Davidson diagonalization with overlap
     ethr =  3.17E-06,  avg # of iterations =  2.0

     negative rho (up, down):  5.691E-05 0.000E+00

     total cpu time spent up to now is       12.9 secs

     total energy              =     -34.18366743 Ry
     Harris-Foulkes estimate   =     -34.18366342 Ry
     estimated scf accuracy    <       0.00000144 Ry

     iteration #  4     ecut=    90.00 Ry     beta=0.70
     Davidson diagonalization with overlap
     ethr =  1.80E-08,  avg # of iterations = 20.0

     negative rho (up, down):  5.124E-06 0.000E+00

     total cpu time spent up to now is       13.2 secs

     total energy              =     -34.18366945 Ry
     Harris-Foulkes estimate   =     -34.18366825 Ry
     estimated scf accuracy    <       0.00000005 Ry

     iteration #  5     ecut=    90.00 Ry     beta=0.70
     Davidson diagonalization with overlap
     ethr =  6.54E-10,  avg # of iterations =  2.0

     total cpu time spent up to now is       13.4 secs

     total energy              =     -34.18366976 Ry
     Harris-Foulkes estimate   =     -34.18366948 Ry
     estimated scf accuracy    <          2.6E-09 Ry

     iteration #  6     ecut=    90.00 Ry     beta=0.70
     Davidson diagonalization with overlap
     ethr =  3.25E-11,  avg # of iterations =  2.0

     total cpu time spent up to now is       13.5 secs

     End of self-consistent calculation

          k = 0.0000 0.0000 0.0000 (115313 PWs)   bands (ev):

   -25.0923 -12.7512  -9.1700  -7.0774  -0.9476   0.4257   0.7497   1.1183

     the Fermi energy is    -5.0942 ev

!    total energy              =     -34.18366981 Ry
     Harris-Foulkes estimate   =     -34.18366976 Ry
     estimated scf accuracy    <          6.6E-11 Ry

     The total energy is the sum of the following terms:

     one-electron contribution =     -63.65103574 Ry
     hartree contribution      =      33.24732036 Ry
     xc contribution           =      -8.35468967 Ry
     ewald contribution        =       4.57473524 Ry
     smearing contrib. (-TS)   =       0.00000000 Ry

     convergence has been achieved in   6 iterations

     Forces acting on atoms (Ry/au):

     atom    1 type  1   force =    -0.00016332   -0.00008291   -0.00005355
     atom    2 type  1   force =     0.00092881   -0.00166434    0.00062454
     atom    3 type  2   force =    -0.00076549    0.00174725   -0.00057099

     Total force =     0.002833     Total SCF correction =     0.000022

     number of scf cycles    =   5
     number of bfgs steps    =   4

     energy   old            =     -34.1833456515 Ry
     energy   new            =     -34.1836698149 Ry

     CASE: energy  _new < energy  _old

     new trust radius        =       0.0010961375 bohr
     new conv_thr            =       0.0000000002 Ry


ATOMIC_POSITIONS (angstrom)
H        0.808838244  -0.076377202  -0.305753943
H       -0.542337931   0.649225230  -0.152456980
O       -0.045658313  -0.131684027   0.172379923



     Writing output data file pwscf.save
     Check: negative starting charge=   -0.015991
     NEW-OLD atomic charge density approx. for the potential
     Check: negative starting charge=   -0.015991

     negative rho (up, down):  8.863E-05 0.000E+00

     total cpu time spent up to now is       14.1 secs

     per-process dynamical memory:    45.8 Mb

     Self-consistent Calculation

     iteration #  1     ecut=    90.00 Ry     beta=0.70
     Davidson diagonalization with overlap
     ethr =  1.00E-06,  avg # of iterations =  2.0

     Threshold (ethr) on eigenvalues was too large:
     Diagonalizing with lowered threshold

     Davidson diagonalization with overlap
     ethr =  1.03E-08,  avg # of iterations =  2.0

     negative rho (up, down):  1.501E-05 0.000E+00

     total cpu time spent up to now is       14.4 secs

     total energy              =     -34.18367140 Ry
     Harris-Foulkes estimate   =     -34.18367239 Ry
     estimated scf accuracy    <       0.00000089 Ry

     iteration #  2     ecut=    90.00 Ry     beta=0.70
     Davidson diagonalization with overlap
     ethr =  1.11E-08,  avg # of iterations =  2.0

     negative rho (up, down):  6.773E-06 0.000E+00

     total cpu time spent up to now is       14.6 secs

     total energy              =     -34.18367167 Ry
     Harris-Foulkes estimate   =     -34.18367200 Ry
     estimated scf accuracy    <       0.00000083 Ry

     iteration #  3     ecut=    90.00 Ry     beta=0.70
     Davidson diagonalization with overlap
     ethr =  1.03E-08,  avg # of iterations =  2.0

     negative rho (up, down):  2.698E-07 0.000E+00

     total cpu time spent up to now is       14.8 secs

     total energy              =     -34.18367186 Ry
     Harris-Foulkes estimate   =     -34.18367185 Ry
     estimated scf accuracy    <          9.4E-09 Ry

     iteration #  4     ecut=    90.00 Ry     beta=0.70
     Davidson diagonalization with overlap
     ethr =  1.17E-10,  avg # of iterations =  2.0

     total cpu time spent up to now is       15.0 secs

     total energy              =     -34.18367182 Ry
     Harris-Foulkes estimate   =     -34.18367186 Ry
     estimated scf accuracy    <          3.2E-10 Ry

     iteration #  5     ecut=    90.00 Ry     beta=0.70
     Davidson diagonalization with overlap
     ethr =  4.05E-12,  avg # of iterations =  2.0

     total cpu time spent up to now is       15.1 secs

     End of self-consistent calculation

          k = 0.0000 0.0000 0.0000 (115313 PWs)   bands (ev):

   -25.0979 -12.7575  -9.1696  -7.0783  -0.9459   0.4263   0.7509   1.1183

     the Fermi energy is    -5.0956 ev

!    total energy              =     -34.18367180 Ry
     Harris-Foulkes estimate   =     -34.18367182 Ry
     estimated scf accuracy    <          2.1E-11 Ry

     The total energy is the sum of the following terms:

     one-electron contribution =     -63.66387382 Ry
     hartree contribution      =      33.25346862 Ry
     xc contribution           =      -8.35569437 Ry
     ewald contribution        =       4.58242777 Ry
     smearing contrib. (-TS)   =       0.00000000 Ry

     convergence has been achieved in   5 iterations

     Forces acting on atoms (Ry/au):

     atom    1 type  1   force =    -0.00002431   -0.00001250   -0.00015583
     atom    2 type  1   force =    -0.00003572   -0.00009339   -0.00002451
     atom    3 type  2   force =     0.00006003    0.00010589    0.00018034

     Total force =     0.000288     Total SCF correction =     0.000112
     SCF correction compared to forces is large: reduce conv_thr to get better values

     bfgs converged in   6 scf cycles and   5 bfgs steps
     (criteria: energy <  1.0E-04, force <  1.0E-03)

     End of BFGS Geometry Optimization

     Final energy   =     -34.1836717991 Ry
Begin final coordinates

ATOMIC_POSITIONS (angstrom)
H        0.808838244  -0.076377202  -0.305753943
H       -0.542337931   0.649225230  -0.152456980
O       -0.045658313  -0.131684027   0.172379923
End final coordinates



     Writing output data file pwscf.save
 
     init_run     :      0.51s CPU      0.62s WALL (       1 calls)
     electrons    :     10.48s CPU     12.23s WALL (       6 calls)
     update_pot   :      1.21s CPU      1.50s WALL (       5 calls)
     forces       :      0.41s CPU      0.42s WALL (       6 calls)

     Called by init_run:
     wfcinit      :      0.04s CPU      0.04s WALL (       1 calls)
     potinit      :      0.11s CPU      0.12s WALL (       1 calls)

     Called by electrons:
     c_bands      :      4.85s CPU      5.06s WALL (      39 calls)
     sum_band     :      0.80s CPU      0.82s WALL (      39 calls)
     v_of_rho     :      2.35s CPU      2.49s WALL (      44 calls)
     mix_rho      :      2.10s CPU      2.99s WALL (      39 calls)

     Called by c_bands:
     init_us_2    :      0.02s CPU      0.02s WALL (      79 calls)
     cegterg      :      4.82s CPU      5.02s WALL (      39 calls)

     Called by sum_band:

     Called by *egterg:
     h_psi        :      4.10s CPU      4.28s WALL (     340 calls)
     g_psi        :      0.04s CPU      0.04s WALL (     300 calls)
     cdiaghg      :      0.08s CPU      0.09s WALL (     333 calls)

     Called by h_psi:
     h_psi:pot    :      4.06s CPU      4.24s WALL (     340 calls)
     h_psi:calbec :      0.06s CPU      0.08s WALL (     340 calls)
     vloc_psi     :      3.97s CPU      4.13s WALL (     340 calls)
     add_vuspsi   :      0.03s CPU      0.03s WALL (     340 calls)

     General routines
     calbec       :      0.06s CPU      0.08s WALL (     364 calls)
     fft          :      1.57s CPU      1.64s WALL (     497 calls)
     fftw         :      3.90s CPU      4.06s WALL (    2992 calls)
     davcio       :      0.10s CPU      0.64s WALL (     267 calls)
 
     Parallel routines
     fft_scatter  :      1.95s CPU      2.17s WALL (    3489 calls)
 
     PWSCF        :    13.02s CPU        15.55s WALL

 
   This run was terminated on:   2:48:50  28Jul2018            

=------------------------------------------------------------------------------=
   JOB DONE.
=------------------------------------------------------------------------------=
