
     Program PWSCF v.6.0 (svn rev. 13079) starts on 28Jul2018 at  2:48: 1 

     This program is part of the open-source Quantum ESPRESSO suite
     for quantum simulation of materials; please cite
         "P. Giannozzi et al., J. Phys.:Condens. Matter 21 395502 (2009);
          URL http://www.quantum-espresso.org", 
     in publications or presentations arising from this work. More details at
     http://www.quantum-espresso.org/quote

     Parallel version (MPI), running on    28 processors
     R & G space division:  proc/nbgrp/npool/nimage =      28
     Reading input from ../QMCmins/relax-89.in

     Current dimensions of program PWSCF are:
     Max number of different atomic species (ntypx) = 10
     Max number of k-points (npk) =  40000
     Max angular momentum in pseudopotentials (lmaxx) =  3
     Message from routine iosys:
     pot_extrapolation='second-order' not available, using 'atomic'
     Message from routine iosys:
     wfc_extrapolation='second-order' not available, using 'atomic'

     Subspace diagonalization in iterative solution of the eigenvalue problem:
     a serial algorithm will be used

 
     Parallelization info
     --------------------
     sticks:   dense  smooth     PW     G-vecs:    dense   smooth      PW
     Min         408     408    102                32936    32936    4116
     Max         409     409    103                32943    32943    4121
     Sum       11449   11449   2869               922329   922329  115313
 


     bravais-lattice index     =            1
     lattice parameter (alat)  =      20.0000  a.u.
     unit-cell volume          =    8000.0000 (a.u.)^3
     number of atoms/cell      =            3
     number of atomic types    =            2
     number of electrons       =         8.00
     number of Kohn-Sham states=            8
     kinetic-energy cutoff     =      90.0000  Ry
     charge density cutoff     =     360.0000  Ry
     convergence threshold     =      1.0E-08
     mixing beta               =       0.7000
     number of iterations used =            8  plain     mixing
     Exchange-correlation      = BLYP ( 1  3  1  3 0 0)
     nstep                     =           50


     celldm(1)=  20.000000  celldm(2)=   0.000000  celldm(3)=   0.000000
     celldm(4)=   0.000000  celldm(5)=   0.000000  celldm(6)=   0.000000

     crystal axes: (cart. coord. in units of alat)
               a(1) = (   1.000000   0.000000   0.000000 )  
               a(2) = (   0.000000   1.000000   0.000000 )  
               a(3) = (   0.000000   0.000000   1.000000 )  

     reciprocal axes: (cart. coord. in units 2 pi/alat)
               b(1) = (  1.000000  0.000000  0.000000 )  
               b(2) = (  0.000000  1.000000  0.000000 )  
               b(3) = (  0.000000  0.000000  1.000000 )  


     PseudoPot. # 1 for  H read from file:
     ../H.blyp-hgh.UPF
     MD5 check sum: c576e69559cde411e611be972c763230
     Pseudo is Norm-conserving, Zval =  1.0
     Generated in analytical, separable form
     Using radial grid of  929 points,  0 beta functions with: 

     PseudoPot. # 2 for  O read from file:
     ../O.blyp-hgh.UPF
     MD5 check sum: d0b7156309aa9befef28faac7bc56342
     Pseudo is Norm-conserving, Zval =  6.0
     Generated in analytical, separable form
     Using radial grid of 1095 points,  1 beta functions with: 
                l(1) =   0

     atomic species   valence    mass     pseudopotential
        H              1.00     1.01000      H( 1.00)
        O              6.00    16.00000      O( 1.00)

     No symmetry found



   Cartesian axes

     site n.     atom                  positions (alat units)
         1           H   tau(   1) = (   0.0372155  -0.0651145  -0.0336535  )
         2           H   tau(   2) = (   0.0600065  -0.0063701   0.0729694  )
         3           O   tau(   3) = (  -0.0061372   0.0045125   0.0030961  )

     number of k points=     1  Marzari-Vanderbilt smearing, width (Ry)=  0.0250
                       cart. coord. in units 2pi/alat
        k(    1) = (   0.0000000   0.0000000   0.0000000), wk =   2.0000000

     Dense  grid:   922329 G-vectors     FFT dimensions: ( 125, 125, 125)

     Estimated max dynamical RAM per process >      31.67Mb

     Estimated total allocated dynamical RAM >     886.64Mb

     Initial potential from superposition of free atoms
     Check: negative starting charge=   -0.016099

     starting charge    7.99998, renormalised to    8.00000

     negative rho (up, down):  1.610E-02 0.000E+00
     Starting wfc are    6 randomized atomic wfcs +    2 random wfc

     total cpu time spent up to now is        0.8 secs

     per-process dynamical memory:    33.5 Mb

     Self-consistent Calculation

     iteration #  1     ecut=    90.00 Ry     beta=0.70
     Davidson diagonalization with overlap
     ethr =  1.00E-02,  avg # of iterations =  7.0

     negative rho (up, down):  4.689E-03 0.000E+00

     total cpu time spent up to now is        1.1 secs

     total energy              =     -34.01697222 Ry
     Harris-Foulkes estimate   =     -34.24077271 Ry
     estimated scf accuracy    <       0.33920329 Ry

     iteration #  2     ecut=    90.00 Ry     beta=0.70
     Davidson diagonalization with overlap
     ethr =  4.24E-03,  avg # of iterations =  2.0

     negative rho (up, down):  2.903E-03 0.000E+00

     total cpu time spent up to now is        1.3 secs

     total energy              =     -34.06588323 Ry
     Harris-Foulkes estimate   =     -34.24989687 Ry
     estimated scf accuracy    <       0.40075653 Ry

     iteration #  3     ecut=    90.00 Ry     beta=0.70
     Davidson diagonalization with overlap
     ethr =  4.24E-03,  avg # of iterations =  2.0

     negative rho (up, down):  1.476E-04 0.000E+00

     total cpu time spent up to now is        1.5 secs

     total energy              =     -34.15531803 Ry
     Harris-Foulkes estimate   =     -34.15613180 Ry
     estimated scf accuracy    <       0.00602678 Ry

     iteration #  4     ecut=    90.00 Ry     beta=0.70
     Davidson diagonalization with overlap
     ethr =  7.53E-05,  avg # of iterations = 16.0

     negative rho (up, down):  1.981E-05 0.000E+00

     total cpu time spent up to now is        1.8 secs

     total energy              =     -34.15698572 Ry
     Harris-Foulkes estimate   =     -34.15711291 Ry
     estimated scf accuracy    <       0.00032113 Ry

     iteration #  5     ecut=    90.00 Ry     beta=0.70
     Davidson diagonalization with overlap
     ethr =  4.01E-06,  avg # of iterations = 12.0

     total cpu time spent up to now is        2.1 secs

     total energy              =     -34.15701171 Ry
     Harris-Foulkes estimate   =     -34.15701510 Ry
     estimated scf accuracy    <       0.00001605 Ry

     iteration #  6     ecut=    90.00 Ry     beta=0.70
     Davidson diagonalization with overlap
     ethr =  2.01E-07,  avg # of iterations =  2.0

     negative rho (up, down):  4.232E-07 0.000E+00

     total cpu time spent up to now is        2.3 secs

     total energy              =     -34.15701343 Ry
     Harris-Foulkes estimate   =     -34.15701339 Ry
     estimated scf accuracy    <       0.00000223 Ry

     iteration #  7     ecut=    90.00 Ry     beta=0.70
     Davidson diagonalization with overlap
     ethr =  2.79E-08,  avg # of iterations =  2.0

     total cpu time spent up to now is        2.5 secs

     total energy              =     -34.15701346 Ry
     Harris-Foulkes estimate   =     -34.15701369 Ry
     estimated scf accuracy    <       0.00000004 Ry

     iteration #  8     ecut=    90.00 Ry     beta=0.70
     Davidson diagonalization with overlap
     ethr =  5.14E-10,  avg # of iterations =  3.0

     total cpu time spent up to now is        2.6 secs

     End of self-consistent calculation

          k = 0.0000 0.0000 0.0000 (115313 PWs)   bands (ev):

   -25.4751 -11.6002 -10.2247  -7.1723  -1.0893   0.3653   0.7977   1.1066

     the Fermi energy is    -5.1987 ev

!    total energy              =     -34.15701335 Ry
     Harris-Foulkes estimate   =     -34.15701348 Ry
     estimated scf accuracy    <          5.8E-09 Ry

     The total energy is the sum of the following terms:

     one-electron contribution =     -63.64932246 Ry
     hartree contribution      =      33.21353871 Ry
     xc contribution           =      -8.34668540 Ry
     ewald contribution        =       4.62545580 Ry
     smearing contrib. (-TS)   =       0.00000000 Ry

     convergence has been achieved in   8 iterations

     Forces acting on atoms (Ry/au):

     atom    1 type  1   force =    -0.00329471   -0.06666448   -0.09205984
     atom    2 type  1   force =    -0.05746887    0.05625985    0.00122491
     atom    3 type  2   force =     0.06076358    0.01040462    0.09083492

     Total force =     0.177344     Total SCF correction =     0.000169

     BFGS Geometry Optimization

     number of scf cycles    =   1
     number of bfgs steps    =   0

     energy   new            =     -34.1570133456 Ry

     new trust radius        =       0.1137102510 bohr
     new conv_thr            =       0.0000000100 Ry


ATOMIC_POSITIONS (angstrom)
H        0.392128515  -0.724419321  -0.404888968
H        0.604669781  -0.037646569   0.772923197
O       -0.032798296   0.053263890   0.080835772



     Writing output data file pwscf.save
     Check: negative starting charge=   -0.016099
     NEW-OLD atomic charge density approx. for the potential
     Check: negative starting charge=   -0.016085

     negative rho (up, down):  1.926E-02 0.000E+00

     total cpu time spent up to now is        3.2 secs

     per-process dynamical memory:    45.8 Mb

     Self-consistent Calculation

     iteration #  1     ecut=    90.00 Ry     beta=0.70
     Davidson diagonalization with overlap
     c_bands:  1 eigenvalues not converged
     ethr =  1.00E-06,  avg # of iterations = 20.0

     negative rho (up, down):  5.096E-03 0.000E+00

     total cpu time spent up to now is        3.7 secs

     total energy              =     -25.70482793 Ry
     Harris-Foulkes estimate   =     -35.91370116 Ry
     estimated scf accuracy    <       0.99357194 Ry

     iteration #  2     ecut=    90.00 Ry     beta=0.70
     Davidson diagonalization with overlap
     ethr =  1.00E-02,  avg # of iterations =  3.0

     negative rho (up, down):  2.869E-03 0.000E+00

     total cpu time spent up to now is        3.9 secs

     total energy              =     -33.85487984 Ry
     Harris-Foulkes estimate   =     -34.88360243 Ry
     estimated scf accuracy    <       2.69958386 Ry

     iteration #  3     ecut=    90.00 Ry     beta=0.70
     Davidson diagonalization with overlap
     ethr =  1.00E-02,  avg # of iterations =  2.0

     negative rho (up, down):  2.067E-03 0.000E+00

     total cpu time spent up to now is        4.1 secs

     total energy              =     -34.16750802 Ry
     Harris-Foulkes estimate   =     -34.20270952 Ry
     estimated scf accuracy    <       0.22852443 Ry

     iteration #  4     ecut=    90.00 Ry     beta=0.70
     Davidson diagonalization with overlap
     ethr =  2.86E-03,  avg # of iterations =  1.0

     negative rho (up, down):  1.423E-03 0.000E+00

     total cpu time spent up to now is        4.3 secs

     total energy              =     -34.15556188 Ry
     Harris-Foulkes estimate   =     -34.17151215 Ry
     estimated scf accuracy    <       0.12904169 Ry

     iteration #  5     ecut=    90.00 Ry     beta=0.70
     Davidson diagonalization with overlap
     ethr =  1.61E-03,  avg # of iterations =  1.0

     negative rho (up, down):  1.138E-03 0.000E+00

     total cpu time spent up to now is        4.6 secs

     total energy              =     -34.15788232 Ry
     Harris-Foulkes estimate   =     -34.15857340 Ry
     estimated scf accuracy    <       0.04929477 Ry

     iteration #  6     ecut=    90.00 Ry     beta=0.70
     Davidson diagonalization with overlap
     ethr =  6.16E-04,  avg # of iterations =  1.0

     negative rho (up, down):  6.452E-04 0.000E+00

     total cpu time spent up to now is        4.8 secs

     total energy              =     -34.16044932 Ry
     Harris-Foulkes estimate   =     -34.15868695 Ry
     estimated scf accuracy    <       0.03225354 Ry

     iteration #  7     ecut=    90.00 Ry     beta=0.70
     Davidson diagonalization with overlap
     ethr =  4.03E-04,  avg # of iterations =  1.0

     negative rho (up, down):  2.086E-04 0.000E+00

     total cpu time spent up to now is        5.0 secs

     total energy              =     -34.16815855 Ry
     Harris-Foulkes estimate   =     -34.16555392 Ry
     estimated scf accuracy    <       0.01121673 Ry

     iteration #  8     ecut=    90.00 Ry     beta=0.70
     Davidson diagonalization with overlap
     ethr =  1.40E-04,  avg # of iterations =  4.0

     negative rho (up, down):  9.957E-06 0.000E+00

     total cpu time spent up to now is        5.2 secs

     total energy              =     -34.16931917 Ry
     Harris-Foulkes estimate   =     -34.16897559 Ry
     estimated scf accuracy    <       0.00141261 Ry

     iteration #  9     ecut=    90.00 Ry     beta=0.70
     Davidson diagonalization with overlap
     ethr =  1.77E-05,  avg # of iterations = 13.0

     negative rho (up, down):  4.903E-06 0.000E+00

     total cpu time spent up to now is        5.6 secs

     total energy              =     -34.16949231 Ry
     Harris-Foulkes estimate   =     -34.16949671 Ry
     estimated scf accuracy    <       0.00003737 Ry

     iteration # 10     ecut=    90.00 Ry     beta=0.70
     Davidson diagonalization with overlap
     ethr =  4.67E-07,  avg # of iterations = 11.0

     total cpu time spent up to now is        5.8 secs

     total energy              =     -34.16948837 Ry
     Harris-Foulkes estimate   =     -34.16949927 Ry
     estimated scf accuracy    <       0.00001733 Ry

     iteration # 11     ecut=    90.00 Ry     beta=0.70
     Davidson diagonalization with overlap
     ethr =  2.17E-07,  avg # of iterations =  1.0

     total cpu time spent up to now is        6.0 secs

     total energy              =     -34.16948900 Ry
     Harris-Foulkes estimate   =     -34.16948957 Ry
     estimated scf accuracy    <       0.00000067 Ry

     iteration # 12     ecut=    90.00 Ry     beta=0.70
     Davidson diagonalization with overlap
     ethr =  8.43E-09,  avg # of iterations =  2.0

     total cpu time spent up to now is        6.3 secs

     total energy              =     -34.16948851 Ry
     Harris-Foulkes estimate   =     -34.16948933 Ry
     estimated scf accuracy    <       0.00000132 Ry

     iteration # 13     ecut=    90.00 Ry     beta=0.70
     Davidson diagonalization with overlap
     ethr =  8.43E-09,  avg # of iterations =  2.0

     total cpu time spent up to now is        6.5 secs

     total energy              =     -34.16948858 Ry
     Harris-Foulkes estimate   =     -34.16948866 Ry
     estimated scf accuracy    <       0.00000007 Ry

     iteration # 14     ecut=    90.00 Ry     beta=0.70
     Davidson diagonalization with overlap
     ethr =  8.32E-10,  avg # of iterations =  2.0

     total cpu time spent up to now is        6.7 secs

     total energy              =     -34.16948843 Ry
     Harris-Foulkes estimate   =     -34.16948859 Ry
     estimated scf accuracy    <       0.00000004 Ry

     iteration # 15     ecut=    90.00 Ry     beta=0.70
     Davidson diagonalization with overlap
     ethr =  5.53E-10,  avg # of iterations =  2.0

     total cpu time spent up to now is        6.8 secs

     End of self-consistent calculation

          k = 0.0000 0.0000 0.0000 (115313 PWs)   bands (ev):

   -25.4298 -12.0594  -9.8845  -7.1549  -1.0071   0.3941   0.7994   1.1129

     the Fermi energy is    -5.1826 ev

!    total energy              =     -34.16948840 Ry
     Harris-Foulkes estimate   =     -34.16948843 Ry
     estimated scf accuracy    <          1.3E-09 Ry

     The total energy is the sum of the following terms:

     one-electron contribution =     -63.83029600 Ry
     hartree contribution      =      33.31112765 Ry
     xc contribution           =      -8.36400767 Ry
     ewald contribution        =       4.71368763 Ry
     smearing contrib. (-TS)   =       0.00000000 Ry

     convergence has been achieved in  15 iterations

     Forces acting on atoms (Ry/au):

     atom    1 type  1   force =    -0.04414668    0.03086478   -0.01653448
     atom    2 type  1   force =     0.04271524    0.02860800    0.09121188
     atom    3 type  2   force =     0.00143144   -0.05947278   -0.07467739

     Total force =     0.152490     Total SCF correction =     0.000028

     number of scf cycles    =   2
     number of bfgs steps    =   1

     energy   old            =     -34.1570133456 Ry
     energy   new            =     -34.1694883961 Ry

     CASE: energy  _new < energy  _old

     new trust radius        =       0.0863045423 bohr
     new conv_thr            =       0.0000000091 Ry


ATOMIC_POSITIONS (angstrom)
H        0.372985930  -0.726177043  -0.431998285
H        0.609875200  -0.013359295   0.811248346
O       -0.018861130   0.030734338   0.069619940



     Writing output data file pwscf.save
     Check: negative starting charge=   -0.016085
     NEW-OLD atomic charge density approx. for the potential
     Check: negative starting charge=   -0.016033

     negative rho (up, down):  9.865E-03 0.000E+00

     total cpu time spent up to now is        7.4 secs

     per-process dynamical memory:    45.8 Mb

     Self-consistent Calculation

     iteration #  1     ecut=    90.00 Ry     beta=0.70
     Davidson diagonalization with overlap
     ethr =  1.00E-06,  avg # of iterations = 20.0

     negative rho (up, down):  2.602E-03 0.000E+00

     total cpu time spent up to now is        7.9 secs

     total energy              =     -34.17396202 Ry
     Harris-Foulkes estimate   =     -34.17108798 Ry
     estimated scf accuracy    <       0.00074658 Ry

     iteration #  2     ecut=    90.00 Ry     beta=0.70
     Davidson diagonalization with overlap
     ethr =  9.33E-06,  avg # of iterations = 14.0

     negative rho (up, down):  8.169E-04 0.000E+00

     total cpu time spent up to now is        8.2 secs

     total energy              =     -34.17598237 Ry
     Harris-Foulkes estimate   =     -34.17461721 Ry
     estimated scf accuracy    <       0.00011275 Ry

     iteration #  3     ecut=    90.00 Ry     beta=0.70
     Davidson diagonalization with overlap
     ethr =  1.41E-06,  avg # of iterations = 17.0

     negative rho (up, down):  2.561E-04 0.000E+00

     total cpu time spent up to now is        8.5 secs

     total energy              =     -34.18010365 Ry
     Harris-Foulkes estimate   =     -34.18010612 Ry
     estimated scf accuracy    <       0.00004858 Ry

     iteration #  4     ecut=    90.00 Ry     beta=0.70
     Davidson diagonalization with overlap
     ethr =  6.07E-07,  avg # of iterations = 10.0

     negative rho (up, down):  8.073E-06 0.000E+00

     total cpu time spent up to now is        8.8 secs

     total energy              =     -34.18011708 Ry
     Harris-Foulkes estimate   =     -34.18011728 Ry
     estimated scf accuracy    <       0.00000325 Ry

     iteration #  5     ecut=    90.00 Ry     beta=0.70
     Davidson diagonalization with overlap
     ethr =  4.06E-08,  avg # of iterations =  3.0

     total cpu time spent up to now is        9.0 secs

     total energy              =     -34.18011767 Ry
     Harris-Foulkes estimate   =     -34.18011790 Ry
     estimated scf accuracy    <       0.00000004 Ry

     iteration #  6     ecut=    90.00 Ry     beta=0.70
     Davidson diagonalization with overlap
     ethr =  5.36E-10,  avg # of iterations =  2.0

     total cpu time spent up to now is        9.1 secs

     End of self-consistent calculation

          k = 0.0000 0.0000 0.0000 (115313 PWs)   bands (ev):

   -25.2480 -12.3500  -9.5771  -7.1180  -0.9733   0.4131   0.7722   1.1172

     the Fermi energy is    -5.1340 ev

!    total energy              =     -34.18011765 Ry
     Harris-Foulkes estimate   =     -34.18011769 Ry
     estimated scf accuracy    <          1.6E-09 Ry

     The total energy is the sum of the following terms:

     one-electron contribution =     -63.70408367 Ry
     hartree contribution      =      33.25997155 Ry
     xc contribution           =      -8.35610557 Ry
     ewald contribution        =       4.62010005 Ry
     smearing contrib. (-TS)   =       0.00000000 Ry

     convergence has been achieved in   6 iterations

     Forces acting on atoms (Ry/au):

     atom    1 type  1   force =    -0.01925829    0.00741297   -0.01484302
     atom    2 type  1   force =     0.00415544    0.01864531    0.02981404
     atom    3 type  2   force =     0.01510286   -0.02605828   -0.01497101

     Total force =     0.055056     Total SCF correction =     0.000126

     number of scf cycles    =   3
     number of bfgs steps    =   2

     energy   old            =     -34.1694883961 Ry
     energy   new            =     -34.1801176504 Ry

     CASE: energy  _new < energy  _old

     new trust radius        =       0.0920874707 bohr
     new conv_thr            =       0.0000000030 Ry


ATOMIC_POSITIONS (angstrom)
H        0.350525763  -0.731629794  -0.467958483
H        0.604565644   0.019102919   0.847202258
O        0.008908593   0.003724875   0.069626226



     Writing output data file pwscf.save
     Check: negative starting charge=   -0.016033
     NEW-OLD atomic charge density approx. for the potential
     Check: negative starting charge=   -0.015999

     negative rho (up, down):  1.325E-02 0.000E+00

     total cpu time spent up to now is        9.7 secs

     per-process dynamical memory:    45.8 Mb

     Self-consistent Calculation

     iteration #  1     ecut=    90.00 Ry     beta=0.70
     Davidson diagonalization with overlap
     c_bands:  1 eigenvalues not converged
     ethr =  1.00E-06,  avg # of iterations = 20.0

     negative rho (up, down):  1.435E-03 0.000E+00

     total cpu time spent up to now is       10.1 secs

     total energy              =      59.51147224 Ry
     Harris-Foulkes estimate   =   -3927.09140463 Ry
     estimated scf accuracy    <       6.80547351 Ry

     iteration #  2     ecut=    90.00 Ry     beta=0.70
     Davidson diagonalization with overlap
     ethr =  1.00E-02,  avg # of iterations =  3.0

     total cpu time spent up to now is       10.4 secs

     total energy              =     -32.38204001 Ry
     Harris-Foulkes estimate   =     -38.09070693 Ry
     estimated scf accuracy    <      12.63583738 Ry

     iteration #  3     ecut=    90.00 Ry     beta=0.70
     Davidson diagonalization with overlap
     ethr =  1.00E-02,  avg # of iterations =  3.0

     total cpu time spent up to now is       10.6 secs

     total energy              =     -34.46839982 Ry
     Harris-Foulkes estimate   =     -35.05060646 Ry
     estimated scf accuracy    <       1.79538424 Ry

     iteration #  4     ecut=    90.00 Ry     beta=0.70
     Davidson diagonalization with overlap
     ethr =  1.00E-02,  avg # of iterations =  1.0

     total cpu time spent up to now is       10.7 secs

     total energy              =     -34.44774092 Ry
     Harris-Foulkes estimate   =     -34.50599869 Ry
     estimated scf accuracy    <       0.89931949 Ry

     iteration #  5     ecut=    90.00 Ry     beta=0.70
     Davidson diagonalization with overlap
     ethr =  1.00E-02,  avg # of iterations =  1.0

     total cpu time spent up to now is       10.9 secs

     total energy              =     -34.35633505 Ry
     Harris-Foulkes estimate   =     -34.44876342 Ry
     estimated scf accuracy    <       0.81161468 Ry

     iteration #  6     ecut=    90.00 Ry     beta=0.70
     Davidson diagonalization with overlap
     ethr =  1.00E-02,  avg # of iterations =  1.0

     negative rho (up, down):  1.261E-02 0.000E+00

     total cpu time spent up to now is       11.1 secs

     total energy              =     -34.11803211 Ry
     Harris-Foulkes estimate   =     -34.35705066 Ry
     estimated scf accuracy    <       0.64803824 Ry

     iteration #  7     ecut=    90.00 Ry     beta=0.70
     Davidson diagonalization with overlap
     ethr =  8.10E-03,  avg # of iterations =  1.0

     negative rho (up, down):  2.481E-07 0.000E+00

     total cpu time spent up to now is       11.6 secs

     total energy              =     -34.14405324 Ry
     Harris-Foulkes estimate   =     -34.12970802 Ry
     estimated scf accuracy    <       0.14640185 Ry

     iteration #  8     ecut=    90.00 Ry     beta=0.70
     Davidson diagonalization with overlap
     ethr =  1.83E-03,  avg # of iterations =  1.0

     negative rho (up, down):  2.807E-03 0.000E+00

     total cpu time spent up to now is       11.8 secs

     total energy              =     -34.13464844 Ry
     Harris-Foulkes estimate   =     -34.14497662 Ry
     estimated scf accuracy    <       0.17224067 Ry

     iteration #  9     ecut=    90.00 Ry     beta=0.70
     Davidson diagonalization with overlap
     ethr =  1.83E-03,  avg # of iterations =  1.0

     negative rho (up, down):  6.943E-03 0.000E+00

     total cpu time spent up to now is       12.0 secs

     total energy              =     -34.12894052 Ry
     Harris-Foulkes estimate   =     -34.13485919 Ry
     estimated scf accuracy    <       0.13160358 Ry

     iteration # 10     ecut=    90.00 Ry     beta=0.70
     Davidson diagonalization with overlap
     ethr =  1.65E-03,  avg # of iterations =  1.0

     negative rho (up, down):  1.020E-02 0.000E+00

     total cpu time spent up to now is       12.2 secs

     total energy              =     -34.17504959 Ry
     Harris-Foulkes estimate   =     -34.12943435 Ry
     estimated scf accuracy    <       0.08050003 Ry

     iteration # 11     ecut=    90.00 Ry     beta=0.70
     Davidson diagonalization with overlap
     ethr =  1.01E-03,  avg # of iterations =  1.0

     negative rho (up, down):  6.217E-04 0.000E+00

     total cpu time spent up to now is       12.4 secs

     total energy              =     -34.17850079 Ry
     Harris-Foulkes estimate   =     -34.17977544 Ry
     estimated scf accuracy    <       0.00512215 Ry

     iteration # 12     ecut=    90.00 Ry     beta=0.70
     Davidson diagonalization with overlap
     ethr =  6.40E-05,  avg # of iterations =  9.0

     negative rho (up, down):  6.185E-04 0.000E+00

     total cpu time spent up to now is       12.7 secs

     total energy              =     -34.18355559 Ry
     Harris-Foulkes estimate   =     -34.18357560 Ry
     estimated scf accuracy    <       0.00041618 Ry

     iteration # 13     ecut=    90.00 Ry     beta=0.70
     Davidson diagonalization with overlap
     ethr =  5.20E-06,  avg # of iterations =  7.0

     total cpu time spent up to now is       12.9 secs

     total energy              =     -34.18350773 Ry
     Harris-Foulkes estimate   =     -34.18356588 Ry
     estimated scf accuracy    <       0.00036365 Ry

     iteration # 14     ecut=    90.00 Ry     beta=0.70
     Davidson diagonalization with overlap
     ethr =  4.55E-06,  avg # of iterations =  4.0

     total cpu time spent up to now is       13.2 secs

     total energy              =     -34.18347901 Ry
     Harris-Foulkes estimate   =     -34.18351709 Ry
     estimated scf accuracy    <       0.00019610 Ry

     iteration # 15     ecut=    90.00 Ry     beta=0.70
     Davidson diagonalization with overlap
     ethr =  2.45E-06,  avg # of iterations =  1.0

     total cpu time spent up to now is       13.4 secs

     total energy              =     -34.18346425 Ry
     Harris-Foulkes estimate   =     -34.18348844 Ry
     estimated scf accuracy    <       0.00005460 Ry

     iteration # 16     ecut=    90.00 Ry     beta=0.70
     Davidson diagonalization with overlap
     ethr =  6.82E-07,  avg # of iterations =  2.0

     negative rho (up, down):  7.503E-07 0.000E+00

     total cpu time spent up to now is       13.6 secs

     total energy              =     -34.18347990 Ry
     Harris-Foulkes estimate   =     -34.18347923 Ry
     estimated scf accuracy    <       0.00000216 Ry

     iteration # 17     ecut=    90.00 Ry     beta=0.70
     Davidson diagonalization with overlap
     ethr =  2.70E-08,  avg # of iterations =  1.0

     total cpu time spent up to now is       13.8 secs

     total energy              =     -34.18347876 Ry
     Harris-Foulkes estimate   =     -34.18348000 Ry
     estimated scf accuracy    <       0.00000278 Ry

     iteration # 18     ecut=    90.00 Ry     beta=0.70
     Davidson diagonalization with overlap
     ethr =  2.70E-08,  avg # of iterations =  1.0

     total cpu time spent up to now is       14.0 secs

     total energy              =     -34.18347875 Ry
     Harris-Foulkes estimate   =     -34.18347896 Ry
     estimated scf accuracy    <       0.00000038 Ry

     iteration # 19     ecut=    90.00 Ry     beta=0.70
     Davidson diagonalization with overlap
     ethr =  4.70E-09,  avg # of iterations =  2.0

     total cpu time spent up to now is       14.3 secs

     total energy              =     -34.18347891 Ry
     Harris-Foulkes estimate   =     -34.18347885 Ry
     estimated scf accuracy    <          3.2E-09 Ry

     iteration # 20     ecut=    90.00 Ry     beta=0.70
     Davidson diagonalization with overlap
     ethr =  4.02E-11,  avg # of iterations =  2.0

     total cpu time spent up to now is       14.4 secs

     End of self-consistent calculation

          k = 0.0000 0.0000 0.0000 (115313 PWs)   bands (ev):

   -25.1473 -12.8057  -9.1711  -7.0847  -0.9328   0.4293   0.7606   1.1222

     the Fermi energy is    -5.1050 ev

!    total energy              =     -34.18347894 Ry
     Harris-Foulkes estimate   =     -34.18347891 Ry
     estimated scf accuracy    <          2.4E-10 Ry

     The total energy is the sum of the following terms:

     one-electron contribution =     -63.76778429 Ry
     hartree contribution      =      33.30286076 Ry
     xc contribution           =      -8.36367431 Ry
     ewald contribution        =       4.64511890 Ry
     smearing contrib. (-TS)   =       0.00000000 Ry

     convergence has been achieved in  20 iterations

     Forces acting on atoms (Ry/au):

     atom    1 type  1   force =     0.00724036   -0.01031337   -0.00987876
     atom    2 type  1   force =     0.00297460    0.00142696    0.00036829
     atom    3 type  2   force =    -0.01021496    0.00888641    0.00951046

     Total force =     0.023263     Total SCF correction =     0.000033

     number of scf cycles    =   4
     number of bfgs steps    =   3

     energy   old            =     -34.1801176504 Ry
     energy   new            =     -34.1834789373 Ry

     CASE: energy  _new < energy  _old

     new trust radius        =       0.0149706432 bohr
     new conv_thr            =       0.0000000010 Ry


ATOMIC_POSITIONS (angstrom)
H        0.352520704  -0.736152970  -0.474148889
H        0.606910509   0.021298325   0.850419824
O        0.004568787   0.006052645   0.072599065



     Writing output data file pwscf.save
     Check: negative starting charge=   -0.015999
     NEW-OLD atomic charge density approx. for the potential
     Check: negative starting charge=   -0.015998

     negative rho (up, down):  1.736E-03 0.000E+00

     total cpu time spent up to now is       15.1 secs

     per-process dynamical memory:    45.8 Mb

     Self-consistent Calculation

     iteration #  1     ecut=    90.00 Ry     beta=0.70
     Davidson diagonalization with overlap
     ethr =  1.00E-06,  avg # of iterations = 18.0

     negative rho (up, down):  4.408E-04 0.000E+00

     total cpu time spent up to now is       15.4 secs

     total energy              =     -34.17945988 Ry
     Harris-Foulkes estimate   =     -34.17917307 Ry
     estimated scf accuracy    <       0.00017622 Ry

     iteration #  2     ecut=    90.00 Ry     beta=0.70
     Davidson diagonalization with overlap
     ethr =  2.20E-06,  avg # of iterations = 14.0

     negative rho (up, down):  2.647E-04 0.000E+00

     total cpu time spent up to now is       15.7 secs

     total energy              =     -34.18357432 Ry
     Harris-Foulkes estimate   =     -34.18365683 Ry
     estimated scf accuracy    <       0.00016892 Ry

     iteration #  3     ecut=    90.00 Ry     beta=0.70
     Davidson diagonalization with overlap
     ethr =  2.11E-06,  avg # of iterations =  2.0

     negative rho (up, down):  4.392E-05 0.000E+00

     total cpu time spent up to now is       15.9 secs

     total energy              =     -34.18361303 Ry
     Harris-Foulkes estimate   =     -34.18361099 Ry
     estimated scf accuracy    <       0.00000175 Ry

     iteration #  4     ecut=    90.00 Ry     beta=0.70
     Davidson diagonalization with overlap
     ethr =  2.18E-08,  avg # of iterations = 11.0

     negative rho (up, down):  2.090E-06 0.000E+00

     total cpu time spent up to now is       16.2 secs

     total energy              =     -34.18361447 Ry
     Harris-Foulkes estimate   =     -34.18361368 Ry
     estimated scf accuracy    <       0.00000005 Ry

     iteration #  5     ecut=    90.00 Ry     beta=0.70
     Davidson diagonalization with overlap
     ethr =  5.65E-10,  avg # of iterations =  2.0

     total cpu time spent up to now is       16.5 secs

     total energy              =     -34.18361470 Ry
     Harris-Foulkes estimate   =     -34.18361449 Ry
     estimated scf accuracy    <          2.0E-09 Ry

     iteration #  6     ecut=    90.00 Ry     beta=0.70
     Davidson diagonalization with overlap
     ethr =  2.52E-11,  avg # of iterations =  2.0

     total cpu time spent up to now is       16.6 secs

     End of self-consistent calculation

          k = 0.0000 0.0000 0.0000 (115313 PWs)   bands (ev):

   -25.0595 -12.7216  -9.1663  -7.0692  -0.9576   0.4226   0.7424   1.1213

     the Fermi energy is    -5.0838 ev

!    total energy              =     -34.18361474 Ry
     Harris-Foulkes estimate   =     -34.18361470 Ry
     estimated scf accuracy    <          9.5E-11 Ry

     The total energy is the sum of the following terms:

     one-electron contribution =     -63.57578191 Ry
     hartree contribution      =      33.21121970 Ry
     xc contribution           =      -8.34874992 Ry
     ewald contribution        =       4.52969738 Ry
     smearing contrib. (-TS)   =       0.00000000 Ry

     convergence has been achieved in   6 iterations

     Forces acting on atoms (Ry/au):

     atom    1 type  1   force =     0.00013202    0.00858174    0.00229186
     atom    2 type  1   force =    -0.00053963    0.00192185   -0.00723667
     atom    3 type  2   force =     0.00040762   -0.01050359    0.00494482

     Total force =     0.016438     Total SCF correction =     0.000088

     number of scf cycles    =   5
     number of bfgs steps    =   4

     energy   old            =     -34.1834789373 Ry
     energy   new            =     -34.1836147448 Ry

     CASE: energy  _new < energy  _old

     new trust radius        =       0.0078007313 bohr
     new conv_thr            =       0.0000000001 Ry


ATOMIC_POSITIONS (angstrom)
H        0.353719458  -0.733724041  -0.473679417
H        0.607595731   0.021587366   0.847479845
O        0.002684811   0.003334675   0.075069572



     Writing output data file pwscf.save
     Check: negative starting charge=   -0.015998
     NEW-OLD atomic charge density approx. for the potential
     Check: negative starting charge=   -0.016000

     negative rho (up, down):  1.198E-03 0.000E+00

     total cpu time spent up to now is       17.2 secs

     per-process dynamical memory:    45.8 Mb

     Self-consistent Calculation

     iteration #  1     ecut=    90.00 Ry     beta=0.70
     Davidson diagonalization with overlap
     ethr =  1.00E-06,  avg # of iterations = 13.0

     negative rho (up, down):  2.981E-04 0.000E+00

     total cpu time spent up to now is       17.6 secs

     total energy              =     -34.17967602 Ry
     Harris-Foulkes estimate   =     -34.17960722 Ry
     estimated scf accuracy    <       0.00001978 Ry

     iteration #  2     ecut=    90.00 Ry     beta=0.70
     Davidson diagonalization with overlap
     ethr =  2.47E-07,  avg # of iterations =  9.0

     negative rho (up, down):  1.541E-04 0.000E+00

     total cpu time spent up to now is       17.8 secs

     total energy              =     -34.18375917 Ry
     Harris-Foulkes estimate   =     -34.18376285 Ry
     estimated scf accuracy    <       0.00001079 Ry

     iteration #  3     ecut=    90.00 Ry     beta=0.70
     Davidson diagonalization with overlap
     ethr =  1.35E-07,  avg # of iterations =  2.0

     negative rho (up, down):  8.791E-06 0.000E+00

     total cpu time spent up to now is       18.0 secs

     total energy              =     -34.18376597 Ry
     Harris-Foulkes estimate   =     -34.18376232 Ry
     estimated scf accuracy    <       0.00000095 Ry

     iteration #  4     ecut=    90.00 Ry     beta=0.70
     Davidson diagonalization with overlap
     ethr =  1.19E-08,  avg # of iterations =  3.0

     negative rho (up, down):  1.879E-08 0.000E+00

     total cpu time spent up to now is       18.2 secs

     total energy              =     -34.18376645 Ry
     Harris-Foulkes estimate   =     -34.18376626 Ry
     estimated scf accuracy    <          8.1E-09 Ry

     iteration #  5     ecut=    90.00 Ry     beta=0.70
     Davidson diagonalization with overlap
     ethr =  1.02E-10,  avg # of iterations =  3.0

     total cpu time spent up to now is       18.4 secs

     total energy              =     -34.18376645 Ry
     Harris-Foulkes estimate   =     -34.18376646 Ry
     estimated scf accuracy    <          7.5E-10 Ry

     iteration #  6     ecut=    90.00 Ry     beta=0.70
     Davidson diagonalization with overlap
     ethr =  9.40E-12,  avg # of iterations =  2.0

     total cpu time spent up to now is       18.6 secs

     End of self-consistent calculation

          k = 0.0000 0.0000 0.0000 (115313 PWs)   bands (ev):

   -25.0829 -12.7376  -9.1724  -7.0744  -0.9512   0.4245   0.7477   1.1213

     the Fermi energy is    -5.0896 ev

!    total energy              =     -34.18376646 Ry
     Harris-Foulkes estimate   =     -34.18376645 Ry
     estimated scf accuracy    <          3.8E-11 Ry

     The total energy is the sum of the following terms:

     one-electron contribution =     -63.62548500 Ry
     hartree contribution      =      33.23486431 Ry
     xc contribution           =      -8.35274408 Ry
     ewald contribution        =       4.55959831 Ry
     smearing contrib. (-TS)   =       0.00000000 Ry

     convergence has been achieved in   6 iterations

     Forces acting on atoms (Ry/au):

     atom    1 type  1   force =     0.00156612    0.00607501   -0.00074958
     atom    2 type  1   force =     0.00296770    0.00213634   -0.00414245
     atom    3 type  2   force =    -0.00453382   -0.00821135    0.00489203

     Total force =     0.013504     Total SCF correction =     0.000029

     number of scf cycles    =   6
     number of bfgs steps    =   5

     energy   old            =     -34.1836147448 Ry
     energy   new            =     -34.1837664607 Ry

     CASE: energy  _new < energy  _old


     WARNING: bfgs curvature condition failed, Theta= 0.902
     new trust radius        =       0.0085808045 bohr
     new conv_thr            =       0.0000000002 Ry


ATOMIC_POSITIONS (angstrom)
H        0.355041272  -0.731513773  -0.473804426
H        0.608681350   0.022133330   0.844916729
O        0.000277379   0.000578443   0.077757697



     Writing output data file pwscf.save
     Check: negative starting charge=   -0.016000
     NEW-OLD atomic charge density approx. for the potential
     Check: negative starting charge=   -0.016001

     negative rho (up, down):  1.334E-03 0.000E+00

     total cpu time spent up to now is       19.1 secs

     per-process dynamical memory:    45.8 Mb

     Self-consistent Calculation

     iteration #  1     ecut=    90.00 Ry     beta=0.70
     Davidson diagonalization with overlap
     ethr =  1.00E-06,  avg # of iterations =  6.0

     negative rho (up, down):  3.337E-04 0.000E+00

     total cpu time spent up to now is       19.5 secs

     total energy              =     -34.17979967 Ry
     Harris-Foulkes estimate   =     -34.17967836 Ry
     estimated scf accuracy    <       0.00001540 Ry

     iteration #  2     ecut=    90.00 Ry     beta=0.70
     Davidson diagonalization with overlap
     ethr =  1.93E-07,  avg # of iterations =  4.0

     negative rho (up, down):  1.368E-04 0.000E+00

     total cpu time spent up to now is       19.7 secs

     total energy              =     -34.18388200 Ry
     Harris-Foulkes estimate   =     -34.18388269 Ry
     estimated scf accuracy    <       0.00000442 Ry

     iteration #  3     ecut=    90.00 Ry     beta=0.70
     Davidson diagonalization with overlap
     ethr =  5.53E-08,  avg # of iterations =  2.0

     negative rho (up, down):  8.254E-06 0.000E+00

     total cpu time spent up to now is       19.9 secs

     total energy              =     -34.18388678 Ry
     Harris-Foulkes estimate   =     -34.18388381 Ry
     estimated scf accuracy    <       0.00000127 Ry

     iteration #  4     ecut=    90.00 Ry     beta=0.70
     Davidson diagonalization with overlap
     ethr =  1.58E-08,  avg # of iterations =  3.0

     total cpu time spent up to now is       20.1 secs

     total energy              =     -34.18388714 Ry
     Harris-Foulkes estimate   =     -34.18388713 Ry
     estimated scf accuracy    <          9.9E-09 Ry

     iteration #  5     ecut=    90.00 Ry     beta=0.70
     Davidson diagonalization with overlap
     ethr =  1.24E-10,  avg # of iterations =  2.0

     total cpu time spent up to now is       20.3 secs

     total energy              =     -34.18388713 Ry
     Harris-Foulkes estimate   =     -34.18388715 Ry
     estimated scf accuracy    <          6.7E-10 Ry

     iteration #  6     ecut=    90.00 Ry     beta=0.70
     Davidson diagonalization with overlap
     ethr =  8.38E-12,  avg # of iterations =  2.0

     total cpu time spent up to now is       20.6 secs

     End of self-consistent calculation

          k = 0.0000 0.0000 0.0000 (115313 PWs)   bands (ev):

   -25.0976 -12.7459  -9.1779  -7.0784  -0.9472   0.4257   0.7511   1.1215

     the Fermi energy is    -5.0931 ev

!    total energy              =     -34.18388714 Ry
     Harris-Foulkes estimate   =     -34.18388713 Ry
     estimated scf accuracy    <          9.0E-11 Ry

     The total energy is the sum of the following terms:

     one-electron contribution =     -63.65704849 Ry
     hartree contribution      =      33.24992303 Ry
     xc contribution           =      -8.35535317 Ry
     ewald contribution        =       4.57859149 Ry
     smearing contrib. (-TS)   =       0.00000000 Ry

     convergence has been achieved in   6 iterations

     Forces acting on atoms (Ry/au):

     atom    1 type  1   force =     0.00087757    0.00314078   -0.00139663
     atom    2 type  1   force =     0.00413024    0.00072255   -0.00065290
     atom    3 type  2   force =    -0.00500782   -0.00386333    0.00204953

     Total force =     0.008649     Total SCF correction =     0.000013

     number of scf cycles    =   7
     number of bfgs steps    =   6

     energy   old            =     -34.1837664607 Ry
     energy   new            =     -34.1838871398 Ry

     CASE: energy  _new < energy  _old

     new trust radius        =       0.0124046391 bohr
     new conv_thr            =       0.0000000001 Ry


ATOMIC_POSITIONS (angstrom)
H        0.356676100  -0.728019821  -0.473821057
H        0.611416784   0.022006134   0.841375950
O       -0.004092883  -0.002788314   0.081315107



     Writing output data file pwscf.save
     Check: negative starting charge=   -0.016001
     NEW-OLD atomic charge density approx. for the potential
     Check: negative starting charge=   -0.016004

     negative rho (up, down):  2.010E-03 0.000E+00

     total cpu time spent up to now is       21.2 secs

     per-process dynamical memory:    45.8 Mb

     Self-consistent Calculation

     iteration #  1     ecut=    90.00 Ry     beta=0.70
     Davidson diagonalization with overlap
     ethr =  1.00E-06,  avg # of iterations =  8.0

     negative rho (up, down):  5.101E-04 0.000E+00

     total cpu time spent up to now is       21.5 secs

     total energy              =     -34.17981460 Ry
     Harris-Foulkes estimate   =     -34.17916007 Ry
     estimated scf accuracy    <       0.00002514 Ry

     iteration #  2     ecut=    90.00 Ry     beta=0.70
     Davidson diagonalization with overlap
     ethr =  3.14E-07,  avg # of iterations =  7.0

     negative rho (up, down):  1.043E-04 0.000E+00

     total cpu time spent up to now is       21.8 secs

     total energy              =     -34.18390284 Ry
     Harris-Foulkes estimate   =     -34.18389929 Ry
     estimated scf accuracy    <       0.00000262 Ry

     iteration #  3     ecut=    90.00 Ry     beta=0.70
     Davidson diagonalization with overlap
     ethr =  3.28E-08,  avg # of iterations =  4.0

     negative rho (up, down):  1.451E-05 0.000E+00

     total cpu time spent up to now is       22.0 secs

     total energy              =     -34.18390569 Ry
     Harris-Foulkes estimate   =     -34.18390433 Ry
     estimated scf accuracy    <       0.00000172 Ry

     iteration #  4     ecut=    90.00 Ry     beta=0.70
     Davidson diagonalization with overlap
     ethr =  2.15E-08,  avg # of iterations =  2.0

     total cpu time spent up to now is       22.2 secs

     total energy              =     -34.18390646 Ry
     Harris-Foulkes estimate   =     -34.18390614 Ry
     estimated scf accuracy    <       0.00000004 Ry

     iteration #  5     ecut=    90.00 Ry     beta=0.70
     Davidson diagonalization with overlap
     ethr =  4.81E-10,  avg # of iterations =  2.0

     total cpu time spent up to now is       22.4 secs

     total energy              =     -34.18390647 Ry
     Harris-Foulkes estimate   =     -34.18390648 Ry
     estimated scf accuracy    <          8.9E-10 Ry

     iteration #  6     ecut=    90.00 Ry     beta=0.70
     Davidson diagonalization with overlap
     ethr =  1.12E-11,  avg # of iterations =  3.0

     total cpu time spent up to now is       22.5 secs

     End of self-consistent calculation

          k = 0.0000 0.0000 0.0000 (115313 PWs)   bands (ev):

   -25.1126 -12.7405  -9.1941  -7.0819  -0.9450   0.4263   0.7542   1.1218

     the Fermi energy is    -5.0967 ev

!    total energy              =     -34.18390647 Ry
     Harris-Foulkes estimate   =     -34.18390647 Ry
     estimated scf accuracy    <          4.7E-11 Ry

     The total energy is the sum of the following terms:

     one-electron contribution =     -63.68072374 Ry
     hartree contribution      =      33.26081350 Ry
     xc contribution           =      -8.35717402 Ry
     ewald contribution        =       4.59317779 Ry
     smearing contrib. (-TS)   =       0.00000000 Ry

     convergence has been achieved in   6 iterations

     Forces acting on atoms (Ry/au):

     atom    1 type  1   force =    -0.00266049   -0.00133450   -0.00042501
     atom    2 type  1   force =     0.00158585   -0.00156704    0.00417595
     atom    3 type  2   force =     0.00107464    0.00290154   -0.00375093

     Total force =     0.007422     Total SCF correction =     0.000016

     number of scf cycles    =   8
     number of bfgs steps    =   7

     energy   old            =     -34.1838871398 Ry
     energy   new            =     -34.1839064714 Ry

     CASE: energy  _new < energy  _old

     new trust radius        =       0.0048817495 bohr
     new conv_thr            =            1.0E-10 Ry


ATOMIC_POSITIONS (angstrom)
H        0.355268600  -0.729111408  -0.474375778
H        0.610984982   0.022016831   0.843387426
O       -0.002253582  -0.001707423   0.079858351



     Writing output data file pwscf.save
     Check: negative starting charge=   -0.016004
     NEW-OLD atomic charge density approx. for the potential
     Check: negative starting charge=   -0.016002

     negative rho (up, down):  7.040E-04 0.000E+00

     total cpu time spent up to now is       23.1 secs

     per-process dynamical memory:    45.8 Mb

     Self-consistent Calculation

     iteration #  1     ecut=    90.00 Ry     beta=0.70
     Davidson diagonalization with overlap
     ethr =  1.00E-06,  avg # of iterations =  4.0

     Threshold (ethr) on eigenvalues was too large:
     Diagonalizing with lowered threshold

     Davidson diagonalization with overlap
     ethr =  5.40E-08,  avg # of iterations =  2.0

     negative rho (up, down):  1.694E-04 0.000E+00

     total cpu time spent up to now is       23.5 secs

     total energy              =     -34.18392628 Ry
     Harris-Foulkes estimate   =     -34.18391852 Ry
     estimated scf accuracy    <       0.00000447 Ry

     iteration #  2     ecut=    90.00 Ry     beta=0.70
     Davidson diagonalization with overlap
     ethr =  5.58E-08,  avg # of iterations =  3.0

     negative rho (up, down):  4.066E-05 0.000E+00

     total cpu time spent up to now is       23.7 secs

     total energy              =     -34.18393033 Ry
     Harris-Foulkes estimate   =     -34.18392749 Ry
     estimated scf accuracy    <       0.00000061 Ry

     iteration #  3     ecut=    90.00 Ry     beta=0.70
     Davidson diagonalization with overlap
     ethr =  7.60E-09,  avg # of iterations =  3.0

     negative rho (up, down):  3.201E-06 0.000E+00

     total cpu time spent up to now is       23.9 secs

     total energy              =     -34.18393091 Ry
     Harris-Foulkes estimate   =     -34.18393067 Ry
     estimated scf accuracy    <       0.00000038 Ry

     iteration #  4     ecut=    90.00 Ry     beta=0.70
     Davidson diagonalization with overlap
     ethr =  4.69E-09,  avg # of iterations =  2.0

     total cpu time spent up to now is       24.1 secs

     total energy              =     -34.18393115 Ry
     Harris-Foulkes estimate   =     -34.18393101 Ry
     estimated scf accuracy    <          5.2E-09 Ry

     iteration #  5     ecut=    90.00 Ry     beta=0.70
     Davidson diagonalization with overlap
     ethr =  6.56E-11,  avg # of iterations =  2.0

     total cpu time spent up to now is       24.3 secs

     total energy              =     -34.18393118 Ry
     Harris-Foulkes estimate   =     -34.18393116 Ry
     estimated scf accuracy    <          2.2E-10 Ry

     iteration #  6     ecut=    90.00 Ry     beta=0.70
     Davidson diagonalization with overlap
     ethr =  2.78E-12,  avg # of iterations =  2.0

     total cpu time spent up to now is       24.4 secs

     End of self-consistent calculation

          k = 0.0000 0.0000 0.0000 (115313 PWs)   bands (ev):

   -25.1028 -12.7442  -9.1836  -7.0800  -0.9462   0.4260   0.7523   1.1217

     the Fermi energy is    -5.0943 ev

!    total energy              =     -34.18393119 Ry
     Harris-Foulkes estimate   =     -34.18393118 Ry
     estimated scf accuracy    <          1.5E-11 Ry

     The total energy is the sum of the following terms:

     one-electron contribution =     -63.66632622 Ry
     hartree contribution      =      33.25425440 Ry
     xc contribution           =      -8.35611235 Ry
     ewald contribution        =       4.58425297 Ry
     smearing contrib. (-TS)   =       0.00000000 Ry

     convergence has been achieved in   6 iterations

     Forces acting on atoms (Ry/au):

     atom    1 type  1   force =    -0.00079190   -0.00026420   -0.00103979
     atom    2 type  1   force =     0.00165820   -0.00097230    0.00087733
     atom    3 type  2   force =    -0.00086630    0.00123650    0.00016246

     Total force =     0.002924     Total SCF correction =     0.000012

     number of scf cycles    =   9
     number of bfgs steps    =   8

     energy   old            =     -34.1839064714 Ry
     energy   new            =     -34.1839311945 Ry

     CASE: energy  _new < energy  _old

     new trust radius        =       0.0015602078 bohr
     new conv_thr            =            1.0E-10 Ry


ATOMIC_POSITIONS (angstrom)
H        0.354565781  -0.728996015  -0.474701926
H        0.611540337   0.021440149   0.843589115
O       -0.002106118  -0.001246134   0.079982811



     Writing output data file pwscf.save
     Check: negative starting charge=   -0.016002
     NEW-OLD atomic charge density approx. for the potential
     Check: negative starting charge=   -0.016002

     negative rho (up, down):  9.837E-05 0.000E+00

     total cpu time spent up to now is       25.0 secs

     per-process dynamical memory:    45.8 Mb

     Self-consistent Calculation

     iteration #  1     ecut=    90.00 Ry     beta=0.70
     Davidson diagonalization with overlap
     ethr =  1.00E-06,  avg # of iterations =  2.0

     Threshold (ethr) on eigenvalues was too large:
     Diagonalizing with lowered threshold

     Davidson diagonalization with overlap
     ethr =  3.87E-09,  avg # of iterations =  2.0

     negative rho (up, down):  1.721E-05 0.000E+00

     total cpu time spent up to now is       25.3 secs

     total energy              =     -34.18393578 Ry
     Harris-Foulkes estimate   =     -34.18393451 Ry
     estimated scf accuracy    <       0.00000038 Ry

     iteration #  2     ecut=    90.00 Ry     beta=0.70
     Davidson diagonalization with overlap
     ethr =  4.77E-09,  avg # of iterations =  2.0

     negative rho (up, down):  5.544E-06 0.000E+00

     total cpu time spent up to now is       25.8 secs

     total energy              =     -34.18393598 Ry
     Harris-Foulkes estimate   =     -34.18393593 Ry
     estimated scf accuracy    <       0.00000015 Ry

     iteration #  3     ecut=    90.00 Ry     beta=0.70
     Davidson diagonalization with overlap
     ethr =  1.83E-09,  avg # of iterations =  2.0

     negative rho (up, down):  1.129E-07 0.000E+00

     total cpu time spent up to now is       26.0 secs

     total energy              =     -34.18393613 Ry
     Harris-Foulkes estimate   =     -34.18393604 Ry
     estimated scf accuracy    <       0.00000003 Ry

     iteration #  4     ecut=    90.00 Ry     beta=0.70
     Davidson diagonalization with overlap
     ethr =  3.15E-10,  avg # of iterations =  2.0

     total cpu time spent up to now is       26.2 secs

     total energy              =     -34.18393617 Ry
     Harris-Foulkes estimate   =     -34.18393614 Ry
     estimated scf accuracy    <          2.7E-10 Ry

     iteration #  5     ecut=    90.00 Ry     beta=0.70
     Davidson diagonalization with overlap
     ethr =  3.41E-12,  avg # of iterations =  3.0

     total cpu time spent up to now is       26.4 secs

     End of self-consistent calculation

          k = 0.0000 0.0000 0.0000 (115313 PWs)   bands (ev):

   -25.1002 -12.7417  -9.1836  -7.0796  -0.9469   0.4257   0.7517   1.1216

     the Fermi energy is    -5.0937 ev

!    total energy              =     -34.18393616 Ry
     Harris-Foulkes estimate   =     -34.18393617 Ry
     estimated scf accuracy    <          3.1E-11 Ry

     The total energy is the sum of the following terms:

     one-electron contribution =     -63.66070676 Ry
     hartree contribution      =      33.25158268 Ry
     xc contribution           =      -8.35568085 Ry
     ewald contribution        =       4.58086877 Ry
     smearing contrib. (-TS)   =       0.00000000 Ry

     convergence has been achieved in   5 iterations

     Forces acting on atoms (Ry/au):

     atom    1 type  1   force =    -0.00081221    0.00032911   -0.00079625
     atom    2 type  1   force =     0.00142598   -0.00068266    0.00046945
     atom    3 type  2   force =    -0.00061376    0.00035356    0.00032680

     Total force =     0.002175     Total SCF correction =     0.000030

     number of scf cycles    =  10
     number of bfgs steps    =   9

     energy   old            =     -34.1839311945 Ry
     energy   new            =     -34.1839361580 Ry

     CASE: energy  _new < energy  _old

     new trust radius        =       0.0017162286 bohr
     new conv_thr            =            1.0E-10 Ry


ATOMIC_POSITIONS (angstrom)
H        0.353816255  -0.728735755  -0.475143834
H        0.612178342   0.020968863   0.843770452
O       -0.001994597  -0.001035108   0.080243382



     Writing output data file pwscf.save
     Check: negative starting charge=   -0.016002
     NEW-OLD atomic charge density approx. for the potential
     Check: negative starting charge=   -0.016002

     negative rho (up, down):  6.395E-05 0.000E+00

     total cpu time spent up to now is       27.0 secs

     per-process dynamical memory:    45.8 Mb

     Self-consistent Calculation

     iteration #  1     ecut=    90.00 Ry     beta=0.70
     Davidson diagonalization with overlap
     ethr =  1.00E-06,  avg # of iterations =  2.0

     Threshold (ethr) on eigenvalues was too large:
     Diagonalizing with lowered threshold

     Davidson diagonalization with overlap
     ethr =  2.61E-09,  avg # of iterations =  2.0

     negative rho (up, down):  9.767E-06 0.000E+00

     total cpu time spent up to now is       27.4 secs

     total energy              =     -34.18394042 Ry
     Harris-Foulkes estimate   =     -34.18393985 Ry
     estimated scf accuracy    <       0.00000025 Ry

     iteration #  2     ecut=    90.00 Ry     beta=0.70
     Davidson diagonalization with overlap
     ethr =  3.14E-09,  avg # of iterations =  2.0

     negative rho (up, down):  1.771E-06 0.000E+00

     total cpu time spent up to now is       27.6 secs

     total energy              =     -34.18394047 Ry
     Harris-Foulkes estimate   =     -34.18394049 Ry
     estimated scf accuracy    <       0.00000005 Ry

     iteration #  3     ecut=    90.00 Ry     beta=0.70
     Davidson diagonalization with overlap
     ethr =  6.79E-10,  avg # of iterations =  2.0

     negative rho (up, down):  2.613E-08 0.000E+00

     total cpu time spent up to now is       27.8 secs

     total energy              =     -34.18394056 Ry
     Harris-Foulkes estimate   =     -34.18394049 Ry
     estimated scf accuracy    <       0.00000002 Ry

     iteration #  4     ecut=    90.00 Ry     beta=0.70
     Davidson diagonalization with overlap
     ethr =  2.64E-10,  avg # of iterations =  2.0

     total cpu time spent up to now is       28.0 secs

     total energy              =     -34.18394057 Ry
     Harris-Foulkes estimate   =     -34.18394057 Ry
     estimated scf accuracy    <          2.4E-10 Ry

     iteration #  5     ecut=    90.00 Ry     beta=0.70
     Davidson diagonalization with overlap
     ethr =  2.97E-12,  avg # of iterations =  2.0

     total cpu time spent up to now is       28.1 secs

     End of self-consistent calculation

          k = 0.0000 0.0000 0.0000 (115313 PWs)   bands (ev):

   -25.0982 -12.7412  -9.1825  -7.0792  -0.9473   0.4256   0.7513   1.1215

     the Fermi energy is    -5.0933 ev

!    total energy              =     -34.18394054 Ry
     Harris-Foulkes estimate   =     -34.18394057 Ry
     estimated scf accuracy    <          1.6E-11 Ry

     The total energy is the sum of the following terms:

     one-electron contribution =     -63.65714845 Ry
     hartree contribution      =      33.24991140 Ry
     xc contribution           =      -8.35541122 Ry
     ewald contribution        =       4.57870772 Ry
     smearing contrib. (-TS)   =       0.00000000 Ry

     convergence has been achieved in   5 iterations

     Forces acting on atoms (Ry/au):

     atom    1 type  1   force =    -0.00076003    0.00052519   -0.00056250
     atom    2 type  1   force =     0.00118948   -0.00062021    0.00018046
     atom    3 type  2   force =    -0.00042946    0.00009502    0.00038204

     Total force =     0.001828     Total SCF correction =     0.000013

     number of scf cycles    =  11
     number of bfgs steps    =  10

     energy   old            =     -34.1839361580 Ry
     energy   new            =     -34.1839405443 Ry

     CASE: energy  _new < energy  _old

     new trust radius        =       0.0025743428 bohr
     new conv_thr            =            1.0E-10 Ry


ATOMIC_POSITIONS (angstrom)
H        0.352693511  -0.728210776  -0.475709219
H        0.613226473   0.020131476   0.843881762
O       -0.001919985  -0.000722700   0.080697457



     Writing output data file pwscf.save
     Check: negative starting charge=   -0.016002
     NEW-OLD atomic charge density approx. for the potential
     Check: negative starting charge=   -0.016002

     negative rho (up, down):  1.158E-04 0.000E+00

     total cpu time spent up to now is       28.6 secs

     per-process dynamical memory:    45.8 Mb

     Self-consistent Calculation

     iteration #  1     ecut=    90.00 Ry     beta=0.70
     Davidson diagonalization with overlap
     ethr =  1.00E-06,  avg # of iterations =  3.0

     Threshold (ethr) on eigenvalues was too large:
     Diagonalizing with lowered threshold

     Davidson diagonalization with overlap
     ethr =  5.79E-09,  avg # of iterations =  3.0

     negative rho (up, down):  2.116E-05 0.000E+00

     total cpu time spent up to now is       29.0 secs

     total energy              =     -34.18394590 Ry
     Harris-Foulkes estimate   =     -34.18394510 Ry
     estimated scf accuracy    <       0.00000057 Ry

     iteration #  2     ecut=    90.00 Ry     beta=0.70
     Davidson diagonalization with overlap
     ethr =  7.12E-09,  avg # of iterations =  2.0

     negative rho (up, down):  3.139E-06 0.000E+00

     total cpu time spent up to now is       29.2 secs

     total energy              =     -34.18394631 Ry
     Harris-Foulkes estimate   =     -34.18394601 Ry
     estimated scf accuracy    <       0.00000008 Ry

     iteration #  3     ecut=    90.00 Ry     beta=0.70
     Davidson diagonalization with overlap
     ethr =  1.02E-09,  avg # of iterations =  2.0

     negative rho (up, down):  1.007E-07 0.000E+00

     total cpu time spent up to now is       29.4 secs

     total energy              =     -34.18394631 Ry
     Harris-Foulkes estimate   =     -34.18394636 Ry
     estimated scf accuracy    <       0.00000005 Ry

     iteration #  4     ecut=    90.00 Ry     beta=0.70
     Davidson diagonalization with overlap
     ethr =  5.69E-10,  avg # of iterations =  2.0

     total cpu time spent up to now is       29.6 secs

     total energy              =     -34.18394639 Ry
     Harris-Foulkes estimate   =     -34.18394632 Ry
     estimated scf accuracy    <          8.4E-10 Ry

     iteration #  5     ecut=    90.00 Ry     beta=0.70
     Davidson diagonalization with overlap
     ethr =  1.06E-11,  avg # of iterations =  2.0

     total cpu time spent up to now is       29.8 secs

     End of self-consistent calculation

          k = 0.0000 0.0000 0.0000 (115313 PWs)   bands (ev):

   -25.0964 -12.7400  -9.1820  -7.0789  -0.9478   0.4255   0.7510   1.1215

     the Fermi energy is    -5.0928 ev

!    total energy              =     -34.18394638 Ry
     Harris-Foulkes estimate   =     -34.18394639 Ry
     estimated scf accuracy    <          2.9E-11 Ry

     The total energy is the sum of the following terms:

     one-electron contribution =     -63.65362181 Ry
     hartree contribution      =      33.24824514 Ry
     xc contribution           =      -8.35514453 Ry
     ewald contribution        =       4.57657481 Ry
     smearing contrib. (-TS)   =       0.00000000 Ry

     convergence has been achieved in   5 iterations

     Forces acting on atoms (Ry/au):

     atom    1 type  1   force =    -0.00074862    0.00070913   -0.00029719
     atom    2 type  1   force =     0.00080262   -0.00045461   -0.00005545
     atom    3 type  2   force =    -0.00005400   -0.00025452    0.00035264

     Total force =     0.001482     Total SCF correction =     0.000030

     bfgs converged in  12 scf cycles and  11 bfgs steps
     (criteria: energy <  1.0E-04, force <  1.0E-03)

     End of BFGS Geometry Optimization

     Final energy   =     -34.1839463826 Ry
Begin final coordinates

ATOMIC_POSITIONS (angstrom)
H        0.352693511  -0.728210776  -0.475709219
H        0.613226473   0.020131476   0.843881762
O       -0.001919985  -0.000722700   0.080697457
End final coordinates



     Writing output data file pwscf.save
 
     init_run     :      0.58s CPU      0.72s WALL (       1 calls)
     electrons    :     20.34s CPU     24.18s WALL (      12 calls)
     update_pot   :      2.68s CPU      3.12s WALL (      11 calls)
     forces       :      0.80s CPU      0.81s WALL (      12 calls)

     Called by init_run:
     wfcinit      :      0.02s CPU      0.04s WALL (       1 calls)
     potinit      :      0.11s CPU      0.12s WALL (       1 calls)

     Called by electrons:
     c_bands      :      8.66s CPU      8.91s WALL (      98 calls)
     sum_band     :      2.07s CPU      2.31s WALL (      98 calls)
     v_of_rho     :      5.57s CPU      5.86s WALL (     106 calls)
     mix_rho      :      2.68s CPU      4.64s WALL (      98 calls)

     Called by c_bands:
     init_us_2    :      0.05s CPU      0.06s WALL (     197 calls)
     cegterg      :      8.60s CPU      8.82s WALL (      98 calls)

     Called by sum_band:

     Called by *egterg:
     h_psi        :      7.44s CPU      7.62s WALL (     523 calls)
     g_psi        :      0.07s CPU      0.07s WALL (     424 calls)
     cdiaghg      :      0.12s CPU      0.12s WALL (     507 calls)

     Called by h_psi:
     h_psi:pot    :      7.36s CPU      7.55s WALL (     523 calls)
     h_psi:calbec :      0.10s CPU      0.10s WALL (     523 calls)
     vloc_psi     :      7.21s CPU      7.39s WALL (     523 calls)
     add_vuspsi   :      0.05s CPU      0.06s WALL (     523 calls)

     General routines
     calbec       :      0.10s CPU      0.10s WALL (     571 calls)
     fft          :      4.05s CPU      4.55s WALL (    1197 calls)
     fftw         :      7.34s CPU      7.55s WALL (    5764 calls)
     davcio       :      0.35s CPU      1.98s WALL (     899 calls)
 
     Parallel routines
     fft_scatter  :      4.29s CPU      4.95s WALL (    6961 calls)
 
     PWSCF        :    25.07s CPU        30.17s WALL

 
   This run was terminated on:   2:48:31  28Jul2018            

=------------------------------------------------------------------------------=
   JOB DONE.
=------------------------------------------------------------------------------=
