
     Program PWSCF v.6.0 (svn rev. 13079) starts on 28Jul2018 at  2:11: 8 

     This program is part of the open-source Quantum ESPRESSO suite
     for quantum simulation of materials; please cite
         "P. Giannozzi et al., J. Phys.:Condens. Matter 21 395502 (2009);
          URL http://www.quantum-espresso.org", 
     in publications or presentations arising from this work. More details at
     http://www.quantum-espresso.org/quote

     Parallel version (MPI), running on    28 processors
     R & G space division:  proc/nbgrp/npool/nimage =      28
     Reading input from ../QMCmins/relax-1.in

     Current dimensions of program PWSCF are:
     Max number of different atomic species (ntypx) = 10
     Max number of k-points (npk) =  40000
     Max angular momentum in pseudopotentials (lmaxx) =  3
     Message from routine iosys:
     pot_extrapolation='second-order' not available, using 'atomic'
     Message from routine iosys:
     wfc_extrapolation='second-order' not available, using 'atomic'

     Subspace diagonalization in iterative solution of the eigenvalue problem:
     a serial algorithm will be used

 
     Parallelization info
     --------------------
     sticks:   dense  smooth     PW     G-vecs:    dense   smooth      PW
     Min         408     408    102                32936    32936    4116
     Max         409     409    103                32943    32943    4121
     Sum       11449   11449   2869               922329   922329  115313
 


     bravais-lattice index     =            1
     lattice parameter (alat)  =      20.0000  a.u.
     unit-cell volume          =    8000.0000 (a.u.)^3
     number of atoms/cell      =            3
     number of atomic types    =            2
     number of electrons       =         8.00
     number of Kohn-Sham states=            8
     kinetic-energy cutoff     =      90.0000  Ry
     charge density cutoff     =     360.0000  Ry
     convergence threshold     =      1.0E-08
     mixing beta               =       0.7000
     number of iterations used =            8  plain     mixing
     Exchange-correlation      = BLYP ( 1  3  1  3 0 0)
     nstep                     =           50


     celldm(1)=  20.000000  celldm(2)=   0.000000  celldm(3)=   0.000000
     celldm(4)=   0.000000  celldm(5)=   0.000000  celldm(6)=   0.000000

     crystal axes: (cart. coord. in units of alat)
               a(1) = (   1.000000   0.000000   0.000000 )  
               a(2) = (   0.000000   1.000000   0.000000 )  
               a(3) = (   0.000000   0.000000   1.000000 )  

     reciprocal axes: (cart. coord. in units 2 pi/alat)
               b(1) = (  1.000000  0.000000  0.000000 )  
               b(2) = (  0.000000  1.000000  0.000000 )  
               b(3) = (  0.000000  0.000000  1.000000 )  


     PseudoPot. # 1 for  H read from file:
     ../H.blyp-hgh.UPF
     MD5 check sum: c576e69559cde411e611be972c763230
     Pseudo is Norm-conserving, Zval =  1.0
     Generated in analytical, separable form
     Using radial grid of  929 points,  0 beta functions with: 

     PseudoPot. # 2 for  O read from file:
     ../O.blyp-hgh.UPF
     MD5 check sum: d0b7156309aa9befef28faac7bc56342
     Pseudo is Norm-conserving, Zval =  6.0
     Generated in analytical, separable form
     Using radial grid of 1095 points,  1 beta functions with: 
                l(1) =   0

     atomic species   valence    mass     pseudopotential
        H              1.00     1.01000      H( 1.00)
        O              6.00    16.00000      O( 1.00)

     No symmetry found



   Cartesian axes

     site n.     atom                  positions (alat units)
         1           H   tau(   1) = (   0.0355644  -0.0505409   0.0658149  )
         2           H   tau(   2) = (  -0.0285476  -0.0401407  -0.0547678  )
         3           O   tau(   3) = (  -0.0004430   0.0057243   0.0048806  )

     number of k points=     1  Marzari-Vanderbilt smearing, width (Ry)=  0.0250
                       cart. coord. in units 2pi/alat
        k(    1) = (   0.0000000   0.0000000   0.0000000), wk =   2.0000000

     Dense  grid:   922329 G-vectors     FFT dimensions: ( 125, 125, 125)

     Estimated max dynamical RAM per process >      31.67Mb

     Estimated total allocated dynamical RAM >     886.64Mb

     Initial potential from superposition of free atoms
     Check: negative starting charge=   -0.016066

     starting charge    7.99998, renormalised to    8.00000

     negative rho (up, down):  1.607E-02 0.000E+00
     Starting wfc are    6 randomized atomic wfcs +    2 random wfc

     total cpu time spent up to now is        0.7 secs

     per-process dynamical memory:    33.5 Mb

     Self-consistent Calculation

     iteration #  1     ecut=    90.00 Ry     beta=0.70
     Davidson diagonalization with overlap
     ethr =  1.00E-02,  avg # of iterations =  8.0

     negative rho (up, down):  4.708E-03 0.000E+00

     total cpu time spent up to now is        1.0 secs

     total energy              =     -33.97094495 Ry
     Harris-Foulkes estimate   =     -34.26347302 Ry
     estimated scf accuracy    <       0.43010436 Ry

     iteration #  2     ecut=    90.00 Ry     beta=0.70
     Davidson diagonalization with overlap
     ethr =  5.38E-03,  avg # of iterations =  2.0

     negative rho (up, down):  2.762E-03 0.000E+00

     total cpu time spent up to now is        1.2 secs

     total energy              =     -34.05312259 Ry
     Harris-Foulkes estimate   =     -34.23638535 Ry
     estimated scf accuracy    <       0.37737570 Ry

     iteration #  3     ecut=    90.00 Ry     beta=0.70
     Davidson diagonalization with overlap
     ethr =  4.72E-03,  avg # of iterations =  2.0

     negative rho (up, down):  2.054E-04 0.000E+00

     total cpu time spent up to now is        1.4 secs

     total energy              =     -34.14047429 Ry
     Harris-Foulkes estimate   =     -34.14182679 Ry
     estimated scf accuracy    <       0.00626883 Ry

     iteration #  4     ecut=    90.00 Ry     beta=0.70
     Davidson diagonalization with overlap
     ethr =  7.84E-05,  avg # of iterations =  5.0

     negative rho (up, down):  1.853E-05 0.000E+00

     total cpu time spent up to now is        1.6 secs

     total energy              =     -34.14228957 Ry
     Harris-Foulkes estimate   =     -34.14248147 Ry
     estimated scf accuracy    <       0.00046707 Ry

     iteration #  5     ecut=    90.00 Ry     beta=0.70
     Davidson diagonalization with overlap
     ethr =  5.84E-06,  avg # of iterations = 13.0

     total cpu time spent up to now is        1.9 secs

     total energy              =     -34.14233294 Ry
     Harris-Foulkes estimate   =     -34.14233640 Ry
     estimated scf accuracy    <       0.00001756 Ry

     iteration #  6     ecut=    90.00 Ry     beta=0.70
     Davidson diagonalization with overlap
     ethr =  2.19E-07,  avg # of iterations =  2.0

     negative rho (up, down):  2.153E-08 0.000E+00

     total cpu time spent up to now is        2.1 secs

     total energy              =     -34.14233464 Ry
     Harris-Foulkes estimate   =     -34.14233459 Ry
     estimated scf accuracy    <       0.00000201 Ry

     iteration #  7     ecut=    90.00 Ry     beta=0.70
     Davidson diagonalization with overlap
     ethr =  2.52E-08,  avg # of iterations =  2.0

     total cpu time spent up to now is        2.3 secs

     total energy              =     -34.14233498 Ry
     Harris-Foulkes estimate   =     -34.14233488 Ry
     estimated scf accuracy    <       0.00000002 Ry

     iteration #  8     ecut=    90.00 Ry     beta=0.70
     Davidson diagonalization with overlap
     ethr =  2.84E-10,  avg # of iterations =  3.0

     total cpu time spent up to now is        2.5 secs

     End of self-consistent calculation

          k = 0.0000 0.0000 0.0000 (115313 PWs)   bands (ev):

   -26.0247 -13.6500  -9.1548  -7.2304  -0.7681   0.4820   0.8811   1.1411

     the Fermi energy is    -5.3102 ev

!    total energy              =     -34.14233488 Ry
     Harris-Foulkes estimate   =     -34.14233499 Ry
     estimated scf accuracy    <          6.3E-09 Ry

     The total energy is the sum of the following terms:

     one-electron contribution =     -65.57971414 Ry
     hartree contribution      =      34.16924035 Ry
     xc contribution           =      -8.51082183 Ry
     ewald contribution        =       5.77896074 Ry
     smearing contrib. (-TS)   =       0.00000000 Ry

     convergence has been achieved in   8 iterations

     Forces acting on atoms (Ry/au):

     atom    1 type  1   force =     0.01747788   -0.02553562    0.02977103
     atom    2 type  1   force =    -0.13136031   -0.21291971   -0.27883701
     atom    3 type  2   force =     0.11388243    0.23845533    0.24906598

     Total force =     0.523496     Total SCF correction =     0.000104

     BFGS Geometry Optimization

     number of scf cycles    =   1
     number of bfgs steps    =   0

     energy   new            =     -34.1423348781 Ry

     new trust radius        =       0.3746203539 bohr
     new conv_thr            =       0.0000000100 Ry


ATOMIC_POSITIONS (angstrom)
H        0.385645896  -0.548414871   0.712309150
H       -0.371647881  -0.537503256  -0.727191190
O        0.055575985   0.186768127   0.183454040



     Writing output data file pwscf.save
     Check: negative starting charge=   -0.016066
     NEW-OLD atomic charge density approx. for the potential
     Check: negative starting charge=   -0.015893

     negative rho (up, down):  2.391E-02 0.000E+00

     total cpu time spent up to now is        3.1 secs

     per-process dynamical memory:    45.8 Mb

     Self-consistent Calculation

     iteration #  1     ecut=    90.00 Ry     beta=0.70
     Davidson diagonalization with overlap
     c_bands:  2 eigenvalues not converged
     ethr =  1.00E-06,  avg # of iterations = 20.0

     negative rho (up, down):  5.942E-03 0.000E+00

     total cpu time spent up to now is        3.7 secs

     total energy              =     -34.07274281 Ry
     Harris-Foulkes estimate   =     -34.10765252 Ry
     estimated scf accuracy    <       0.08168270 Ry

     iteration #  2     ecut=    90.00 Ry     beta=0.70
     Davidson diagonalization with overlap
     ethr =  1.02E-03,  avg # of iterations =  3.0

     negative rho (up, down):  3.735E-03 0.000E+00

     total cpu time spent up to now is        3.9 secs

     total energy              =     -34.09316767 Ry
     Harris-Foulkes estimate   =     -34.12653701 Ry
     estimated scf accuracy    <       0.07552586 Ry

     iteration #  3     ecut=    90.00 Ry     beta=0.70
     Davidson diagonalization with overlap
     ethr =  9.44E-04,  avg # of iterations =  2.0

     negative rho (up, down):  1.389E-03 0.000E+00

     total cpu time spent up to now is        4.1 secs

     total energy              =     -34.10985620 Ry
     Harris-Foulkes estimate   =     -34.10826062 Ry
     estimated scf accuracy    <       0.00482282 Ry

     iteration #  4     ecut=    90.00 Ry     beta=0.70
     Davidson diagonalization with overlap
     ethr =  6.03E-05,  avg # of iterations =  9.0

     negative rho (up, down):  1.027E-04 0.000E+00

     total cpu time spent up to now is        4.4 secs

     total energy              =     -34.11510409 Ry
     Harris-Foulkes estimate   =     -34.11481402 Ry
     estimated scf accuracy    <       0.00008990 Ry

     iteration #  5     ecut=    90.00 Ry     beta=0.70
     Davidson diagonalization with overlap
     c_bands:  1 eigenvalues not converged
     ethr =  1.12E-06,  avg # of iterations = 20.0

     negative rho (up, down):  6.602E-07 0.000E+00

     total cpu time spent up to now is        4.7 secs

     total energy              =     -34.11512554 Ry
     Harris-Foulkes estimate   =     -34.11512632 Ry
     estimated scf accuracy    <       0.00000299 Ry

     iteration #  6     ecut=    90.00 Ry     beta=0.70
     Davidson diagonalization with overlap
     ethr =  3.73E-08,  avg # of iterations =  5.0

     total cpu time spent up to now is        4.9 secs

     total energy              =     -34.11512574 Ry
     Harris-Foulkes estimate   =     -34.11512597 Ry
     estimated scf accuracy    <       0.00000011 Ry

     iteration #  7     ecut=    90.00 Ry     beta=0.70
     Davidson diagonalization with overlap
     ethr =  1.43E-09,  avg # of iterations =  2.0

     total cpu time spent up to now is        5.1 secs

     End of self-consistent calculation

          k = 0.0000 0.0000 0.0000 (115313 PWs)   bands (ev):

   -24.4028 -11.4152  -9.4230  -6.9570  -1.7970   0.0894   0.5860   1.1045

     the Fermi energy is    -4.9322 ev

!    total energy              =     -34.11512574 Ry
     Harris-Foulkes estimate   =     -34.11512577 Ry
     estimated scf accuracy    <          4.6E-09 Ry

     The total energy is the sum of the following terms:

     one-electron contribution =     -61.38463808 Ry
     hartree contribution      =      32.14484022 Ry
     xc contribution           =      -8.19005673 Ry
     ewald contribution        =       3.31472885 Ry
     smearing contrib. (-TS)   =       0.00000000 Ry

     convergence has been achieved in   7 iterations

     Forces acting on atoms (Ry/au):

     atom    1 type  1   force =     0.02003564   -0.02675123    0.03325164
     atom    2 type  1   force =     0.06498387    0.12242033    0.13907109
     atom    3 type  2   force =    -0.08501951   -0.09566910   -0.17232273

     Total force =     0.294702     Total SCF correction =     0.000234

     number of scf cycles    =   2
     number of bfgs steps    =   1

     energy   old            =     -34.1423348781 Ry
     energy   new            =     -34.1151257377 Ry

     CASE: energy  _new > energy  _old

     new trust radius        =       0.1703925891 bohr
     new conv_thr            =       0.0000000100 Ry


ATOMIC_POSITIONS (angstrom)
H        0.380603775  -0.541048204   0.703720629
H       -0.333752288  -0.476078929  -0.646750653
O        0.022722514   0.117977133   0.111602024



     Writing output data file pwscf.save
     Check: negative starting charge=   -0.015893
     NEW-OLD atomic charge density approx. for the potential
     Check: negative starting charge=   -0.015961

     negative rho (up, down):  2.907E-02 0.000E+00

     total cpu time spent up to now is        5.7 secs

     per-process dynamical memory:    45.8 Mb

     Self-consistent Calculation

     iteration #  1     ecut=    90.00 Ry     beta=0.70
     Davidson diagonalization with overlap
     c_bands:  1 eigenvalues not converged
     ethr =  1.00E-06,  avg # of iterations = 20.0

     negative rho (up, down):  7.641E-03 0.000E+00

     total cpu time spent up to now is        6.4 secs

     total energy              =     -34.12374097 Ry
     Harris-Foulkes estimate   =     -34.23920671 Ry
     estimated scf accuracy    <       0.04038475 Ry

     iteration #  2     ecut=    90.00 Ry     beta=0.70
     Davidson diagonalization with overlap
     ethr =  5.05E-04,  avg # of iterations =  3.0

     negative rho (up, down):  5.023E-03 0.000E+00

     total cpu time spent up to now is        6.6 secs

     total energy              =     -34.15880621 Ry
     Harris-Foulkes estimate   =     -34.18539291 Ry
     estimated scf accuracy    <       0.06776822 Ry

     iteration #  3     ecut=    90.00 Ry     beta=0.70
     Davidson diagonalization with overlap
     ethr =  5.05E-04,  avg # of iterations =  2.0

     negative rho (up, down):  2.018E-03 0.000E+00

     total cpu time spent up to now is        6.9 secs

     total energy              =     -34.17365428 Ry
     Harris-Foulkes estimate   =     -34.16992613 Ry
     estimated scf accuracy    <       0.00069259 Ry

     iteration #  4     ecut=    90.00 Ry     beta=0.70
     Davidson diagonalization with overlap
     ethr =  8.66E-06,  avg # of iterations = 15.0

     negative rho (up, down):  2.755E-04 0.000E+00

     total cpu time spent up to now is        7.2 secs

     total energy              =     -34.17458196 Ry
     Harris-Foulkes estimate   =     -34.17384102 Ry
     estimated scf accuracy    <       0.00010169 Ry

     iteration #  5     ecut=    90.00 Ry     beta=0.70
     Davidson diagonalization with overlap
     ethr =  1.27E-06,  avg # of iterations = 15.0

     negative rho (up, down):  1.238E-05 0.000E+00

     total cpu time spent up to now is        7.5 secs

     total energy              =     -34.17867583 Ry
     Harris-Foulkes estimate   =     -34.17867629 Ry
     estimated scf accuracy    <       0.00000198 Ry

     iteration #  6     ecut=    90.00 Ry     beta=0.70
     Davidson diagonalization with overlap
     ethr =  2.47E-08,  avg # of iterations =  3.0

     total cpu time spent up to now is        7.7 secs

     total energy              =     -34.17867730 Ry
     Harris-Foulkes estimate   =     -34.17867634 Ry
     estimated scf accuracy    <       0.00000025 Ry

     iteration #  7     ecut=    90.00 Ry     beta=0.70
     Davidson diagonalization with overlap
     ethr =  3.18E-09,  avg # of iterations =  2.0

     total cpu time spent up to now is        7.9 secs

     End of self-consistent calculation

          k = 0.0000 0.0000 0.0000 (115313 PWs)   bands (ev):

   -25.0595 -12.5317  -9.2872  -7.0741  -0.9999   0.4003   0.7437   1.1459

     the Fermi energy is    -5.0653 ev

!    total energy              =     -34.17867737 Ry
     Harris-Foulkes estimate   =     -34.17867734 Ry
     estimated scf accuracy    <          6.2E-09 Ry

     The total energy is the sum of the following terms:

     one-electron contribution =     -63.45677211 Ry
     hartree contribution      =      33.15070324 Ry
     xc contribution           =      -8.33967802 Ry
     ewald contribution        =       4.46706952 Ry
     smearing contrib. (-TS)   =       0.00000000 Ry

     convergence has been achieved in   7 iterations

     Forces acting on atoms (Ry/au):

     atom    1 type  1   force =     0.02267938   -0.03382222    0.03857966
     atom    2 type  1   force =     0.02313219    0.04733805    0.05054822
     atom    3 type  2   force =    -0.04581156   -0.01351583   -0.08912788

     Total force =     0.136759     Total SCF correction =     0.000074

     number of scf cycles    =   3
     number of bfgs steps    =   1

     energy   old            =     -34.1423348781 Ry
     energy   new            =     -34.1786773695 Ry

     CASE: energy  _new < energy  _old

     new trust radius        =       0.0552176629 bohr
     new conv_thr            =       0.0000000089 Ry


ATOMIC_POSITIONS (angstrom)
H        0.391608943  -0.557429437   0.722443727
H       -0.331261275  -0.467708841  -0.640826665
O        0.009226332   0.125988278   0.086954938



     Writing output data file pwscf.save
     Check: negative starting charge=   -0.015961
     NEW-OLD atomic charge density approx. for the potential
     Check: negative starting charge=   -0.016015

     negative rho (up, down):  9.959E-03 0.000E+00

     total cpu time spent up to now is        8.5 secs

     per-process dynamical memory:    45.8 Mb

     Self-consistent Calculation

     iteration #  1     ecut=    90.00 Ry     beta=0.70
     Davidson diagonalization with overlap
     c_bands:  1 eigenvalues not converged
     ethr =  1.00E-06,  avg # of iterations = 20.0

     negative rho (up, down):  2.610E-03 0.000E+00

     total cpu time spent up to now is        8.9 secs

     total energy              =     -34.17563678 Ry
     Harris-Foulkes estimate   =     -34.16569753 Ry
     estimated scf accuracy    <       0.00137062 Ry

     iteration #  2     ecut=    90.00 Ry     beta=0.70
     Davidson diagonalization with overlap
     ethr =  1.71E-05,  avg # of iterations =  6.0

     negative rho (up, down):  1.284E-03 0.000E+00

     total cpu time spent up to now is        9.1 secs

     total energy              =     -34.17725161 Ry
     Harris-Foulkes estimate   =     -34.17615935 Ry
     estimated scf accuracy    <       0.00042535 Ry

     iteration #  3     ecut=    90.00 Ry     beta=0.70
     Davidson diagonalization with overlap
     ethr =  5.32E-06,  avg # of iterations = 17.0

     negative rho (up, down):  4.839E-04 0.000E+00

     total cpu time spent up to now is        9.4 secs

     total energy              =     -34.18158490 Ry
     Harris-Foulkes estimate   =     -34.18148280 Ry
     estimated scf accuracy    <       0.00008698 Ry

     iteration #  4     ecut=    90.00 Ry     beta=0.70
     Davidson diagonalization with overlap
     ethr =  1.09E-06,  avg # of iterations =  6.0

     negative rho (up, down):  1.303E-05 0.000E+00

     total cpu time spent up to now is        9.8 secs

     total energy              =     -34.18161130 Ry
     Harris-Foulkes estimate   =     -34.18160425 Ry
     estimated scf accuracy    <       0.00000186 Ry

     iteration #  5     ecut=    90.00 Ry     beta=0.70
     Davidson diagonalization with overlap
     ethr =  2.32E-08,  avg # of iterations =  9.0

     total cpu time spent up to now is       10.0 secs

     total energy              =     -34.18161200 Ry
     Harris-Foulkes estimate   =     -34.18161203 Ry
     estimated scf accuracy    <       0.00000004 Ry

     iteration #  6     ecut=    90.00 Ry     beta=0.70
     Davidson diagonalization with overlap
     ethr =  4.46E-10,  avg # of iterations =  2.0

     total cpu time spent up to now is       10.2 secs

     End of self-consistent calculation

          k = 0.0000 0.0000 0.0000 (115313 PWs)   bands (ev):

   -24.9066 -12.4170  -9.2770  -7.0509  -1.0236   0.4015   0.7072   1.1425

     the Fermi energy is    -5.0296 ev

!    total energy              =     -34.18161199 Ry
     Harris-Foulkes estimate   =     -34.18161202 Ry
     estimated scf accuracy    <          1.8E-09 Ry

     The total energy is the sum of the following terms:

     one-electron contribution =     -63.15895060 Ry
     hartree contribution      =      33.00806342 Ry
     xc contribution           =      -8.31574166 Ry
     ewald contribution        =       4.28501684 Ry
     smearing contrib. (-TS)   =       0.00000000 Ry

     convergence has been achieved in   6 iterations

     Forces acting on atoms (Ry/au):

     atom    1 type  1   force =    -0.01548632    0.03444985   -0.02494865
     atom    2 type  1   force =     0.00800053    0.02191303    0.01820589
     atom    3 type  2   force =     0.00748580   -0.05636288    0.00674276

     Total force =     0.078759     Total SCF correction =     0.000046

     number of scf cycles    =   4
     number of bfgs steps    =   2

     energy   old            =     -34.1786773695 Ry
     energy   new            =     -34.1816119930 Ry

     CASE: energy  _new < energy  _old

     new trust radius        =       0.0337685079 bohr
     new conv_thr            =       0.0000000029 Ry


ATOMIC_POSITIONS (angstrom)
H        0.388087073  -0.547621301   0.717011772
H       -0.329126958  -0.459703451  -0.635664713
O        0.010613885   0.108174752   0.087224941



     Writing output data file pwscf.save
     Check: negative starting charge=   -0.016015
     NEW-OLD atomic charge density approx. for the potential
     Check: negative starting charge=   -0.016005

     negative rho (up, down):  5.881E-03 0.000E+00

     total cpu time spent up to now is       10.8 secs

     per-process dynamical memory:    45.8 Mb

     Self-consistent Calculation

     iteration #  1     ecut=    90.00 Ry     beta=0.70
     Davidson diagonalization with overlap
     ethr =  1.00E-06,  avg # of iterations = 20.0

     negative rho (up, down):  1.536E-03 0.000E+00

     total cpu time spent up to now is       11.3 secs

     total energy              =     -34.17846581 Ry
     Harris-Foulkes estimate   =     -34.17525433 Ry
     estimated scf accuracy    <       0.00123160 Ry

     iteration #  2     ecut=    90.00 Ry     beta=0.70
     Davidson diagonalization with overlap
     ethr =  1.54E-05,  avg # of iterations = 13.0

     negative rho (up, down):  9.697E-04 0.000E+00

     total cpu time spent up to now is       11.6 secs

     total energy              =     -34.17912977 Ry
     Harris-Foulkes estimate   =     -34.17951291 Ry
     estimated scf accuracy    <       0.00143268 Ry

     iteration #  3     ecut=    90.00 Ry     beta=0.70
     Davidson diagonalization with overlap
     ethr =  1.54E-05,  avg # of iterations =  3.0

     negative rho (up, down):  1.856E-04 0.000E+00

     total cpu time spent up to now is       11.8 secs

     total energy              =     -34.18354328 Ry
     Harris-Foulkes estimate   =     -34.18348844 Ry
     estimated scf accuracy    <       0.00000539 Ry

     iteration #  4     ecut=    90.00 Ry     beta=0.70
     Davidson diagonalization with overlap
     ethr =  6.73E-08,  avg # of iterations =  6.0

     negative rho (up, down):  1.781E-05 0.000E+00

     total cpu time spent up to now is       12.0 secs

     total energy              =     -34.18354659 Ry
     Harris-Foulkes estimate   =     -34.18354794 Ry
     estimated scf accuracy    <       0.00000026 Ry

     iteration #  5     ecut=    90.00 Ry     beta=0.70
     Davidson diagonalization with overlap
     ethr =  3.29E-09,  avg # of iterations =  2.0

     total cpu time spent up to now is       12.2 secs

     total energy              =     -34.18354594 Ry
     Harris-Foulkes estimate   =     -34.18354670 Ry
     estimated scf accuracy    <       0.00000001 Ry

     iteration #  6     ecut=    90.00 Ry     beta=0.70
     Davidson diagonalization with overlap
     ethr =  1.33E-10,  avg # of iterations =  2.0

     total cpu time spent up to now is       12.4 secs

     End of self-consistent calculation

          k = 0.0000 0.0000 0.0000 (115313 PWs)   bands (ev):

   -25.1001 -12.6998  -9.2134  -7.0804  -0.9527   0.4237   0.7551   1.1494

     the Fermi energy is    -5.0728 ev

!    total energy              =     -34.18354592 Ry
     Harris-Foulkes estimate   =     -34.18354596 Ry
     estimated scf accuracy    <          1.7E-10 Ry

     The total energy is the sum of the following terms:

     one-electron contribution =     -63.63486041 Ry
     hartree contribution      =      33.23796632 Ry
     xc contribution           =      -8.35308862 Ry
     ewald contribution        =       4.56643679 Ry
     smearing contrib. (-TS)   =       0.00000000 Ry

     convergence has been achieved in   6 iterations

     Forces acting on atoms (Ry/au):

     atom    1 type  1   force =    -0.00056266    0.00653421   -0.00266674
     atom    2 type  1   force =    -0.00074745    0.00135053   -0.00358041
     atom    3 type  2   force =     0.00131011   -0.00788474    0.00624716

     Total force =     0.012971     Total SCF correction =     0.000018

     number of scf cycles    =   5
     number of bfgs steps    =   3

     energy   old            =     -34.1816119930 Ry
     energy   new            =     -34.1835459160 Ry

     CASE: energy  _new < energy  _old

     new trust radius        =       0.0074281733 bohr
     new conv_thr            =       0.0000000008 Ry


ATOMIC_POSITIONS (angstrom)
H        0.388578861  -0.545281368   0.716781119
H       -0.329324076  -0.458591662  -0.637291512
O        0.010319215   0.104723030   0.089082393



     Writing output data file pwscf.save
     Check: negative starting charge=   -0.016005
     NEW-OLD atomic charge density approx. for the potential
     Check: negative starting charge=   -0.016001

     negative rho (up, down):  1.134E-03 0.000E+00

     total cpu time spent up to now is       13.4 secs

     per-process dynamical memory:    45.8 Mb

     Self-consistent Calculation

     iteration #  1     ecut=    90.00 Ry     beta=0.70
     Davidson diagonalization with overlap
     c_bands:  1 eigenvalues not converged
     ethr =  1.00E-06,  avg # of iterations = 20.0

     negative rho (up, down):  2.826E-04 0.000E+00

     total cpu time spent up to now is       13.9 secs

     total energy              =     -34.18360553 Ry
     Harris-Foulkes estimate   =     -34.18354811 Ry
     estimated scf accuracy    <       0.00002504 Ry

     iteration #  2     ecut=    90.00 Ry     beta=0.70
     Davidson diagonalization with overlap
     ethr =  3.13E-07,  avg # of iterations =  5.0

     negative rho (up, down):  1.626E-04 0.000E+00

     total cpu time spent up to now is       14.1 secs

     total energy              =     -34.18361435 Ry
     Harris-Foulkes estimate   =     -34.18362199 Ry
     estimated scf accuracy    <       0.00002123 Ry

     iteration #  3     ecut=    90.00 Ry     beta=0.70
     Davidson diagonalization with overlap
     ethr =  2.65E-07,  avg # of iterations =  2.0

     negative rho (up, down):  1.889E-05 0.000E+00

     total cpu time spent up to now is       14.3 secs

     total energy              =     -34.18361887 Ry
     Harris-Foulkes estimate   =     -34.18361918 Ry
     estimated scf accuracy    <       0.00000038 Ry

     iteration #  4     ecut=    90.00 Ry     beta=0.70
     Davidson diagonalization with overlap
     ethr =  4.77E-09,  avg # of iterations =  3.0

     negative rho (up, down):  3.915E-07 0.000E+00

     total cpu time spent up to now is       14.5 secs

     total energy              =     -34.18361884 Ry
     Harris-Foulkes estimate   =     -34.18361904 Ry
     estimated scf accuracy    <       0.00000001 Ry

     iteration #  5     ecut=    90.00 Ry     beta=0.70
     Davidson diagonalization with overlap
     ethr =  1.37E-10,  avg # of iterations =  3.0

     total cpu time spent up to now is       14.6 secs

     End of self-consistent calculation

          k = 0.0000 0.0000 0.0000 (115313 PWs)   bands (ev):

   -25.1180 -12.7464  -9.1923  -7.0826  -0.9441   0.4271   0.7593   1.1354

     the Fermi energy is    -5.0878 ev

!    total energy              =     -34.18361876 Ry
     Harris-Foulkes estimate   =     -34.18361885 Ry
     estimated scf accuracy    <          5.0E-10 Ry

     The total energy is the sum of the following terms:

     one-electron contribution =     -63.68920278 Ry
     hartree contribution      =      33.26462584 Ry
     xc contribution           =      -8.35748116 Ry
     ewald contribution        =       4.59843934 Ry
     smearing contrib. (-TS)   =       0.00000000 Ry

     convergence has been achieved in   5 iterations

     Forces acting on atoms (Ry/au):

     atom    1 type  1   force =     0.00297906    0.00039538    0.00228360
     atom    2 type  1   force =     0.00030448    0.00116524   -0.00254154
     atom    3 type  2   force =    -0.00328355   -0.00156062    0.00025794

     Total force =     0.005953     Total SCF correction =     0.000429

     number of scf cycles    =   6
     number of bfgs steps    =   4

     energy   old            =     -34.1835459160 Ry
     energy   new            =     -34.1836187646 Ry

     CASE: energy  _new < energy  _old

     new trust radius        =       0.0073830310 bohr
     new conv_thr            =            1.0E-10 Ry


ATOMIC_POSITIONS (angstrom)
H        0.390707421  -0.543689664   0.718060885
H       -0.329211148  -0.457199753  -0.639727955
O        0.008077727   0.101739417   0.090239070



     Writing output data file pwscf.save
     Check: negative starting charge=   -0.016001
     NEW-OLD atomic charge density approx. for the potential
     Check: negative starting charge=   -0.015998

     negative rho (up, down):  1.127E-03 0.000E+00

     total cpu time spent up to now is       15.3 secs

     per-process dynamical memory:    45.8 Mb

     Self-consistent Calculation

     iteration #  1     ecut=    90.00 Ry     beta=0.70
     Davidson diagonalization with overlap
     ethr =  1.00E-06,  avg # of iterations =  6.0

     negative rho (up, down):  2.803E-04 0.000E+00

     total cpu time spent up to now is       15.6 secs

     total energy              =     -34.18366250 Ry
     Harris-Foulkes estimate   =     -34.18360396 Ry
     estimated scf accuracy    <       0.00001139 Ry

     iteration #  2     ecut=    90.00 Ry     beta=0.70
     Davidson diagonalization with overlap
     ethr =  1.42E-07,  avg # of iterations =  4.0

     negative rho (up, down):  1.403E-04 0.000E+00

     total cpu time spent up to now is       15.8 secs

     total energy              =     -34.18366944 Ry
     Harris-Foulkes estimate   =     -34.18366811 Ry
     estimated scf accuracy    <       0.00000588 Ry

     iteration #  3     ecut=    90.00 Ry     beta=0.70
     Davidson diagonalization with overlap
     ethr =  7.35E-08,  avg # of iterations =  2.0

     negative rho (up, down):  5.926E-06 0.000E+00

     total cpu time spent up to now is       16.0 secs

     total energy              =     -34.18367319 Ry
     Harris-Foulkes estimate   =     -34.18367121 Ry
     estimated scf accuracy    <       0.00000060 Ry

     iteration #  4     ecut=    90.00 Ry     beta=0.70
     Davidson diagonalization with overlap
     ethr =  7.54E-09,  avg # of iterations =  3.0

     negative rho (up, down):  1.259E-08 0.000E+00

     total cpu time spent up to now is       16.2 secs

     total energy              =     -34.18367324 Ry
     Harris-Foulkes estimate   =     -34.18367337 Ry
     estimated scf accuracy    <          5.7E-09 Ry

     iteration #  5     ecut=    90.00 Ry     beta=0.70
     Davidson diagonalization with overlap
     ethr =  7.11E-11,  avg # of iterations =  3.0

     total cpu time spent up to now is       16.4 secs

     total energy              =     -34.18367324 Ry
     Harris-Foulkes estimate   =     -34.18367325 Ry
     estimated scf accuracy    <          6.5E-10 Ry

     iteration #  6     ecut=    90.00 Ry     beta=0.70
     Davidson diagonalization with overlap
     ethr =  8.18E-12,  avg # of iterations =  2.0

     total cpu time spent up to now is       16.6 secs

     End of self-consistent calculation

          k = 0.0000 0.0000 0.0000 (115313 PWs)   bands (ev):

   -25.1184 -12.7806  -9.1672  -7.0820  -0.9401   0.4282   0.7598   1.1348

     the Fermi energy is    -5.0884 ev

!    total energy              =     -34.18367321 Ry
     Harris-Foulkes estimate   =     -34.18367324 Ry
     estimated scf accuracy    <          3.6E-11 Ry

     The total energy is the sum of the following terms:

     one-electron contribution =     -63.70812049 Ry
     hartree contribution      =      33.27449958 Ry
     xc contribution           =      -8.35916607 Ry
     ewald contribution        =       4.60911377 Ry
     smearing contrib. (-TS)   =       0.00000000 Ry

     convergence has been achieved in   6 iterations

     Forces acting on atoms (Ry/au):

     atom    1 type  1   force =     0.00379896   -0.00080664    0.00290926
     atom    2 type  1   force =     0.00103646    0.00068151   -0.00196903
     atom    3 type  2   force =    -0.00483542    0.00012514   -0.00094022

     Total force =     0.007297     Total SCF correction =     0.000011

     number of scf cycles    =   7
     number of bfgs steps    =   5

     energy   old            =     -34.1836187646 Ry
     energy   new            =     -34.1836732112 Ry

     CASE: energy  _new < energy  _old


     WARNING: bfgs curvature condition failed, Theta= 0.933
     new trust radius        =       0.0081213341 bohr
     new conv_thr            =            1.0E-10 Ry


ATOMIC_POSITIONS (angstrom)
H        0.393243838  -0.542070399   0.719482529
H       -0.328855148  -0.455865138  -0.642323525
O        0.005185310   0.098785538   0.091412996



     Writing output data file pwscf.save
     Check: negative starting charge=   -0.015998
     NEW-OLD atomic charge density approx. for the potential
     Check: negative starting charge=   -0.015996

     negative rho (up, down):  1.253E-03 0.000E+00

     total cpu time spent up to now is       17.2 secs

     per-process dynamical memory:    45.8 Mb

     Self-consistent Calculation

     iteration #  1     ecut=    90.00 Ry     beta=0.70
     Davidson diagonalization with overlap
     ethr =  1.00E-06,  avg # of iterations =  8.0

     negative rho (up, down):  3.130E-04 0.000E+00

     total cpu time spent up to now is       17.6 secs

     total energy              =     -34.17963395 Ry
     Harris-Foulkes estimate   =     -34.17953603 Ry
     estimated scf accuracy    <       0.00001225 Ry

     iteration #  2     ecut=    90.00 Ry     beta=0.70
     Davidson diagonalization with overlap
     ethr =  1.53E-07,  avg # of iterations =  5.0

     negative rho (up, down):  1.401E-04 0.000E+00

     total cpu time spent up to now is       17.8 secs

     total energy              =     -34.18371904 Ry
     Harris-Foulkes estimate   =     -34.18371661 Ry
     estimated scf accuracy    <       0.00000464 Ry

     iteration #  3     ecut=    90.00 Ry     beta=0.70
     Davidson diagonalization with overlap
     ethr =  5.79E-08,  avg # of iterations =  2.0

     negative rho (up, down):  6.452E-06 0.000E+00

     total cpu time spent up to now is       18.0 secs

     total energy              =     -34.18372312 Ry
     Harris-Foulkes estimate   =     -34.18372068 Ry
     estimated scf accuracy    <       0.00000086 Ry

     iteration #  4     ecut=    90.00 Ry     beta=0.70
     Davidson diagonalization with overlap
     ethr =  1.07E-08,  avg # of iterations =  3.0

     total cpu time spent up to now is       18.2 secs

     total energy              =     -34.18372319 Ry
     Harris-Foulkes estimate   =     -34.18372336 Ry
     estimated scf accuracy    <          5.3E-09 Ry

     iteration #  5     ecut=    90.00 Ry     beta=0.70
     Davidson diagonalization with overlap
     ethr =  6.61E-11,  avg # of iterations =  3.0

     total cpu time spent up to now is       18.6 secs

     total energy              =     -34.18372318 Ry
     Harris-Foulkes estimate   =     -34.18372320 Ry
     estimated scf accuracy    <          8.8E-10 Ry

     iteration #  6     ecut=    90.00 Ry     beta=0.70
     Davidson diagonalization with overlap
     ethr =  1.10E-11,  avg # of iterations =  2.0

     total cpu time spent up to now is       18.7 secs

     End of self-consistent calculation

          k = 0.0000 0.0000 0.0000 (115313 PWs)   bands (ev):

   -25.1162 -12.8126  -9.1417  -7.0810  -0.9367   0.4294   0.7600   1.1342

     the Fermi energy is    -5.0883 ev

!    total energy              =     -34.18372317 Ry
     Harris-Foulkes estimate   =     -34.18372318 Ry
     estimated scf accuracy    <          4.9E-11 Ry

     The total energy is the sum of the following terms:

     one-electron contribution =     -63.72185421 Ry
     hartree contribution      =      33.28194226 Ry
     xc contribution           =      -8.36047451 Ry
     ewald contribution        =       4.61666328 Ry
     smearing contrib. (-TS)   =       0.00000000 Ry

     convergence has been achieved in   6 iterations

     Forces acting on atoms (Ry/au):

     atom    1 type  1   force =     0.00354599   -0.00159191    0.00351452
     atom    2 type  1   force =     0.00104582   -0.00016774   -0.00089341
     atom    3 type  2   force =    -0.00459182    0.00175965   -0.00262111

     Total force =     0.007774     Total SCF correction =     0.000005

     number of scf cycles    =   8
     number of bfgs steps    =   6

     energy   old            =     -34.1836732112 Ry
     energy   new            =     -34.1837231739 Ry

     CASE: energy  _new < energy  _old

     new trust radius        =       0.0121820012 bohr
     new conv_thr            =            1.0E-10 Ry


ATOMIC_POSITIONS (angstrom)
H        0.397605299  -0.539488903   0.722560805
H       -0.328275553  -0.454402587  -0.646289609
O        0.000244254   0.094741491   0.092300804



     Writing output data file pwscf.save
     Check: negative starting charge=   -0.015996
     NEW-OLD atomic charge density approx. for the potential
     Check: negative starting charge=   -0.015992

     negative rho (up, down):  1.957E-03 0.000E+00

     total cpu time spent up to now is       19.3 secs

     per-process dynamical memory:    45.8 Mb

     Self-consistent Calculation

     iteration #  1     ecut=    90.00 Ry     beta=0.70
     Davidson diagonalization with overlap
     ethr =  1.00E-06,  avg # of iterations = 11.0

     negative rho (up, down):  4.976E-04 0.000E+00

     total cpu time spent up to now is       19.7 secs

     total energy              =     -34.17963634 Ry
     Harris-Foulkes estimate   =     -34.17901246 Ry
     estimated scf accuracy    <       0.00002472 Ry

     iteration #  2     ecut=    90.00 Ry     beta=0.70
     Davidson diagonalization with overlap
     ethr =  3.09E-07,  avg # of iterations =  8.0

     negative rho (up, down):  1.658E-04 0.000E+00

     total cpu time spent up to now is       19.9 secs

     total energy              =     -34.18372725 Ry
     Harris-Foulkes estimate   =     -34.18372212 Ry
     estimated scf accuracy    <       0.00000507 Ry

     iteration #  3     ecut=    90.00 Ry     beta=0.70
     Davidson diagonalization with overlap
     ethr =  6.34E-08,  avg # of iterations =  3.0

     negative rho (up, down):  1.764E-05 0.000E+00

     total cpu time spent up to now is       20.2 secs

     total energy              =     -34.18373203 Ry
     Harris-Foulkes estimate   =     -34.18372973 Ry
     estimated scf accuracy    <       0.00000237 Ry

     iteration #  4     ecut=    90.00 Ry     beta=0.70
     Davidson diagonalization with overlap
     ethr =  2.96E-08,  avg # of iterations =  4.0

     total cpu time spent up to now is       20.4 secs

     total energy              =     -34.18373245 Ry
     Harris-Foulkes estimate   =     -34.18373259 Ry
     estimated scf accuracy    <       0.00000002 Ry

     iteration #  5     ecut=    90.00 Ry     beta=0.70
     Davidson diagonalization with overlap
     ethr =  2.88E-10,  avg # of iterations =  2.0

     total cpu time spent up to now is       20.6 secs

     total energy              =     -34.18373254 Ry
     Harris-Foulkes estimate   =     -34.18373248 Ry
     estimated scf accuracy    <          1.0E-09 Ry

     iteration #  6     ecut=    90.00 Ry     beta=0.70
     Davidson diagonalization with overlap
     ethr =  1.28E-11,  avg # of iterations =  2.0

     total cpu time spent up to now is       20.8 secs

     total energy              =     -34.18373257 Ry
     Harris-Foulkes estimate   =     -34.18373254 Ry
     estimated scf accuracy    <          1.0E-10 Ry

     iteration #  7     ecut=    90.00 Ry     beta=0.70
     Davidson diagonalization with overlap
     ethr =  1.27E-12,  avg # of iterations =  2.0

     total cpu time spent up to now is       21.0 secs

     End of self-consistent calculation

          k = 0.0000 0.0000 0.0000 (115313 PWs)   bands (ev):

   -25.1043 -12.8524  -9.1031  -7.0774  -0.9345   0.4305   0.7585   1.1337

     the Fermi energy is    -5.0856 ev

!    total energy              =     -34.18373258 Ry
     Harris-Foulkes estimate   =     -34.18373257 Ry
     estimated scf accuracy    <          2.8E-12 Ry

     The total energy is the sum of the following terms:

     one-electron contribution =     -63.72334012 Ry
     hartree contribution      =      33.28398718 Ry
     xc contribution           =      -8.36089159 Ry
     ewald contribution        =       4.61651195 Ry
     smearing contrib. (-TS)   =       0.00000000 Ry

     convergence has been achieved in   7 iterations

     Forces acting on atoms (Ry/au):

     atom    1 type  1   force =    -0.00045788   -0.00199951    0.00242845
     atom    2 type  1   force =    -0.00123146   -0.00330305    0.00068902
     atom    3 type  2   force =     0.00168934    0.00530255   -0.00311747

     Total force =     0.007981     Total SCF correction =     0.000003

     number of scf cycles    =   9
     number of bfgs steps    =   7

     energy   old            =     -34.1837231739 Ry
     energy   new            =     -34.1837325756 Ry

     CASE: energy  _new < energy  _old

     new trust radius        =       0.0068518214 bohr
     new conv_thr            =            1.0E-10 Ry


ATOMIC_POSITIONS (angstrom)
H        0.395813836  -0.540721611   0.721928395
H       -0.328749496  -0.455781622  -0.644564789
O        0.002509661   0.097353233   0.091208394



     Writing output data file pwscf.save
     Check: negative starting charge=   -0.015992
     NEW-OLD atomic charge density approx. for the potential
     Check: negative starting charge=   -0.015994

     negative rho (up, down):  1.037E-03 0.000E+00

     total cpu time spent up to now is       21.5 secs

     per-process dynamical memory:    45.8 Mb

     Self-consistent Calculation

     iteration #  1     ecut=    90.00 Ry     beta=0.70
     Davidson diagonalization with overlap
     ethr =  1.00E-06,  avg # of iterations =  4.0

     negative rho (up, down):  2.563E-04 0.000E+00

     total cpu time spent up to now is       21.9 secs

     total energy              =     -34.18375089 Ry
     Harris-Foulkes estimate   =     -34.18371111 Ry
     estimated scf accuracy    <       0.00001049 Ry

     iteration #  2     ecut=    90.00 Ry     beta=0.70
     Davidson diagonalization with overlap
     ethr =  1.31E-07,  avg # of iterations =  4.0

     negative rho (up, down):  1.340E-04 0.000E+00

     total cpu time spent up to now is       22.1 secs

     total energy              =     -34.18375262 Ry
     Harris-Foulkes estimate   =     -34.18375626 Ry
     estimated scf accuracy    <       0.00000625 Ry

     iteration #  3     ecut=    90.00 Ry     beta=0.70
     Davidson diagonalization with overlap
     ethr =  7.81E-08,  avg # of iterations =  2.0

     negative rho (up, down):  5.850E-06 0.000E+00

     total cpu time spent up to now is       22.4 secs

     total energy              =     -34.18375694 Ry
     Harris-Foulkes estimate   =     -34.18375436 Ry
     estimated scf accuracy    <       0.00000045 Ry

     iteration #  4     ecut=    90.00 Ry     beta=0.70
     Davidson diagonalization with overlap
     ethr =  5.59E-09,  avg # of iterations =  3.0

     negative rho (up, down):  3.404E-08 0.000E+00

     total cpu time spent up to now is       22.6 secs

     total energy              =     -34.18375735 Ry
     Harris-Foulkes estimate   =     -34.18375710 Ry
     estimated scf accuracy    <          6.1E-09 Ry

     iteration #  5     ecut=    90.00 Ry     beta=0.70
     Davidson diagonalization with overlap
     ethr =  7.64E-11,  avg # of iterations =  3.0

     total cpu time spent up to now is       22.8 secs

     total energy              =     -34.18375733 Ry
     Harris-Foulkes estimate   =     -34.18375736 Ry
     estimated scf accuracy    <          4.4E-10 Ry

     iteration #  6     ecut=    90.00 Ry     beta=0.70
     Davidson diagonalization with overlap
     ethr =  5.51E-12,  avg # of iterations =  2.0

     total cpu time spent up to now is       22.9 secs

     End of self-consistent calculation

          k = 0.0000 0.0000 0.0000 (115313 PWs)   bands (ev):

   -25.1000 -12.8223  -9.1221  -7.0776  -0.9384   0.4290   0.7571   1.1335

     the Fermi energy is    -5.0847 ev

!    total energy              =     -34.18375732 Ry
     Harris-Foulkes estimate   =     -34.18375733 Ry
     estimated scf accuracy    <          1.4E-11 Ry

     The total energy is the sum of the following terms:

     one-electron contribution =     -63.70018317 Ry
     hartree contribution      =      33.27226730 Ry
     xc contribution           =      -8.35894386 Ry
     ewald contribution        =       4.60310241 Ry
     smearing contrib. (-TS)   =       0.00000000 Ry

     convergence has been achieved in   6 iterations

     Forces acting on atoms (Ry/au):

     atom    1 type  1   force =     0.00061269    0.00063638    0.00081540
     atom    2 type  1   force =     0.00042378   -0.00087777    0.00023451
     atom    3 type  2   force =    -0.00103647    0.00024139   -0.00104991

     Total force =     0.002165     Total SCF correction =     0.000009

     number of scf cycles    =  10
     number of bfgs steps    =   8

     energy   old            =     -34.1837325756 Ry
     energy   new            =     -34.1837573220 Ry

     CASE: energy  _new < energy  _old

     new trust radius        =       0.0017605497 bohr
     new conv_thr            =            1.0E-10 Ry


ATOMIC_POSITIONS (angstrom)
H        0.396198032  -0.540069477   0.722471600
H       -0.328675282  -0.456282968  -0.644764496
O        0.002051250   0.097202444   0.090864896



     Writing output data file pwscf.save
     Check: negative starting charge=   -0.015994
     NEW-OLD atomic charge density approx. for the potential
     Check: negative starting charge=   -0.015994

     negative rho (up, down):  1.238E-04 0.000E+00

     total cpu time spent up to now is       23.5 secs

     per-process dynamical memory:    45.8 Mb

     Self-consistent Calculation

     iteration #  1     ecut=    90.00 Ry     beta=0.70
     Davidson diagonalization with overlap
     ethr =  1.00E-06,  avg # of iterations =  3.0

     Threshold (ethr) on eigenvalues was too large:
     Diagonalizing with lowered threshold

     Davidson diagonalization with overlap
     ethr =  3.61E-09,  avg # of iterations =  2.0

     negative rho (up, down):  2.293E-05 0.000E+00

     total cpu time spent up to now is       23.9 secs

     total energy              =     -34.18376126 Ry
     Harris-Foulkes estimate   =     -34.18376065 Ry
     estimated scf accuracy    <       0.00000037 Ry

     iteration #  2     ecut=    90.00 Ry     beta=0.70
     Davidson diagonalization with overlap
     ethr =  4.65E-09,  avg # of iterations =  2.0

     negative rho (up, down):  4.401E-06 0.000E+00

     total cpu time spent up to now is       24.1 secs

     total energy              =     -34.18376114 Ry
     Harris-Foulkes estimate   =     -34.18376137 Ry
     estimated scf accuracy    <       0.00000005 Ry

     iteration #  3     ecut=    90.00 Ry     beta=0.70
     Davidson diagonalization with overlap
     ethr =  5.99E-10,  avg # of iterations =  2.0

     negative rho (up, down):  3.843E-07 0.000E+00

     total cpu time spent up to now is       24.3 secs

     total energy              =     -34.18376122 Ry
     Harris-Foulkes estimate   =     -34.18376117 Ry
     estimated scf accuracy    <       0.00000002 Ry

     iteration #  4     ecut=    90.00 Ry     beta=0.70
     Davidson diagonalization with overlap
     ethr =  2.35E-10,  avg # of iterations =  2.0

     total cpu time spent up to now is       24.5 secs

     total energy              =     -34.18376122 Ry
     Harris-Foulkes estimate   =     -34.18376123 Ry
     estimated scf accuracy    <          9.9E-10 Ry

     iteration #  5     ecut=    90.00 Ry     beta=0.70
     Davidson diagonalization with overlap
     ethr =  1.23E-11,  avg # of iterations =  2.0

     total cpu time spent up to now is       24.6 secs

     End of self-consistent calculation

          k = 0.0000 0.0000 0.0000 (115313 PWs)   bands (ev):

   -25.0975 -12.8232  -9.1194  -7.0771  -0.9388   0.4289   0.7567   1.1334

     the Fermi energy is    -5.0842 ev

!    total energy              =     -34.18376122 Ry
     Harris-Foulkes estimate   =     -34.18376122 Ry
     estimated scf accuracy    <          1.4E-11 Ry

     The total energy is the sum of the following terms:

     one-electron contribution =     -63.69649981 Ry
     hartree contribution      =      33.27059226 Ry
     xc contribution           =      -8.35867797 Ry
     ewald contribution        =       4.60082431 Ry
     smearing contrib. (-TS)   =       0.00000000 Ry

     convergence has been achieved in   5 iterations

     Forces acting on atoms (Ry/au):

     atom    1 type  1   force =     0.00006713    0.00110095    0.00023121
     atom    2 type  1   force =     0.00024513   -0.00101172    0.00023049
     atom    3 type  2   force =    -0.00031226   -0.00008923   -0.00046170

     Total force =     0.001651     Total SCF correction =     0.000021

     number of scf cycles    =  11
     number of bfgs steps    =   9

     energy   old            =     -34.1837573220 Ry
     energy   new            =     -34.1837612160 Ry

     CASE: energy  _new < energy  _old

     new trust radius        =       0.0019366046 bohr
     new conv_thr            =            1.0E-10 Ry


ATOMIC_POSITIONS (angstrom)
H        0.396479341  -0.539208742   0.722951424
H       -0.328567293  -0.457025585  -0.644851605
O        0.001661952   0.097084328   0.090472180



     Writing output data file pwscf.save
     Check: negative starting charge=   -0.015994
     NEW-OLD atomic charge density approx. for the potential
     Check: negative starting charge=   -0.015994

     negative rho (up, down):  1.173E-04 0.000E+00

     total cpu time spent up to now is       25.3 secs

     per-process dynamical memory:    45.8 Mb

     Self-consistent Calculation

     iteration #  1     ecut=    90.00 Ry     beta=0.70
     Davidson diagonalization with overlap
     ethr =  1.00E-06,  avg # of iterations =  3.0

     Threshold (ethr) on eigenvalues was too large:
     Diagonalizing with lowered threshold

     Davidson diagonalization with overlap
     ethr =  3.41E-09,  avg # of iterations =  3.0

     negative rho (up, down):  2.145E-05 0.000E+00

     total cpu time spent up to now is       25.7 secs

     total energy              =     -34.18376509 Ry
     Harris-Foulkes estimate   =     -34.18376466 Ry
     estimated scf accuracy    <       0.00000036 Ry

     iteration #  2     ecut=    90.00 Ry     beta=0.70
     Davidson diagonalization with overlap
     ethr =  4.53E-09,  avg # of iterations =  2.0

     negative rho (up, down):  2.624E-06 0.000E+00

     total cpu time spent up to now is       25.9 secs

     total energy              =     -34.18376500 Ry
     Harris-Foulkes estimate   =     -34.18376517 Ry
     estimated scf accuracy    <       0.00000003 Ry

     iteration #  3     ecut=    90.00 Ry     beta=0.70
     Davidson diagonalization with overlap
     ethr =  3.45E-10,  avg # of iterations =  2.0

     negative rho (up, down):  1.001E-07 0.000E+00

     total cpu time spent up to now is       26.0 secs

     total energy              =     -34.18376501 Ry
     Harris-Foulkes estimate   =     -34.18376501 Ry
     estimated scf accuracy    <          7.3E-09 Ry

     iteration #  4     ecut=    90.00 Ry     beta=0.70
     Davidson diagonalization with overlap
     ethr =  9.09E-11,  avg # of iterations =  2.0

     total cpu time spent up to now is       26.2 secs

     total energy              =     -34.18376504 Ry
     Harris-Foulkes estimate   =     -34.18376501 Ry
     estimated scf accuracy    <          1.6E-09 Ry

     iteration #  5     ecut=    90.00 Ry     beta=0.70
     Davidson diagonalization with overlap
     ethr =  2.06E-11,  avg # of iterations =  2.0

     total cpu time spent up to now is       26.4 secs

     End of self-consistent calculation

          k = 0.0000 0.0000 0.0000 (115313 PWs)   bands (ev):

   -25.0960 -12.8242  -9.1175  -7.0767  -0.9389   0.4288   0.7564   1.1333

     the Fermi energy is    -5.0839 ev

!    total energy              =     -34.18376505 Ry
     Harris-Foulkes estimate   =     -34.18376504 Ry
     estimated scf accuracy    <          7.6E-12 Ry

     The total energy is the sum of the following terms:

     one-electron contribution =     -63.69454179 Ry
     hartree contribution      =      33.26971193 Ry
     xc contribution           =      -8.35854113 Ry
     ewald contribution        =       4.59960594 Ry
     smearing contrib. (-TS)   =       0.00000000 Ry

     convergence has been achieved in   5 iterations

     Forces acting on atoms (Ry/au):

     atom    1 type  1   force =    -0.00027127    0.00135297   -0.00012198
     atom    2 type  1   force =     0.00012286   -0.00106079    0.00022696
     atom    3 type  2   force =     0.00014841   -0.00029218   -0.00010498

     Total force =     0.001797     Total SCF correction =     0.000016

     number of scf cycles    =  12
     number of bfgs steps    =  10

     energy   old            =     -34.1837612160 Ry
     energy   new            =     -34.1837650493 Ry

     CASE: energy  _new < energy  _old

     new trust radius        =       0.0029049070 bohr
     new conv_thr            =            1.0E-10 Ry


ATOMIC_POSITIONS (angstrom)
H        0.396789602  -0.537840115   0.723578812
H       -0.328393865  -0.458253168  -0.644882225
O        0.001178263   0.096943284   0.089875413



     Writing output data file pwscf.save
     Check: negative starting charge=   -0.015994
     NEW-OLD atomic charge density approx. for the potential
     Check: negative starting charge=   -0.015994

     negative rho (up, down):  1.759E-04 0.000E+00

     total cpu time spent up to now is       27.0 secs

     per-process dynamical memory:    45.8 Mb

     Self-consistent Calculation

     iteration #  1     ecut=    90.00 Ry     beta=0.70
     Davidson diagonalization with overlap
     ethr =  1.00E-06,  avg # of iterations =  3.0

     Threshold (ethr) on eigenvalues was too large:
     Diagonalizing with lowered threshold

     Davidson diagonalization with overlap
     ethr =  7.10E-09,  avg # of iterations =  2.0

     negative rho (up, down):  3.534E-05 0.000E+00

     total cpu time spent up to now is       27.3 secs

     total energy              =     -34.18377036 Ry
     Harris-Foulkes estimate   =     -34.18376971 Ry
     estimated scf accuracy    <       0.00000073 Ry

     iteration #  2     ecut=    90.00 Ry     beta=0.70
     Davidson diagonalization with overlap
     ethr =  9.09E-09,  avg # of iterations =  2.0

     negative rho (up, down):  3.565E-06 0.000E+00

     total cpu time spent up to now is       27.5 secs

     total energy              =     -34.18377036 Ry
     Harris-Foulkes estimate   =     -34.18377049 Ry
     estimated scf accuracy    <       0.00000004 Ry

     iteration #  3     ecut=    90.00 Ry     beta=0.70
     Davidson diagonalization with overlap
     ethr =  5.43E-10,  avg # of iterations =  2.0

     total cpu time spent up to now is       27.7 secs

     total energy              =     -34.18377041 Ry
     Harris-Foulkes estimate   =     -34.18377037 Ry
     estimated scf accuracy    <          4.3E-09 Ry

     iteration #  4     ecut=    90.00 Ry     beta=0.70
     Davidson diagonalization with overlap
     ethr =  5.35E-11,  avg # of iterations =  2.0

     total cpu time spent up to now is       27.8 secs

     total energy              =     -34.18377041 Ry
     Harris-Foulkes estimate   =     -34.18377041 Ry
     estimated scf accuracy    <          1.2E-09 Ry

     iteration #  5     ecut=    90.00 Ry     beta=0.70
     Davidson diagonalization with overlap
     ethr =  1.52E-11,  avg # of iterations =  2.0

     total cpu time spent up to now is       28.0 secs

     End of self-consistent calculation

          k = 0.0000 0.0000 0.0000 (115313 PWs)   bands (ev):

   -25.0946 -12.8258  -9.1154  -7.0764  -0.9390   0.4288   0.7563   1.1332

     the Fermi energy is    -5.0836 ev

!    total energy              =     -34.18377041 Ry
     Harris-Foulkes estimate   =     -34.18377041 Ry
     estimated scf accuracy    <          2.1E-11 Ry

     The total energy is the sum of the following terms:

     one-electron contribution =     -63.69315307 Ry
     hartree contribution      =      33.26911552 Ry
     xc contribution           =      -8.35845329 Ry
     ewald contribution        =       4.59872043 Ry
     smearing contrib. (-TS)   =       0.00000000 Ry

     convergence has been achieved in   5 iterations

     Forces acting on atoms (Ry/au):

     atom    1 type  1   force =    -0.00059915    0.00153577   -0.00046214
     atom    2 type  1   force =    -0.00001750   -0.00108066    0.00020145
     atom    3 type  2   force =     0.00061664   -0.00045511    0.00026070

     Total force =     0.002190     Total SCF correction =     0.000019

     number of scf cycles    =  13
     number of bfgs steps    =  11

     energy   old            =     -34.1837650493 Ry
     energy   new            =     -34.1837704064 Ry

     CASE: energy  _new < energy  _old

     new trust radius        =       0.0043573605 bohr
     new conv_thr            =            1.0E-10 Ry


ATOMIC_POSITIONS (angstrom)
H        0.397138046  -0.535723906   0.724425588
H       -0.328128644  -0.460210575  -0.644828183
O        0.000564598   0.096784480   0.088974594



     Writing output data file pwscf.save
     Check: negative starting charge=   -0.015994
     NEW-OLD atomic charge density approx. for the potential
     Check: negative starting charge=   -0.015993

     negative rho (up, down):  2.666E-04 0.000E+00

     total cpu time spent up to now is       28.6 secs

     per-process dynamical memory:    45.8 Mb

     Self-consistent Calculation

     iteration #  1     ecut=    90.00 Ry     beta=0.70
     Davidson diagonalization with overlap
     ethr =  1.00E-06,  avg # of iterations =  3.0

     Threshold (ethr) on eigenvalues was too large:
     Diagonalizing with lowered threshold

     Davidson diagonalization with overlap
     ethr =  1.85E-08,  avg # of iterations =  2.0

     negative rho (up, down):  5.774E-05 0.000E+00

     total cpu time spent up to now is       29.0 secs

     total energy              =     -34.18377724 Ry
     Harris-Foulkes estimate   =     -34.18377612 Ry
     estimated scf accuracy    <       0.00000156 Ry

     iteration #  2     ecut=    90.00 Ry     beta=0.70
     Davidson diagonalization with overlap
     ethr =  1.95E-08,  avg # of iterations =  2.0

     negative rho (up, down):  6.142E-06 0.000E+00

     total cpu time spent up to now is       29.2 secs

     total energy              =     -34.18377757 Ry
     Harris-Foulkes estimate   =     -34.18377748 Ry
     estimated scf accuracy    <       0.00000009 Ry

     iteration #  3     ecut=    90.00 Ry     beta=0.70
     Davidson diagonalization with overlap
     ethr =  1.14E-09,  avg # of iterations =  2.0

     total cpu time spent up to now is       29.3 secs

     total energy              =     -34.18377755 Ry
     Harris-Foulkes estimate   =     -34.18377760 Ry
     estimated scf accuracy    <          6.2E-09 Ry

     iteration #  4     ecut=    90.00 Ry     beta=0.70
     Davidson diagonalization with overlap
     ethr =  7.80E-11,  avg # of iterations =  2.0

     total cpu time spent up to now is       29.5 secs

     End of self-consistent calculation

          k = 0.0000 0.0000 0.0000 (115313 PWs)   bands (ev):

   -25.0934 -12.8278  -9.1131  -7.0761  -0.9390   0.4289   0.7562   1.1332

     the Fermi energy is    -5.0833 ev

!    total energy              =     -34.18377756 Ry
     Harris-Foulkes estimate   =     -34.18377756 Ry
     estimated scf accuracy    <          9.3E-11 Ry

     The total energy is the sum of the following terms:

     one-electron contribution =     -63.69226361 Ry
     hartree contribution      =      33.26880602 Ry
     xc contribution           =      -8.35841601 Ry
     ewald contribution        =       4.59809604 Ry
     smearing contrib. (-TS)   =       0.00000000 Ry

     convergence has been achieved in   4 iterations

     Forces acting on atoms (Ry/au):

     atom    1 type  1   force =    -0.00092996    0.00162201   -0.00082592
     atom    2 type  1   force =    -0.00018211   -0.00104368    0.00014124
     atom    3 type  2   force =     0.00111208   -0.00057833    0.00068468

     Total force =     0.002713     Total SCF correction =     0.000067

     number of scf cycles    =  14
     number of bfgs steps    =  12

     energy   old            =     -34.1837704064 Ry
     energy   new            =     -34.1837775583 Ry

     CASE: energy  _new < energy  _old

     new trust radius        =       0.0065360407 bohr
     new conv_thr            =            1.0E-10 Ry


ATOMIC_POSITIONS (angstrom)
H        0.397499174  -0.532474990   0.725555588
H       -0.327723027  -0.463315282  -0.644612611
O       -0.000202147   0.096640272   0.087629023



     Writing output data file pwscf.save
     Check: negative starting charge=   -0.015993
     NEW-OLD atomic charge density approx. for the potential
     Check: negative starting charge=   -0.015993

     negative rho (up, down):  4.000E-04 0.000E+00

     total cpu time spent up to now is       30.3 secs

     per-process dynamical memory:    45.8 Mb

     Self-consistent Calculation

     iteration #  1     ecut=    90.00 Ry     beta=0.70
     Davidson diagonalization with overlap
     ethr =  1.00E-06,  avg # of iterations =  3.0

     Threshold (ethr) on eigenvalues was too large:
     Diagonalizing with lowered threshold

     Davidson diagonalization with overlap
     ethr =  4.08E-08,  avg # of iterations =  1.0

     negative rho (up, down):  9.157E-05 0.000E+00

     total cpu time spent up to now is       30.6 secs

     total energy              =     -34.18378505 Ry
     Harris-Foulkes estimate   =     -34.18378357 Ry
     estimated scf accuracy    <       0.00000340 Ry

     iteration #  2     ecut=    90.00 Ry     beta=0.70
     Davidson diagonalization with overlap
     ethr =  4.25E-08,  avg # of iterations =  2.0

     negative rho (up, down):  1.015E-05 0.000E+00

     total cpu time spent up to now is       30.8 secs

     total energy              =     -34.18378609 Ry
     Harris-Foulkes estimate   =     -34.18378549 Ry
     estimated scf accuracy    <       0.00000020 Ry

     iteration #  3     ecut=    90.00 Ry     beta=0.70
     Davidson diagonalization with overlap
     ethr =  2.54E-09,  avg # of iterations =  2.0

     total cpu time spent up to now is       31.0 secs

     total energy              =     -34.18378616 Ry
     Harris-Foulkes estimate   =     -34.18378613 Ry
     estimated scf accuracy    <       0.00000001 Ry

     iteration #  4     ecut=    90.00 Ry     beta=0.70
     Davidson diagonalization with overlap
     ethr =  1.54E-10,  avg # of iterations =  2.0

     total cpu time spent up to now is       31.2 secs

     total energy              =     -34.18378616 Ry
     Harris-Foulkes estimate   =     -34.18378617 Ry
     estimated scf accuracy    <          1.3E-10 Ry

     iteration #  5     ecut=    90.00 Ry     beta=0.70
     Davidson diagonalization with overlap
     ethr =  1.59E-12,  avg # of iterations =  2.0

     total cpu time spent up to now is       31.3 secs

     End of self-consistent calculation

          k = 0.0000 0.0000 0.0000 (115313 PWs)   bands (ev):

   -25.0924 -12.8300  -9.1108  -7.0758  -0.9389   0.4289   0.7561   1.1332

     the Fermi energy is    -5.0830 ev

!    total energy              =     -34.18378614 Ry
     Harris-Foulkes estimate   =     -34.18378616 Ry
     estimated scf accuracy    <          1.2E-11 Ry

     The total energy is the sum of the following terms:

     one-electron contribution =     -63.69190669 Ry
     hartree contribution      =      33.26870957 Ry
     xc contribution           =      -8.35841293 Ry
     ewald contribution        =       4.59782391 Ry
     smearing contrib. (-TS)   =       0.00000000 Ry

     convergence has been achieved in   5 iterations

     Forces acting on atoms (Ry/au):

     atom    1 type  1   force =    -0.00115418    0.00149901   -0.00114490
     atom    2 type  1   force =    -0.00029988   -0.00086878    0.00008219
     atom    3 type  2   force =     0.00145406   -0.00063023    0.00106271

     Total force =     0.003063     Total SCF correction =     0.000001

     number of scf cycles    =  15
     number of bfgs steps    =  13

     energy   old            =     -34.1837775583 Ry
     energy   new            =     -34.1837861388 Ry

     CASE: energy  _new < energy  _old

     new trust radius        =       0.0098040610 bohr
     new conv_thr            =            1.0E-10 Ry


ATOMIC_POSITIONS (angstrom)
H        0.397764481  -0.527487285   0.726958674
H       -0.327068490  -0.468261822  -0.644033452
O       -0.001121991   0.096599107   0.085646778



     Writing output data file pwscf.save
     Check: negative starting charge=   -0.015993
     NEW-OLD atomic charge density approx. for the potential
     Check: negative starting charge=   -0.015994

     negative rho (up, down):  5.917E-04 0.000E+00

     total cpu time spent up to now is       31.9 secs

     per-process dynamical memory:    45.8 Mb

     Self-consistent Calculation

     iteration #  1     ecut=    90.00 Ry     beta=0.70
     Davidson diagonalization with overlap
     ethr =  1.00E-06,  avg # of iterations =  4.0

     Threshold (ethr) on eigenvalues was too large:
     Diagonalizing with lowered threshold

     Davidson diagonalization with overlap
     ethr =  9.32E-08,  avg # of iterations =  1.0

     negative rho (up, down):  1.411E-04 0.000E+00

     total cpu time spent up to now is       32.5 secs

     total energy              =     -34.18379030 Ry
     Harris-Foulkes estimate   =     -34.18378556 Ry
     estimated scf accuracy    <       0.00000756 Ry

     iteration #  2     ecut=    90.00 Ry     beta=0.70
     Davidson diagonalization with overlap
     ethr =  9.45E-08,  avg # of iterations =  3.0

     negative rho (up, down):  1.671E-05 0.000E+00

     total cpu time spent up to now is       32.7 secs

     total energy              =     -34.18379251 Ry
     Harris-Foulkes estimate   =     -34.18379120 Ry
     estimated scf accuracy    <       0.00000048 Ry

     iteration #  3     ecut=    90.00 Ry     beta=0.70
     Davidson diagonalization with overlap
     ethr =  5.97E-09,  avg # of iterations =  3.0

     negative rho (up, down):  6.310E-08 0.000E+00

     total cpu time spent up to now is       33.0 secs

     total energy              =     -34.18379249 Ry
     Harris-Foulkes estimate   =     -34.18379261 Ry
     estimated scf accuracy    <       0.00000004 Ry

     iteration #  4     ecut=    90.00 Ry     beta=0.70
     Davidson diagonalization with overlap
     ethr =  5.00E-10,  avg # of iterations =  2.0

     total cpu time spent up to now is       33.2 secs

     total energy              =     -34.18379257 Ry
     Harris-Foulkes estimate   =     -34.18379251 Ry
     estimated scf accuracy    <       0.00000001 Ry

     iteration #  5     ecut=    90.00 Ry     beta=0.70
     Davidson diagonalization with overlap
     ethr =  1.46E-10,  avg # of iterations =  2.0

     total cpu time spent up to now is       33.7 secs

     total energy              =     -34.18379256 Ry
     Harris-Foulkes estimate   =     -34.18379257 Ry
     estimated scf accuracy    <          1.6E-10 Ry

     iteration #  6     ecut=    90.00 Ry     beta=0.70
     Davidson diagonalization with overlap
     ethr =  1.95E-12,  avg # of iterations =  2.0

     total cpu time spent up to now is       33.9 secs

     End of self-consistent calculation

          k = 0.0000 0.0000 0.0000 (115313 PWs)   bands (ev):

   -25.0927 -12.8318  -9.1097  -7.0758  -0.9386   0.4290   0.7562   1.1331

     the Fermi energy is    -5.0832 ev

!    total energy              =     -34.18379256 Ry
     Harris-Foulkes estimate   =     -34.18379256 Ry
     estimated scf accuracy    <          8.1E-12 Ry

     The total energy is the sum of the following terms:

     one-electron contribution =     -63.69342165 Ry
     hartree contribution      =      33.26946757 Ry
     xc contribution           =      -8.35854406 Ry
     ewald contribution        =       4.59870558 Ry
     smearing contrib. (-TS)   =       0.00000000 Ry

     convergence has been achieved in   6 iterations

     Forces acting on atoms (Ry/au):

     atom    1 type  1   force =    -0.00105712    0.00087441   -0.00121643
     atom    2 type  1   force =    -0.00031034   -0.00039127    0.00001885
     atom    3 type  2   force =     0.00136746   -0.00048313    0.00119758

     Total force =     0.002674     Total SCF correction =     0.000008

     number of scf cycles    =  16
     number of bfgs steps    =  14

     energy   old            =     -34.1837861388 Ry
     energy   new            =     -34.1837925565 Ry

     CASE: energy  _new < energy  _old

     new trust radius        =       0.0011441913 bohr
     new conv_thr            =            1.0E-10 Ry


ATOMIC_POSITIONS (angstrom)
H        0.397533521  -0.527120532   0.726750506
H       -0.326975275  -0.468792865  -0.643757934
O       -0.000984246   0.096763397   0.085579428



     Writing output data file pwscf.save
     Check: negative starting charge=   -0.015994
     NEW-OLD atomic charge density approx. for the potential
     Check: negative starting charge=   -0.015994

     negative rho (up, down):  3.260E-05 0.000E+00

     total cpu time spent up to now is       34.5 secs

     per-process dynamical memory:    45.8 Mb

     Self-consistent Calculation

     iteration #  1     ecut=    90.00 Ry     beta=0.70
     Davidson diagonalization with overlap
     ethr =  1.00E-06,  avg # of iterations =  2.0

     Threshold (ethr) on eigenvalues was too large:
     Diagonalizing with lowered threshold

     Davidson diagonalization with overlap
     ethr =  1.18E-09,  avg # of iterations =  2.0

     negative rho (up, down):  3.946E-06 0.000E+00

     total cpu time spent up to now is       34.8 secs

     total energy              =     -34.18379370 Ry
     Harris-Foulkes estimate   =     -34.18379298 Ry
     estimated scf accuracy    <       0.00000010 Ry

     iteration #  2     ecut=    90.00 Ry     beta=0.70
     Davidson diagonalization with overlap
     ethr =  1.26E-09,  avg # of iterations =  2.0

     negative rho (up, down):  3.923E-07 0.000E+00

     total cpu time spent up to now is       35.0 secs

     total energy              =     -34.18379386 Ry
     Harris-Foulkes estimate   =     -34.18379372 Ry
     estimated scf accuracy    <       0.00000002 Ry

     iteration #  3     ecut=    90.00 Ry     beta=0.70
     Davidson diagonalization with overlap
     ethr =  2.13E-10,  avg # of iterations =  2.0

     total cpu time spent up to now is       35.2 secs

     total energy              =     -34.18379391 Ry
     Harris-Foulkes estimate   =     -34.18379387 Ry
     estimated scf accuracy    <          9.6E-09 Ry

     iteration #  4     ecut=    90.00 Ry     beta=0.70
     Davidson diagonalization with overlap
     ethr =  1.20E-10,  avg # of iterations =  2.0

     total cpu time spent up to now is       35.3 secs

     End of self-consistent calculation

          k = 0.0000 0.0000 0.0000 (115313 PWs)   bands (ev):

   -25.0945 -12.8308  -9.1119  -7.0762  -0.9383   0.4291   0.7565   1.1331

     the Fermi energy is    -5.0837 ev

!    total energy              =     -34.18379399 Ry
     Harris-Foulkes estimate   =     -34.18379392 Ry
     estimated scf accuracy    <          7.8E-11 Ry

     The total energy is the sum of the following terms:

     one-electron contribution =     -63.69604668 Ry
     hartree contribution      =      33.27062463 Ry
     xc contribution           =      -8.35872938 Ry
     ewald contribution        =       4.60035744 Ry
     smearing contrib. (-TS)   =       0.00000000 Ry

     convergence has been achieved in   4 iterations

     Forces acting on atoms (Ry/au):

     atom    1 type  1   force =    -0.00058028    0.00055443   -0.00070306
     atom    2 type  1   force =    -0.00013057   -0.00005944    0.00008962
     atom    3 type  2   force =     0.00071085   -0.00049499    0.00061343

     Total force =     0.001514     Total SCF correction =     0.000096

     bfgs converged in  17 scf cycles and  15 bfgs steps
     (criteria: energy <  1.0E-04, force <  1.0E-03)

     End of BFGS Geometry Optimization

     Final energy   =     -34.1837939885 Ry
Begin final coordinates

ATOMIC_POSITIONS (angstrom)
H        0.397533521  -0.527120532   0.726750506
H       -0.326975275  -0.468792865  -0.643757934
O       -0.000984246   0.096763397   0.085579428
End final coordinates



     Writing output data file pwscf.save
 
     init_run     :      0.51s CPU      0.55s WALL (       1 calls)
     electrons    :     22.36s CPU     26.65s WALL (      17 calls)
     update_pot   :      4.02s CPU      5.14s WALL (      16 calls)
     forces       :      1.13s CPU      1.14s WALL (      17 calls)

     Called by init_run:
     wfcinit      :      0.03s CPU      0.04s WALL (       1 calls)
     potinit      :      0.11s CPU      0.12s WALL (       1 calls)

     Called by electrons:
     c_bands      :      9.90s CPU     10.29s WALL (     105 calls)
     sum_band     :      2.17s CPU      2.22s WALL (     105 calls)
     v_of_rho     :      5.91s CPU      6.27s WALL (     115 calls)
     mix_rho      :      2.38s CPU      4.07s WALL (     105 calls)

     Called by c_bands:
     init_us_2    :      0.06s CPU      0.07s WALL (     211 calls)
     cegterg      :      9.84s CPU     10.19s WALL (     105 calls)

     Called by sum_band:

     Called by *egterg:
     h_psi        :      8.55s CPU      8.85s WALL (     586 calls)
     g_psi        :      0.08s CPU      0.08s WALL (     480 calls)
     cdiaghg      :      0.14s CPU      0.14s WALL (     562 calls)

     Called by h_psi:
     h_psi:pot    :      8.46s CPU      8.76s WALL (     586 calls)
     h_psi:calbec :      0.14s CPU      0.18s WALL (     586 calls)
     vloc_psi     :      8.25s CPU      8.51s WALL (     586 calls)
     add_vuspsi   :      0.06s CPU      0.06s WALL (     586 calls)

     General routines
     calbec       :      0.15s CPU      0.19s WALL (     654 calls)
     fft          :      4.26s CPU      4.59s WALL (    1312 calls)
     fftw         :      8.32s CPU      8.60s WALL (    6570 calls)
     davcio       :      0.24s CPU      1.58s WALL (     632 calls)
 
     Parallel routines
     fft_scatter  :      4.59s CPU      5.14s WALL (    7882 calls)
 
     PWSCF        :    28.98s CPU        35.98s WALL

 
   This run was terminated on:   2:11:44  28Jul2018            

=------------------------------------------------------------------------------=
   JOB DONE.
=------------------------------------------------------------------------------=
