
     Program PWSCF v.6.0 (svn rev. 13079) starts on 28Jul2018 at  2:32:18 

     This program is part of the open-source Quantum ESPRESSO suite
     for quantum simulation of materials; please cite
         "P. Giannozzi et al., J. Phys.:Condens. Matter 21 395502 (2009);
          URL http://www.quantum-espresso.org", 
     in publications or presentations arising from this work. More details at
     http://www.quantum-espresso.org/quote

     Parallel version (MPI), running on    28 processors
     R & G space division:  proc/nbgrp/npool/nimage =      28
     Reading input from ../QMCmins/relax-49.in

     Current dimensions of program PWSCF are:
     Max number of different atomic species (ntypx) = 10
     Max number of k-points (npk) =  40000
     Max angular momentum in pseudopotentials (lmaxx) =  3
     Message from routine iosys:
     pot_extrapolation='second-order' not available, using 'atomic'
     Message from routine iosys:
     wfc_extrapolation='second-order' not available, using 'atomic'

     Subspace diagonalization in iterative solution of the eigenvalue problem:
     a serial algorithm will be used

 
     Parallelization info
     --------------------
     sticks:   dense  smooth     PW     G-vecs:    dense   smooth      PW
     Min         408     408    102                32936    32936    4116
     Max         409     409    103                32943    32943    4121
     Sum       11449   11449   2869               922329   922329  115313
 


     bravais-lattice index     =            1
     lattice parameter (alat)  =      20.0000  a.u.
     unit-cell volume          =    8000.0000 (a.u.)^3
     number of atoms/cell      =            3
     number of atomic types    =            2
     number of electrons       =         8.00
     number of Kohn-Sham states=            8
     kinetic-energy cutoff     =      90.0000  Ry
     charge density cutoff     =     360.0000  Ry
     convergence threshold     =      1.0E-08
     mixing beta               =       0.7000
     number of iterations used =            8  plain     mixing
     Exchange-correlation      = BLYP ( 1  3  1  3 0 0)
     nstep                     =           50


     celldm(1)=  20.000000  celldm(2)=   0.000000  celldm(3)=   0.000000
     celldm(4)=   0.000000  celldm(5)=   0.000000  celldm(6)=   0.000000

     crystal axes: (cart. coord. in units of alat)
               a(1) = (   1.000000   0.000000   0.000000 )  
               a(2) = (   0.000000   1.000000   0.000000 )  
               a(3) = (   0.000000   0.000000   1.000000 )  

     reciprocal axes: (cart. coord. in units 2 pi/alat)
               b(1) = (  1.000000  0.000000  0.000000 )  
               b(2) = (  0.000000  1.000000  0.000000 )  
               b(3) = (  0.000000  0.000000  1.000000 )  


     PseudoPot. # 1 for  H read from file:
     ../H.blyp-hgh.UPF
     MD5 check sum: c576e69559cde411e611be972c763230
     Pseudo is Norm-conserving, Zval =  1.0
     Generated in analytical, separable form
     Using radial grid of  929 points,  0 beta functions with: 

     PseudoPot. # 2 for  O read from file:
     ../O.blyp-hgh.UPF
     MD5 check sum: d0b7156309aa9befef28faac7bc56342
     Pseudo is Norm-conserving, Zval =  6.0
     Generated in analytical, separable form
     Using radial grid of 1095 points,  1 beta functions with: 
                l(1) =   0

     atomic species   valence    mass     pseudopotential
        H              1.00     1.01000      H( 1.00)
        O              6.00    16.00000      O( 1.00)

     No symmetry found



   Cartesian axes

     site n.     atom                  positions (alat units)
         1           H   tau(   1) = (   0.0256114  -0.0902363   0.0268907  )
         2           H   tau(   2) = (  -0.0846321   0.0186844   0.0113937  )
         3           O   tau(   3) = (   0.0037257   0.0045167   0.0031613  )

     number of k points=     1  Marzari-Vanderbilt smearing, width (Ry)=  0.0250
                       cart. coord. in units 2pi/alat
        k(    1) = (   0.0000000   0.0000000   0.0000000), wk =   2.0000000

     Dense  grid:   922329 G-vectors     FFT dimensions: ( 125, 125, 125)

     Estimated max dynamical RAM per process >      31.67Mb

     Estimated total allocated dynamical RAM >     886.64Mb

     Initial potential from superposition of free atoms
     Check: negative starting charge=   -0.015860

     starting charge    7.99998, renormalised to    8.00000

     negative rho (up, down):  1.586E-02 0.000E+00
     Starting wfc are    6 randomized atomic wfcs +    2 random wfc

     total cpu time spent up to now is        0.7 secs

     per-process dynamical memory:    33.5 Mb

     Self-consistent Calculation

     iteration #  1     ecut=    90.00 Ry     beta=0.70
     Davidson diagonalization with overlap
     ethr =  1.00E-02,  avg # of iterations =  8.0

     negative rho (up, down):  4.601E-03 0.000E+00

     total cpu time spent up to now is        1.0 secs

     total energy              =     -34.01717942 Ry
     Harris-Foulkes estimate   =     -34.25576365 Ry
     estimated scf accuracy    <       0.35888949 Ry

     iteration #  2     ecut=    90.00 Ry     beta=0.70
     Davidson diagonalization with overlap
     ethr =  4.49E-03,  avg # of iterations =  2.0

     negative rho (up, down):  2.745E-03 0.000E+00

     total cpu time spent up to now is        1.2 secs

     total energy              =     -34.07046852 Ry
     Harris-Foulkes estimate   =     -34.27363696 Ry
     estimated scf accuracy    <       0.44653865 Ry

     iteration #  3     ecut=    90.00 Ry     beta=0.70
     Davidson diagonalization with overlap
     ethr =  4.49E-03,  avg # of iterations =  2.0

     negative rho (up, down):  1.985E-04 0.000E+00

     total cpu time spent up to now is        1.4 secs

     total energy              =     -34.16825318 Ry
     Harris-Foulkes estimate   =     -34.16924557 Ry
     estimated scf accuracy    <       0.00618121 Ry

     iteration #  4     ecut=    90.00 Ry     beta=0.70
     Davidson diagonalization with overlap
     ethr =  7.73E-05,  avg # of iterations =  5.0

     negative rho (up, down):  1.906E-06 0.000E+00

     total cpu time spent up to now is        1.6 secs

     total energy              =     -34.17001740 Ry
     Harris-Foulkes estimate   =     -34.17017802 Ry
     estimated scf accuracy    <       0.00041286 Ry

     iteration #  5     ecut=    90.00 Ry     beta=0.70
     Davidson diagonalization with overlap
     ethr =  5.16E-06,  avg # of iterations =  9.0

     negative rho (up, down):  3.797E-06 0.000E+00

     total cpu time spent up to now is        2.0 secs

     total energy              =     -34.17003993 Ry
     Harris-Foulkes estimate   =     -34.17004835 Ry
     estimated scf accuracy    <       0.00002984 Ry

     iteration #  6     ecut=    90.00 Ry     beta=0.70
     Davidson diagonalization with overlap
     ethr =  3.73E-07,  avg # of iterations =  2.0

     negative rho (up, down):  3.429E-07 0.000E+00

     total cpu time spent up to now is        2.2 secs

     total energy              =     -34.17004313 Ry
     Harris-Foulkes estimate   =     -34.17004345 Ry
     estimated scf accuracy    <       0.00000028 Ry

     iteration #  7     ecut=    90.00 Ry     beta=0.70
     Davidson diagonalization with overlap
     ethr =  3.47E-09,  avg # of iterations =  2.0

     total cpu time spent up to now is        2.4 secs

     total energy              =     -34.17004305 Ry
     Harris-Foulkes estimate   =     -34.17004324 Ry
     estimated scf accuracy    <       0.00000003 Ry

     iteration #  8     ecut=    90.00 Ry     beta=0.70
     Davidson diagonalization with overlap
     ethr =  3.50E-10,  avg # of iterations =  2.0

     total cpu time spent up to now is        2.6 secs

     total energy              =     -34.17004290 Ry
     Harris-Foulkes estimate   =     -34.17004306 Ry
     estimated scf accuracy    <       0.00000001 Ry

     iteration #  9     ecut=    90.00 Ry     beta=0.70
     Davidson diagonalization with overlap
     ethr =  1.38E-10,  avg # of iterations =  2.0

     total cpu time spent up to now is        2.8 secs

     End of self-consistent calculation

          k = 0.0000 0.0000 0.0000 (115313 PWs)   bands (ev):

   -24.7981 -12.8155  -8.8148  -7.0022  -1.0579   0.3683   0.6858   1.1179

     the Fermi energy is    -5.0209 ev

!    total energy              =     -34.17004290 Ry
     Harris-Foulkes estimate   =     -34.17004290 Ry
     estimated scf accuracy    <          1.9E-10 Ry

     The total energy is the sum of the following terms:

     one-electron contribution =     -63.12016387 Ry
     hartree contribution      =      33.00537429 Ry
     xc contribution           =      -8.31660979 Ry
     ewald contribution        =       4.26135647 Ry
     smearing contrib. (-TS)   =       0.00000000 Ry

     convergence has been achieved in   9 iterations

     Forces acting on atoms (Ry/au):

     atom    1 type  1   force =    -0.04539894    0.11158176   -0.02535749
     atom    2 type  1   force =    -0.06043330   -0.01107615    0.01146823
     atom    3 type  2   force =     0.10583224   -0.10050561    0.01388926

     Total force =     0.201384     Total SCF correction =     0.000040

     BFGS Geometry Optimization

     number of scf cycles    =   1
     number of bfgs steps    =   0

     energy   new            =     -34.1700428993 Ry

     new trust radius        =       0.1466108911 bohr
     new conv_thr            =       0.0000000100 Ry


ATOMIC_POSITIONS (angstrom)
H        0.247034914  -0.895973476   0.271180395
H       -0.927687926   0.191885754   0.126654725
O        0.095435012  -0.005382279   0.040807880



     Writing output data file pwscf.save
     Check: negative starting charge=   -0.015860
     NEW-OLD atomic charge density approx. for the potential
     Check: negative starting charge=   -0.015949

     negative rho (up, down):  2.431E-02 0.000E+00

     total cpu time spent up to now is        3.4 secs

     per-process dynamical memory:    45.8 Mb

     Self-consistent Calculation

     iteration #  1     ecut=    90.00 Ry     beta=0.70
     Davidson diagonalization with overlap
     c_bands:  2 eigenvalues not converged
     ethr =  1.00E-06,  avg # of iterations = 20.0

     negative rho (up, down):  6.410E-03 0.000E+00

     total cpu time spent up to now is        3.8 secs

     total energy              =     -34.14971513 Ry
     Harris-Foulkes estimate   =     -34.18087553 Ry
     estimated scf accuracy    <       0.01180052 Ry

     iteration #  2     ecut=    90.00 Ry     beta=0.70
     Davidson diagonalization with overlap
     ethr =  1.48E-04,  avg # of iterations =  4.0

     negative rho (up, down):  3.806E-03 0.000E+00

     total cpu time spent up to now is        4.1 secs

     total energy              =     -34.16139485 Ry
     Harris-Foulkes estimate   =     -34.16210635 Ry
     estimated scf accuracy    <       0.00948754 Ry

     iteration #  3     ecut=    90.00 Ry     beta=0.70
     Davidson diagonalization with overlap
     ethr =  1.19E-04,  avg # of iterations =  3.0

     negative rho (up, down):  1.293E-03 0.000E+00

     total cpu time spent up to now is        4.3 secs

     total energy              =     -34.16652703 Ry
     Harris-Foulkes estimate   =     -34.16355197 Ry
     estimated scf accuracy    <       0.00028167 Ry

     iteration #  4     ecut=    90.00 Ry     beta=0.70
     Davidson diagonalization with overlap
     ethr =  3.52E-06,  avg # of iterations = 16.0

     negative rho (up, down):  1.751E-05 0.000E+00

     total cpu time spent up to now is        4.6 secs

     total energy              =     -34.16675530 Ry
     Harris-Foulkes estimate   =     -34.16660232 Ry
     estimated scf accuracy    <       0.00001756 Ry

     iteration #  5     ecut=    90.00 Ry     beta=0.70
     Davidson diagonalization with overlap
     ethr =  2.20E-07,  avg # of iterations =  6.0

     negative rho (up, down):  1.705E-06 0.000E+00

     total cpu time spent up to now is        4.9 secs

     total energy              =     -34.17083693 Ry
     Harris-Foulkes estimate   =     -34.17083719 Ry
     estimated scf accuracy    <       0.00000035 Ry

     iteration #  6     ecut=    90.00 Ry     beta=0.70
     Davidson diagonalization with overlap
     ethr =  4.33E-09,  avg # of iterations =  2.0

     total cpu time spent up to now is        5.1 secs

     total energy              =     -34.17083691 Ry
     Harris-Foulkes estimate   =     -34.17083699 Ry
     estimated scf accuracy    <       0.00000001 Ry

     iteration #  7     ecut=    90.00 Ry     beta=0.70
     Davidson diagonalization with overlap
     ethr =  1.27E-10,  avg # of iterations =  2.0

     total cpu time spent up to now is        5.2 secs

     End of self-consistent calculation

          k = 0.0000 0.0000 0.0000 (115313 PWs)   bands (ev):

   -24.9945 -12.9059  -8.9090  -7.0398  -1.0029   0.3868   0.7245   1.1200

     the Fermi energy is    -5.0685 ev

!    total energy              =     -34.17083696 Ry
     Harris-Foulkes estimate   =     -34.17083691 Ry
     estimated scf accuracy    <          4.7E-10 Ry

     The total energy is the sum of the following terms:

     one-electron contribution =     -63.49929266 Ry
     hartree contribution      =      33.18321910 Ry
     xc contribution           =      -8.34571721 Ry
     ewald contribution        =       4.49095382 Ry
     smearing contrib. (-TS)   =       0.00000000 Ry

     convergence has been achieved in   7 iterations

     Forces acting on atoms (Ry/au):

     atom    1 type  1   force =     0.00072542   -0.10174779    0.02864612
     atom    2 type  1   force =     0.10025723   -0.03315364   -0.00443271
     atom    3 type  2   force =    -0.10098265    0.13490142   -0.02421342

     Total force =     0.226553     Total SCF correction =     0.000012

     number of scf cycles    =   2
     number of bfgs steps    =   1

     energy   old            =     -34.1700428993 Ry
     energy   new            =     -34.1708369556 Ry

     CASE: energy  _new < energy  _old

     new trust radius        =       0.0773140958 bohr
     new conv_thr            =       0.0000000008 Ry


ATOMIC_POSITIONS (angstrom)
H        0.246243503  -0.919878367   0.278041212
H       -0.903065497   0.183073667   0.125755771
O        0.071603994   0.027334700   0.034846018



     Writing output data file pwscf.save
     Check: negative starting charge=   -0.015949
     NEW-OLD atomic charge density approx. for the potential
     Check: negative starting charge=   -0.015946

     negative rho (up, down):  1.401E-02 0.000E+00

     total cpu time spent up to now is        5.8 secs

     per-process dynamical memory:    45.8 Mb

     Self-consistent Calculation

     iteration #  1     ecut=    90.00 Ry     beta=0.70
     Davidson diagonalization with overlap
     c_bands:  1 eigenvalues not converged
     ethr =  1.00E-06,  avg # of iterations = 20.0

     negative rho (up, down):  3.665E-03 0.000E+00

     total cpu time spent up to now is        6.2 secs

     total energy              =     -34.17456891 Ry
     Harris-Foulkes estimate   =     -34.16042614 Ry
     estimated scf accuracy    <       0.00235468 Ry

     iteration #  2     ecut=    90.00 Ry     beta=0.70
     Davidson diagonalization with overlap
     ethr =  2.94E-05,  avg # of iterations =  6.0

     negative rho (up, down):  1.405E-03 0.000E+00

     total cpu time spent up to now is        6.4 secs

     total energy              =     -34.17793085 Ry
     Harris-Foulkes estimate   =     -34.17523123 Ry
     estimated scf accuracy    <       0.00021722 Ry

     iteration #  3     ecut=    90.00 Ry     beta=0.70
     Davidson diagonalization with overlap
     c_bands:  1 eigenvalues not converged
     ethr =  2.72E-06,  avg # of iterations = 20.0

     negative rho (up, down):  5.382E-04 0.000E+00

     total cpu time spent up to now is        7.1 secs

     total energy              =     -34.17818927 Ry
     Harris-Foulkes estimate   =     -34.17800507 Ry
     estimated scf accuracy    <       0.00004430 Ry

     iteration #  4     ecut=    90.00 Ry     beta=0.70
     Davidson diagonalization with overlap
     ethr =  5.54E-07,  avg # of iterations =  8.0

     negative rho (up, down):  1.797E-05 0.000E+00

     total cpu time spent up to now is        7.3 secs

     total energy              =     -34.18228793 Ry
     Harris-Foulkes estimate   =     -34.18228213 Ry
     estimated scf accuracy    <       0.00000789 Ry

     iteration #  5     ecut=    90.00 Ry     beta=0.70
     Davidson diagonalization with overlap
     ethr =  9.86E-08,  avg # of iterations =  9.0

     negative rho (up, down):  3.539E-08 0.000E+00

     total cpu time spent up to now is        7.6 secs

     total energy              =     -34.18228961 Ry
     Harris-Foulkes estimate   =     -34.18228980 Ry
     estimated scf accuracy    <       0.00000003 Ry

     iteration #  6     ecut=    90.00 Ry     beta=0.70
     Davidson diagonalization with overlap
     ethr =  4.10E-10,  avg # of iterations =  3.0

     negative rho (up, down):  1.677E-08 0.000E+00

     total cpu time spent up to now is        7.8 secs

     total energy              =     -34.18228962 Ry
     Harris-Foulkes estimate   =     -34.18228964 Ry
     estimated scf accuracy    <          4.7E-09 Ry

     iteration #  7     ecut=    90.00 Ry     beta=0.70
     Davidson diagonalization with overlap
     ethr =  5.90E-11,  avg # of iterations =  2.0

     total cpu time spent up to now is        8.0 secs

     End of self-consistent calculation

          k = 0.0000 0.0000 0.0000 (115313 PWs)   bands (ev):

   -24.9105 -12.8311  -8.9600  -7.0356  -0.9752   0.4178   0.7038   1.1202

     the Fermi energy is    -5.0474 ev

!    total energy              =     -34.18228963 Ry
     Harris-Foulkes estimate   =     -34.18228962 Ry
     estimated scf accuracy    <          3.1E-10 Ry

     The total energy is the sum of the following terms:

     one-electron contribution =     -63.38030299 Ry
     hartree contribution      =      33.12468349 Ry
     xc contribution           =      -8.33446067 Ry
     ewald contribution        =       4.40779054 Ry
     smearing contrib. (-TS)   =       0.00000000 Ry

     convergence has been achieved in   7 iterations

     Forces acting on atoms (Ry/au):

     atom    1 type  1   force =    -0.01625360    0.02301390   -0.00462604
     atom    2 type  1   force =     0.02120249   -0.01590165    0.00128006
     atom    3 type  2   force =    -0.00494889   -0.00711225    0.00334598

     Total force =     0.040069     Total SCF correction =     0.000061

     number of scf cycles    =   3
     number of bfgs steps    =   2

     energy   old            =     -34.1708369556 Ry
     energy   new            =     -34.1822896253 Ry

     CASE: energy  _new < energy  _old

     new trust radius        =       0.0316310896 bohr
     new conv_thr            =       0.0000000023 Ry


ATOMIC_POSITIONS (angstrom)
H        0.236899467  -0.909313273   0.276150503
H       -0.889465750   0.173342256   0.126478465
O        0.067348283   0.026501016   0.036014032



     Writing output data file pwscf.save
     Check: negative starting charge=   -0.015946
     NEW-OLD atomic charge density approx. for the potential
     Check: negative starting charge=   -0.015950

     negative rho (up, down):  1.343E-03 0.000E+00

     total cpu time spent up to now is        8.6 secs

     per-process dynamical memory:    45.8 Mb

     Self-consistent Calculation

     iteration #  1     ecut=    90.00 Ry     beta=0.70
     Davidson diagonalization with overlap
     ethr =  1.00E-06,  avg # of iterations = 15.0

     negative rho (up, down):  3.347E-04 0.000E+00

     total cpu time spent up to now is        8.9 secs

     total energy              =     -34.18279240 Ry
     Harris-Foulkes estimate   =     -34.18298683 Ry
     estimated scf accuracy    <       0.00054291 Ry

     iteration #  2     ecut=    90.00 Ry     beta=0.70
     Davidson diagonalization with overlap
     ethr =  6.79E-06,  avg # of iterations =  8.0

     negative rho (up, down):  1.987E-04 0.000E+00

     total cpu time spent up to now is        9.3 secs

     total energy              =     -34.18290819 Ry
     Harris-Foulkes estimate   =     -34.18316488 Ry
     estimated scf accuracy    <       0.00053983 Ry

     iteration #  3     ecut=    90.00 Ry     beta=0.70
     Davidson diagonalization with overlap
     ethr =  6.75E-06,  avg # of iterations =  2.0

     negative rho (up, down):  2.551E-05 0.000E+00

     total cpu time spent up to now is        9.5 secs

     total energy              =     -34.18302194 Ry
     Harris-Foulkes estimate   =     -34.18302257 Ry
     estimated scf accuracy    <       0.00000423 Ry

     iteration #  4     ecut=    90.00 Ry     beta=0.70
     Davidson diagonalization with overlap
     ethr =  5.28E-08,  avg # of iterations = 10.0

     negative rho (up, down):  1.081E-06 0.000E+00

     total cpu time spent up to now is        9.7 secs

     total energy              =     -34.18302312 Ry
     Harris-Foulkes estimate   =     -34.18302331 Ry
     estimated scf accuracy    <       0.00000010 Ry

     iteration #  5     ecut=    90.00 Ry     beta=0.70
     Davidson diagonalization with overlap
     ethr =  1.29E-09,  avg # of iterations =  2.0

     total cpu time spent up to now is        9.9 secs

     total energy              =     -34.18302310 Ry
     Harris-Foulkes estimate   =     -34.18302315 Ry
     estimated scf accuracy    <          4.8E-09 Ry

     iteration #  6     ecut=    90.00 Ry     beta=0.70
     Davidson diagonalization with overlap
     ethr =  6.06E-11,  avg # of iterations =  2.0

     total cpu time spent up to now is       10.1 secs

     End of self-consistent calculation

          k = 0.0000 0.0000 0.0000 (115313 PWs)   bands (ev):

   -25.0853 -12.9541  -9.0107  -7.0688  -0.9272   0.4329   0.7412   1.1211

     the Fermi energy is    -5.0903 ev

!    total energy              =     -34.18302310 Ry
     Harris-Foulkes estimate   =     -34.18302310 Ry
     estimated scf accuracy    <          2.4E-10 Ry

     The total energy is the sum of the following terms:

     one-electron contribution =     -63.74342476 Ry
     hartree contribution      =      33.29660940 Ry
     xc contribution           =      -8.36261466 Ry
     ewald contribution        =       4.62640692 Ry
     smearing contrib. (-TS)   =       0.00000000 Ry

     convergence has been achieved in   6 iterations

     Forces acting on atoms (Ry/au):

     atom    1 type  1   force =    -0.00921917    0.00178438    0.00045981
     atom    2 type  1   force =    -0.01379329   -0.00740637    0.00378567
     atom    3 type  2   force =     0.02301246    0.00562199   -0.00424548

     Total force =     0.030447     Total SCF correction =     0.000045

     number of scf cycles    =   4
     number of bfgs steps    =   3

     energy   old            =     -34.1822896253 Ry
     energy   new            =     -34.1830230967 Ry

     CASE: energy  _new < energy  _old

     new trust radius        =       0.0175423679 bohr
     new conv_thr            =       0.0000000007 Ry


ATOMIC_POSITIONS (angstrom)
H        0.229072921  -0.905945546   0.276066026
H       -0.889715643   0.165822165   0.128487388
O        0.075424722   0.030653381   0.034089586



     Writing output data file pwscf.save
     Check: negative starting charge=   -0.015950
     NEW-OLD atomic charge density approx. for the potential
     Check: negative starting charge=   -0.015976

     negative rho (up, down):  2.943E-03 0.000E+00

     total cpu time spent up to now is       10.7 secs

     per-process dynamical memory:    45.8 Mb

     Self-consistent Calculation

     iteration #  1     ecut=    90.00 Ry     beta=0.70
     Davidson diagonalization with overlap
     c_bands:  1 eigenvalues not converged
     ethr =  1.00E-06,  avg # of iterations = 20.0

     negative rho (up, down):  7.562E-04 0.000E+00

     total cpu time spent up to now is       11.2 secs

     total energy              =     -34.17937764 Ry
     Harris-Foulkes estimate   =     -34.17756112 Ry
     estimated scf accuracy    <       0.00007349 Ry

     iteration #  2     ecut=    90.00 Ry     beta=0.70
     Davidson diagonalization with overlap
     ethr =  9.19E-07,  avg # of iterations = 12.0

     negative rho (up, down):  4.076E-04 0.000E+00

     total cpu time spent up to now is       11.5 secs

     total energy              =     -34.18348201 Ry
     Harris-Foulkes estimate   =     -34.18349209 Ry
     estimated scf accuracy    <       0.00004072 Ry

     iteration #  3     ecut=    90.00 Ry     beta=0.70
     Davidson diagonalization with overlap
     c_bands:  1 eigenvalues not converged
     ethr =  5.09E-07,  avg # of iterations = 20.0

     negative rho (up, down):  4.713E-05 0.000E+00

     total cpu time spent up to now is       11.8 secs

     total energy              =     -34.18349824 Ry
     Harris-Foulkes estimate   =     -34.18349368 Ry
     estimated scf accuracy    <       0.00000330 Ry

     iteration #  4     ecut=    90.00 Ry     beta=0.70
     Davidson diagonalization with overlap
     ethr =  4.13E-08,  avg # of iterations =  4.0

     negative rho (up, down):  8.309E-07 0.000E+00

     total cpu time spent up to now is       12.0 secs

     total energy              =     -34.18350023 Ry
     Harris-Foulkes estimate   =     -34.18349910 Ry
     estimated scf accuracy    <       0.00000005 Ry

     iteration #  5     ecut=    90.00 Ry     beta=0.70
     Davidson diagonalization with overlap
     ethr =  5.76E-10,  avg # of iterations =  2.0

     total cpu time spent up to now is       12.2 secs

     total energy              =     -34.18350044 Ry
     Harris-Foulkes estimate   =     -34.18350026 Ry
     estimated scf accuracy    <          1.8E-09 Ry

     iteration #  6     ecut=    90.00 Ry     beta=0.70
     Davidson diagonalization with overlap
     ethr =  2.24E-11,  avg # of iterations =  2.0

     total cpu time spent up to now is       12.4 secs

     End of self-consistent calculation

          k = 0.0000 0.0000 0.0000 (115313 PWs)   bands (ev):

   -25.0850 -12.8498  -9.0903  -7.0720  -0.9377   0.4291   0.7392   1.1209

     the Fermi energy is    -5.0904 ev

!    total energy              =     -34.18350046 Ry
     Harris-Foulkes estimate   =     -34.18350044 Ry
     estimated scf accuracy    <          1.2E-10 Ry

     The total energy is the sum of the following terms:

     one-electron contribution =     -63.68930958 Ry
     hartree contribution      =      33.26821724 Ry
     xc contribution           =      -8.35800834 Ry
     ewald contribution        =       4.59560021 Ry
     smearing contrib. (-TS)   =       0.00000000 Ry

     convergence has been achieved in   6 iterations

     Forces acting on atoms (Ry/au):

     atom    1 type  1   force =    -0.00414552   -0.00195416    0.00071689
     atom    2 type  1   force =    -0.00160766   -0.00485496    0.00129185
     atom    3 type  2   force =     0.00575318    0.00680912   -0.00200874

     Total force =     0.011526     Total SCF correction =     0.000005

     number of scf cycles    =   5
     number of bfgs steps    =   4

     energy   old            =     -34.1830230967 Ry
     energy   new            =     -34.1835004572 Ry

     CASE: energy  _new < energy  _old

     new trust radius        =       0.0163820303 bohr
     new conv_thr            =       0.0000000005 Ry


ATOMIC_POSITIONS (angstrom)
H        0.221303925  -0.903425593   0.275980519
H       -0.887638166   0.157581625   0.130198850
O        0.081116241   0.036373968   0.032463631



     Writing output data file pwscf.save
     Check: negative starting charge=   -0.015976
     NEW-OLD atomic charge density approx. for the potential
     Check: negative starting charge=   -0.015992

     negative rho (up, down):  2.599E-03 0.000E+00

     total cpu time spent up to now is       13.0 secs

     per-process dynamical memory:    45.8 Mb

     Self-consistent Calculation

     iteration #  1     ecut=    90.00 Ry     beta=0.70
     Davidson diagonalization with overlap
     c_bands:  1 eigenvalues not converged
     ethr =  1.00E-06,  avg # of iterations = 20.0

     negative rho (up, down):  6.663E-04 0.000E+00

     total cpu time spent up to now is       13.5 secs

     total energy              =     -34.17952922 Ry
     Harris-Foulkes estimate   =     -34.17816791 Ry
     estimated scf accuracy    <       0.00004676 Ry

     iteration #  2     ecut=    90.00 Ry     beta=0.70
     Davidson diagonalization with overlap
     ethr =  5.84E-07,  avg # of iterations = 11.0

     negative rho (up, down):  3.440E-04 0.000E+00

     total cpu time spent up to now is       13.8 secs

     total energy              =     -34.18362367 Ry
     Harris-Foulkes estimate   =     -34.18362840 Ry
     estimated scf accuracy    <       0.00002353 Ry

     iteration #  3     ecut=    90.00 Ry     beta=0.70
     Davidson diagonalization with overlap
     c_bands:  1 eigenvalues not converged
     ethr =  2.94E-07,  avg # of iterations = 20.0

     negative rho (up, down):  2.002E-05 0.000E+00

     total cpu time spent up to now is       14.1 secs

     total energy              =     -34.18363592 Ry
     Harris-Foulkes estimate   =     -34.18363092 Ry
     estimated scf accuracy    <       0.00000274 Ry

     iteration #  4     ecut=    90.00 Ry     beta=0.70
     Davidson diagonalization with overlap
     ethr =  3.43E-08,  avg # of iterations =  3.0

     negative rho (up, down):  2.741E-08 0.000E+00

     total cpu time spent up to now is       14.3 secs

     total energy              =     -34.18363723 Ry
     Harris-Foulkes estimate   =     -34.18363657 Ry
     estimated scf accuracy    <       0.00000002 Ry

     iteration #  5     ecut=    90.00 Ry     beta=0.70
     Davidson diagonalization with overlap
     ethr =  2.29E-10,  avg # of iterations =  3.0

     total cpu time spent up to now is       14.5 secs

     total energy              =     -34.18363734 Ry
     Harris-Foulkes estimate   =     -34.18363725 Ry
     estimated scf accuracy    <          2.0E-09 Ry

     iteration #  6     ecut=    90.00 Ry     beta=0.70
     Davidson diagonalization with overlap
     ethr =  2.56E-11,  avg # of iterations =  2.0

     total cpu time spent up to now is       14.6 secs

     End of self-consistent calculation

          k = 0.0000 0.0000 0.0000 (115313 PWs)   bands (ev):

   -25.0952 -12.7553  -9.1697  -7.0770  -0.9460   0.4257   0.7393   1.1192

     the Fermi energy is    -5.0942 ev

!    total energy              =     -34.18363737 Ry
     Harris-Foulkes estimate   =     -34.18363734 Ry
     estimated scf accuracy    <          1.1E-10 Ry

     The total energy is the sum of the following terms:

     one-electron contribution =     -63.65824072 Ry
     hartree contribution      =      33.25081757 Ry
     xc contribution           =      -8.35518528 Ry
     ewald contribution        =       4.57897106 Ry
     smearing contrib. (-TS)   =       0.00000000 Ry

     convergence has been achieved in   6 iterations

     Forces acting on atoms (Ry/au):

     atom    1 type  1   force =     0.00008419   -0.00033335   -0.00030539
     atom    2 type  1   force =     0.00087659   -0.00055106   -0.00024724
     atom    3 type  2   force =    -0.00096077    0.00088441    0.00055263

     Total force =     0.001832     Total SCF correction =     0.000009

     number of scf cycles    =   6
     number of bfgs steps    =   5

     energy   old            =     -34.1835004572 Ry
     energy   new            =     -34.1836373716 Ry

     CASE: energy  _new < energy  _old

     new trust radius        =       0.0010281758 bohr
     new conv_thr            =            1.0E-10 Ry


ATOMIC_POSITIONS (angstrom)
H        0.221098193  -0.903342197   0.275769291
H       -0.887382992   0.157104511   0.130141585
O        0.081066800   0.036767685   0.032732124



     Writing output data file pwscf.save
     Check: negative starting charge=   -0.015992
     NEW-OLD atomic charge density approx. for the potential
     Check: negative starting charge=   -0.015993

     negative rho (up, down):  9.270E-05 0.000E+00

     total cpu time spent up to now is       15.2 secs

     per-process dynamical memory:    45.8 Mb

     Self-consistent Calculation

     iteration #  1     ecut=    90.00 Ry     beta=0.70
     Davidson diagonalization with overlap
     ethr =  1.00E-06,  avg # of iterations =  2.0

     Threshold (ethr) on eigenvalues was too large:
     Diagonalizing with lowered threshold

     Davidson diagonalization with overlap
     ethr =  1.93E-09,  avg # of iterations =  3.0

     negative rho (up, down):  1.580E-05 0.000E+00

     total cpu time spent up to now is       15.5 secs

     total energy              =     -34.18363837 Ry
     Harris-Foulkes estimate   =     -34.18363675 Ry
     estimated scf accuracy    <       0.00000021 Ry

     iteration #  2     ecut=    90.00 Ry     beta=0.70
     Davidson diagonalization with overlap
     ethr =  2.69E-09,  avg # of iterations =  2.0

     negative rho (up, down):  2.932E-06 0.000E+00

     total cpu time spent up to now is       15.7 secs

     total energy              =     -34.18363863 Ry
     Harris-Foulkes estimate   =     -34.18363844 Ry
     estimated scf accuracy    <       0.00000003 Ry

     iteration #  3     ecut=    90.00 Ry     beta=0.70
     Davidson diagonalization with overlap
     ethr =  4.05E-10,  avg # of iterations =  2.0

     negative rho (up, down):  2.160E-07 0.000E+00

     total cpu time spent up to now is       15.8 secs

     total energy              =     -34.18363872 Ry
     Harris-Foulkes estimate   =     -34.18363865 Ry
     estimated scf accuracy    <       0.00000001 Ry

     iteration #  4     ecut=    90.00 Ry     beta=0.70
     Davidson diagonalization with overlap
     ethr =  1.65E-10,  avg # of iterations =  2.0

     total cpu time spent up to now is       16.0 secs

     total energy              =     -34.18363876 Ry
     Harris-Foulkes estimate   =     -34.18363873 Ry
     estimated scf accuracy    <          4.8E-10 Ry

     iteration #  5     ecut=    90.00 Ry     beta=0.70
     Davidson diagonalization with overlap
     ethr =  6.00E-12,  avg # of iterations =  2.0

     total cpu time spent up to now is       16.2 secs

     End of self-consistent calculation

          k = 0.0000 0.0000 0.0000 (115313 PWs)   bands (ev):

   -25.0976 -12.7544  -9.1723  -7.0775  -0.9457   0.4258   0.7397   1.1192

     the Fermi energy is    -5.0949 ev

!    total energy              =     -34.18363877 Ry
     Harris-Foulkes estimate   =     -34.18363876 Ry
     estimated scf accuracy    <          1.0E-11 Ry

     The total energy is the sum of the following terms:

     one-electron contribution =     -63.66174044 Ry
     hartree contribution      =      33.25237975 Ry
     xc contribution           =      -8.35544134 Ry
     ewald contribution        =       4.58116327 Ry
     smearing contrib. (-TS)   =       0.00000000 Ry

     convergence has been achieved in   5 iterations

     Forces acting on atoms (Ry/au):

     atom    1 type  1   force =     0.00020228   -0.00004473   -0.00037986
     atom    2 type  1   force =     0.00000634   -0.00025937   -0.00018918
     atom    3 type  2   force =    -0.00020862    0.00030410    0.00056904

     Total force =     0.000866     Total SCF correction =     0.000030

     bfgs converged in   7 scf cycles and   6 bfgs steps
     (criteria: energy <  1.0E-04, force <  1.0E-03)

     End of BFGS Geometry Optimization

     Final energy   =     -34.1836387673 Ry
Begin final coordinates

ATOMIC_POSITIONS (angstrom)
H        0.221098193  -0.903342197   0.275769291
H       -0.887382992   0.157104511   0.130141585
O        0.081066800   0.036767685   0.032732124
End final coordinates



     Writing output data file pwscf.save
 
     init_run     :      0.50s CPU      0.55s WALL (       1 calls)
     electrons    :     10.92s CPU     12.95s WALL (       7 calls)
     update_pot   :      1.48s CPU      1.75s WALL (       6 calls)
     forces       :      0.47s CPU      0.47s WALL (       7 calls)

     Called by init_run:
     wfcinit      :      0.03s CPU      0.04s WALL (       1 calls)
     potinit      :      0.11s CPU      0.11s WALL (       1 calls)

     Called by electrons:
     c_bands      :      5.53s CPU      5.75s WALL (      47 calls)
     sum_band     :      0.97s CPU      1.00s WALL (      47 calls)
     v_of_rho     :      2.72s CPU      2.83s WALL (      53 calls)
     mix_rho      :      1.10s CPU      1.99s WALL (      47 calls)

     Called by c_bands:
     init_us_2    :      0.02s CPU      0.03s WALL (      95 calls)
     cegterg      :      5.50s CPU      5.70s WALL (      47 calls)

     Called by sum_band:

     Called by *egterg:
     h_psi        :      4.62s CPU      4.77s WALL (     374 calls)
     g_psi        :      0.04s CPU      0.04s WALL (     326 calls)
     cdiaghg      :      0.11s CPU      0.11s WALL (     366 calls)

     Called by h_psi:
     h_psi:pot    :      4.57s CPU      4.73s WALL (     374 calls)
     h_psi:calbec :      0.10s CPU      0.23s WALL (     374 calls)
     vloc_psi     :      4.43s CPU      4.46s WALL (     374 calls)
     add_vuspsi   :      0.03s CPU      0.03s WALL (     374 calls)

     General routines
     calbec       :      0.10s CPU      0.23s WALL (     402 calls)
     fft          :      1.94s CPU      2.06s WALL (     598 calls)
     fftw         :      4.37s CPU      4.41s WALL (    3414 calls)
     davcio       :      0.14s CPU      0.80s WALL (     338 calls)
 
     Parallel routines
     fft_scatter  :      2.24s CPU      2.38s WALL (    4012 calls)
 
     PWSCF        :    13.84s CPU        16.67s WALL

 
   This run was terminated on:   2:32:35  28Jul2018            

=------------------------------------------------------------------------------=
   JOB DONE.
=------------------------------------------------------------------------------=
