
     Program PWSCF v.6.0 (svn rev. 13079) starts on 28Jul2018 at  2:37:31 

     This program is part of the open-source Quantum ESPRESSO suite
     for quantum simulation of materials; please cite
         "P. Giannozzi et al., J. Phys.:Condens. Matter 21 395502 (2009);
          URL http://www.quantum-espresso.org", 
     in publications or presentations arising from this work. More details at
     http://www.quantum-espresso.org/quote

     Parallel version (MPI), running on    28 processors
     R & G space division:  proc/nbgrp/npool/nimage =      28
     Reading input from ../QMCmins/relax-62.in

     Current dimensions of program PWSCF are:
     Max number of different atomic species (ntypx) = 10
     Max number of k-points (npk) =  40000
     Max angular momentum in pseudopotentials (lmaxx) =  3
     Message from routine iosys:
     pot_extrapolation='second-order' not available, using 'atomic'
     Message from routine iosys:
     wfc_extrapolation='second-order' not available, using 'atomic'

     Subspace diagonalization in iterative solution of the eigenvalue problem:
     a serial algorithm will be used

 
     Parallelization info
     --------------------
     sticks:   dense  smooth     PW     G-vecs:    dense   smooth      PW
     Min         408     408    102                32936    32936    4116
     Max         409     409    103                32943    32943    4121
     Sum       11449   11449   2869               922329   922329  115313
 


     bravais-lattice index     =            1
     lattice parameter (alat)  =      20.0000  a.u.
     unit-cell volume          =    8000.0000 (a.u.)^3
     number of atoms/cell      =            3
     number of atomic types    =            2
     number of electrons       =         8.00
     number of Kohn-Sham states=            8
     kinetic-energy cutoff     =      90.0000  Ry
     charge density cutoff     =     360.0000  Ry
     convergence threshold     =      1.0E-08
     mixing beta               =       0.7000
     number of iterations used =            8  plain     mixing
     Exchange-correlation      = BLYP ( 1  3  1  3 0 0)
     nstep                     =           50


     celldm(1)=  20.000000  celldm(2)=   0.000000  celldm(3)=   0.000000
     celldm(4)=   0.000000  celldm(5)=   0.000000  celldm(6)=   0.000000

     crystal axes: (cart. coord. in units of alat)
               a(1) = (   1.000000   0.000000   0.000000 )  
               a(2) = (   0.000000   1.000000   0.000000 )  
               a(3) = (   0.000000   0.000000   1.000000 )  

     reciprocal axes: (cart. coord. in units 2 pi/alat)
               b(1) = (  1.000000  0.000000  0.000000 )  
               b(2) = (  0.000000  1.000000  0.000000 )  
               b(3) = (  0.000000  0.000000  1.000000 )  


     PseudoPot. # 1 for  H read from file:
     ../H.blyp-hgh.UPF
     MD5 check sum: c576e69559cde411e611be972c763230
     Pseudo is Norm-conserving, Zval =  1.0
     Generated in analytical, separable form
     Using radial grid of  929 points,  0 beta functions with: 

     PseudoPot. # 2 for  O read from file:
     ../O.blyp-hgh.UPF
     MD5 check sum: d0b7156309aa9befef28faac7bc56342
     Pseudo is Norm-conserving, Zval =  6.0
     Generated in analytical, separable form
     Using radial grid of 1095 points,  1 beta functions with: 
                l(1) =   0

     atomic species   valence    mass     pseudopotential
        H              1.00     1.01000      H( 1.00)
        O              6.00    16.00000      O( 1.00)

     No symmetry found



   Cartesian axes

     site n.     atom                  positions (alat units)
         1           H   tau(   1) = (   0.0000363   0.0713036  -0.0278673  )
         2           H   tau(   2) = (   0.0869971  -0.0076288   0.0320503  )
         3           O   tau(   3) = (  -0.0054940  -0.0040194   0.0053139  )

     number of k points=     1  Marzari-Vanderbilt smearing, width (Ry)=  0.0250
                       cart. coord. in units 2pi/alat
        k(    1) = (   0.0000000   0.0000000   0.0000000), wk =   2.0000000

     Dense  grid:   922329 G-vectors     FFT dimensions: ( 125, 125, 125)

     Estimated max dynamical RAM per process >      31.67Mb

     Estimated total allocated dynamical RAM >     886.64Mb

     Initial potential from superposition of free atoms
     Check: negative starting charge=   -0.016053

     starting charge    7.99998, renormalised to    8.00000

     negative rho (up, down):  1.605E-02 0.000E+00
     Starting wfc are    6 randomized atomic wfcs +    2 random wfc

     total cpu time spent up to now is        0.7 secs

     per-process dynamical memory:    33.5 Mb

     Self-consistent Calculation

     iteration #  1     ecut=    90.00 Ry     beta=0.70
     Davidson diagonalization with overlap
     ethr =  1.00E-02,  avg # of iterations =  8.0

     negative rho (up, down):  4.690E-03 0.000E+00

     total cpu time spent up to now is        1.0 secs

     total energy              =     -33.99136133 Ry
     Harris-Foulkes estimate   =     -34.25296202 Ry
     estimated scf accuracy    <       0.38905363 Ry

     iteration #  2     ecut=    90.00 Ry     beta=0.70
     Davidson diagonalization with overlap
     ethr =  4.86E-03,  avg # of iterations =  2.0

     negative rho (up, down):  2.750E-03 0.000E+00

     total cpu time spent up to now is        1.1 secs

     total energy              =     -34.05688647 Ry
     Harris-Foulkes estimate   =     -34.24566646 Ry
     estimated scf accuracy    <       0.40035667 Ry

     iteration #  3     ecut=    90.00 Ry     beta=0.70
     Davidson diagonalization with overlap
     ethr =  4.86E-03,  avg # of iterations =  2.0

     negative rho (up, down):  1.903E-04 0.000E+00

     total cpu time spent up to now is        1.3 secs

     total energy              =     -34.14759003 Ry
     Harris-Foulkes estimate   =     -34.14887997 Ry
     estimated scf accuracy    <       0.00638907 Ry

     iteration #  4     ecut=    90.00 Ry     beta=0.70
     Davidson diagonalization with overlap
     ethr =  7.99E-05,  avg # of iterations =  6.0

     negative rho (up, down):  2.501E-05 0.000E+00

     total cpu time spent up to now is        1.6 secs

     total energy              =     -34.14535587 Ry
     Harris-Foulkes estimate   =     -34.14553565 Ry
     estimated scf accuracy    <       0.00043510 Ry

     iteration #  5     ecut=    90.00 Ry     beta=0.70
     Davidson diagonalization with overlap
     ethr =  5.44E-06,  avg # of iterations = 10.0

     total cpu time spent up to now is        1.8 secs

     total energy              =     -34.14947295 Ry
     Harris-Foulkes estimate   =     -34.14947582 Ry
     estimated scf accuracy    <       0.00001526 Ry

     iteration #  6     ecut=    90.00 Ry     beta=0.70
     Davidson diagonalization with overlap
     ethr =  1.91E-07,  avg # of iterations =  2.0

     negative rho (up, down):  1.775E-07 0.000E+00

     total cpu time spent up to now is        2.0 secs

     total energy              =     -34.14947482 Ry
     Harris-Foulkes estimate   =     -34.14947481 Ry
     estimated scf accuracy    <       0.00000182 Ry

     iteration #  7     ecut=    90.00 Ry     beta=0.70
     Davidson diagonalization with overlap
     ethr =  2.27E-08,  avg # of iterations =  1.0

     total cpu time spent up to now is        2.2 secs

     total energy              =     -34.14947502 Ry
     Harris-Foulkes estimate   =     -34.14947493 Ry
     estimated scf accuracy    <       0.00000003 Ry

     iteration #  8     ecut=    90.00 Ry     beta=0.70
     Davidson diagonalization with overlap
     ethr =  4.12E-10,  avg # of iterations =  3.0

     total cpu time spent up to now is        2.4 secs

     End of self-consistent calculation

          k = 0.0000 0.0000 0.0000 (115313 PWs)   bands (ev):

   -25.7937 -12.5993  -9.6690  -7.1960  -0.9397   0.4029   0.8384   1.1242

     the Fermi energy is    -5.2651 ev

!    total energy              =     -34.14947493 Ry
     Harris-Foulkes estimate   =     -34.14947504 Ry
     estimated scf accuracy    <          5.5E-09 Ry

     The total energy is the sum of the following terms:

     one-electron contribution =     -64.61665274 Ry
     hartree contribution      =      33.69441334 Ry
     xc contribution           =      -8.43119018 Ry
     ewald contribution        =       5.20395466 Ry
     smearing contrib. (-TS)   =       0.00000000 Ry

     convergence has been achieved in   8 iterations

     Forces acting on atoms (Ry/au):

     atom    1 type  1   force =    -0.01614741    0.27232750   -0.12938828
     atom    2 type  1   force =    -0.05757692   -0.02682286   -0.00278661
     atom    3 type  2   force =     0.07372433   -0.24550464    0.13217489

     Total force =     0.422356     Total SCF correction =     0.000110

     BFGS Geometry Optimization

     number of scf cycles    =   1
     number of bfgs steps    =   0

     energy   new            =     -34.1494749292 Ry

     new trust radius        =       0.3019343157 bohr
     new conv_thr            =       0.0000000100 Ry


ATOMIC_POSITIONS (angstrom)
H       -0.008160843   0.898754505  -0.363404327
H        0.890269607  -0.094934045   0.337731387
O       -0.019132764  -0.172455460   0.126183940



     Writing output data file pwscf.save
     Check: negative starting charge=   -0.016053
     NEW-OLD atomic charge density approx. for the potential
     Check: negative starting charge=   -0.015993

     negative rho (up, down):  2.746E-02 0.000E+00

     total cpu time spent up to now is        3.0 secs

     per-process dynamical memory:    45.8 Mb

     Self-consistent Calculation

     iteration #  1     ecut=    90.00 Ry     beta=0.70
     Davidson diagonalization with overlap
     c_bands:  2 eigenvalues not converged
     ethr =  1.00E-06,  avg # of iterations = 20.0

     negative rho (up, down):  4.809E-03 0.000E+00

     total cpu time spent up to now is        3.4 secs

     total energy              =      49.57061302 Ry
     Harris-Foulkes estimate   =    -214.30710393 Ry
     estimated scf accuracy    <       7.20580595 Ry

     iteration #  2     ecut=    90.00 Ry     beta=0.70
     Davidson diagonalization with overlap
     ethr =  1.00E-02,  avg # of iterations =  4.0

     total cpu time spent up to now is        3.7 secs

     total energy              =     -32.27225438 Ry
     Harris-Foulkes estimate   =     -38.54528403 Ry
     estimated scf accuracy    <      13.91796148 Ry

     iteration #  3     ecut=    90.00 Ry     beta=0.70
     Davidson diagonalization with overlap
     ethr =  1.00E-02,  avg # of iterations =  3.0

     total cpu time spent up to now is        3.9 secs

     total energy              =     -34.47826746 Ry
     Harris-Foulkes estimate   =     -35.16229802 Ry
     estimated scf accuracy    <       2.05650131 Ry

     iteration #  4     ecut=    90.00 Ry     beta=0.70
     Davidson diagonalization with overlap
     ethr =  1.00E-02,  avg # of iterations =  1.0

     total cpu time spent up to now is        4.1 secs

     total energy              =     -34.39376668 Ry
     Harris-Foulkes estimate   =     -34.53469250 Ry
     estimated scf accuracy    <       1.04294608 Ry

     iteration #  5     ecut=    90.00 Ry     beta=0.70
     Davidson diagonalization with overlap
     ethr =  1.00E-02,  avg # of iterations =  1.0

     negative rho (up, down):  1.095E-01 0.000E+00

     total cpu time spent up to now is        4.3 secs

     total energy              =     -34.05119476 Ry
     Harris-Foulkes estimate   =     -34.39516659 Ry
     estimated scf accuracy    <       0.81157777 Ry

     iteration #  6     ecut=    90.00 Ry     beta=0.70
     Davidson diagonalization with overlap
     ethr =  1.00E-02,  avg # of iterations =  1.0

     negative rho (up, down):  7.537E-02 0.000E+00

     total cpu time spent up to now is        4.5 secs

     total energy              =     -34.07642618 Ry
     Harris-Foulkes estimate   =     -34.07423144 Ry
     estimated scf accuracy    <       0.12321605 Ry

     iteration #  7     ecut=    90.00 Ry     beta=0.70
     Davidson diagonalization with overlap
     ethr =  1.54E-03,  avg # of iterations =  1.0

     negative rho (up, down):  4.840E-02 0.000E+00

     total cpu time spent up to now is        4.7 secs

     total energy              =     -34.07849117 Ry
     Harris-Foulkes estimate   =     -34.07810707 Ry
     estimated scf accuracy    <       0.11952633 Ry

     iteration #  8     ecut=    90.00 Ry     beta=0.70
     Davidson diagonalization with overlap
     ethr =  1.49E-03,  avg # of iterations =  1.0

     total cpu time spent up to now is        4.9 secs

     total energy              =     -34.09404618 Ry
     Harris-Foulkes estimate   =     -34.07918805 Ry
     estimated scf accuracy    <       0.07811620 Ry

     iteration #  9     ecut=    90.00 Ry     beta=0.70
     Davidson diagonalization with overlap
     ethr =  9.76E-04,  avg # of iterations =  1.0

     negative rho (up, down):  1.344E-02 0.000E+00

     total cpu time spent up to now is        5.1 secs

     total energy              =     -34.12060474 Ry
     Harris-Foulkes estimate   =     -34.09530777 Ry
     estimated scf accuracy    <       0.03282925 Ry

     iteration # 10     ecut=    90.00 Ry     beta=0.70
     Davidson diagonalization with overlap
     ethr =  4.10E-04,  avg # of iterations =  2.0

     negative rho (up, down):  1.048E-02 0.000E+00

     total cpu time spent up to now is        5.4 secs

     total energy              =     -34.13032644 Ry
     Harris-Foulkes estimate   =     -34.12753374 Ry
     estimated scf accuracy    <       0.00138452 Ry

     iteration # 11     ecut=    90.00 Ry     beta=0.70
     Davidson diagonalization with overlap
     ethr =  1.73E-05,  avg # of iterations =  4.0

     negative rho (up, down):  8.294E-04 0.000E+00

     total cpu time spent up to now is        5.6 secs

     total energy              =     -34.13043576 Ry
     Harris-Foulkes estimate   =     -34.13059764 Ry
     estimated scf accuracy    <       0.00020897 Ry

     iteration # 12     ecut=    90.00 Ry     beta=0.70
     Davidson diagonalization with overlap
     c_bands:  1 eigenvalues not converged
     ethr =  2.61E-06,  avg # of iterations = 20.0

     negative rho (up, down):  1.133E-04 0.000E+00

     total cpu time spent up to now is        5.9 secs

     total energy              =     -34.13044256 Ry
     Harris-Foulkes estimate   =     -34.13045529 Ry
     estimated scf accuracy    <       0.00002673 Ry

     iteration # 13     ecut=    90.00 Ry     beta=0.70
     Davidson diagonalization with overlap
     ethr =  3.34E-07,  avg # of iterations = 11.0

     total cpu time spent up to now is        6.2 secs

     total energy              =     -34.13044262 Ry
     Harris-Foulkes estimate   =     -34.13044903 Ry
     estimated scf accuracy    <       0.00001951 Ry

     iteration # 14     ecut=    90.00 Ry     beta=0.70
     Davidson diagonalization with overlap
     ethr =  2.44E-07,  avg # of iterations =  1.0

     negative rho (up, down):  3.884E-06 0.000E+00

     total cpu time spent up to now is        6.4 secs

     total energy              =     -34.13044201 Ry
     Harris-Foulkes estimate   =     -34.13044324 Ry
     estimated scf accuracy    <       0.00000805 Ry

     iteration # 15     ecut=    90.00 Ry     beta=0.70
     Davidson diagonalization with overlap
     ethr =  1.01E-07,  avg # of iterations =  1.0

     negative rho (up, down):  1.054E-07 0.000E+00

     total cpu time spent up to now is        6.6 secs

     total energy              =     -34.13044208 Ry
     Harris-Foulkes estimate   =     -34.13044244 Ry
     estimated scf accuracy    <       0.00000359 Ry

     iteration # 16     ecut=    90.00 Ry     beta=0.70
     Davidson diagonalization with overlap
     ethr =  4.49E-08,  avg # of iterations =  1.0

     total cpu time spent up to now is        6.8 secs

     total energy              =     -34.13044186 Ry
     Harris-Foulkes estimate   =     -34.13044213 Ry
     estimated scf accuracy    <       0.00000198 Ry

     iteration # 17     ecut=    90.00 Ry     beta=0.70
     Davidson diagonalization with overlap
     ethr =  2.47E-08,  avg # of iterations =  1.0

     total cpu time spent up to now is        7.0 secs

     total energy              =     -34.13044133 Ry
     Harris-Foulkes estimate   =     -34.13044187 Ry
     estimated scf accuracy    <       0.00000121 Ry

     iteration # 18     ecut=    90.00 Ry     beta=0.70
     Davidson diagonalization with overlap
     ethr =  1.51E-08,  avg # of iterations =  1.0

     total cpu time spent up to now is        7.4 secs

     total energy              =     -34.13044119 Ry
     Harris-Foulkes estimate   =     -34.13044139 Ry
     estimated scf accuracy    <       0.00000012 Ry

     iteration # 19     ecut=    90.00 Ry     beta=0.70
     Davidson diagonalization with overlap
     ethr =  1.55E-09,  avg # of iterations =  2.0

     total cpu time spent up to now is        7.5 secs

     End of self-consistent calculation

          k = 0.0000 0.0000 0.0000 (115313 PWs)   bands (ev):

   -24.8035 -11.5356  -9.6856  -7.0354  -1.5070   0.1909   0.6563   1.1029

     the Fermi energy is    -5.0335 ev

!    total energy              =     -34.13044119 Ry
     Harris-Foulkes estimate   =     -34.13044120 Ry
     estimated scf accuracy    <          5.9E-10 Ry

     The total energy is the sum of the following terms:

     one-electron contribution =     -62.25619231 Ry
     hartree contribution      =      32.55770085 Ry
     xc contribution           =      -8.25149795 Ry
     ewald contribution        =       3.81954822 Ry
     smearing contrib. (-TS)   =       0.00000000 Ry

     convergence has been achieved in  19 iterations

     Forces acting on atoms (Ry/au):

     atom    1 type  1   force =    -0.02508853   -0.16199816    0.06733404
     atom    2 type  1   force =     0.10715680   -0.01925167    0.03765273
     atom    3 type  2   force =    -0.08206828    0.18124983   -0.10498677

     Total force =     0.308685     Total SCF correction =     0.000069

     number of scf cycles    =   2
     number of bfgs steps    =   1

     energy   old            =     -34.1494749292 Ry
     energy   new            =     -34.1304411882 Ry

     CASE: energy  _new > energy  _old

     new trust radius        =       0.1364119309 bohr
     new conv_thr            =       0.0000000100 Ry


ATOMIC_POSITIONS (angstrom)
H       -0.003476504   0.819752723  -0.325868990
H        0.906972581  -0.087152776   0.338539780
O       -0.040520077  -0.101234947   0.087840210



     Writing output data file pwscf.save
     Check: negative starting charge=   -0.015993
     NEW-OLD atomic charge density approx. for the potential
     Check: negative starting charge=   -0.016059

     negative rho (up, down):  2.621E-02 0.000E+00

     total cpu time spent up to now is        8.3 secs

     per-process dynamical memory:    45.8 Mb

     Self-consistent Calculation

     iteration #  1     ecut=    90.00 Ry     beta=0.70
     Davidson diagonalization with overlap
     c_bands:  1 eigenvalues not converged
     ethr =  1.00E-06,  avg # of iterations = 20.0

     negative rho (up, down):  6.815E-03 0.000E+00

     total cpu time spent up to now is        8.7 secs

     total energy              =     -34.16344404 Ry
     Harris-Foulkes estimate   =     -34.16016300 Ry
     estimated scf accuracy    <       0.01036069 Ry

     iteration #  2     ecut=    90.00 Ry     beta=0.70
     Davidson diagonalization with overlap
     ethr =  1.30E-04,  avg # of iterations =  4.0

     negative rho (up, down):  3.914E-03 0.000E+00

     total cpu time spent up to now is        8.9 secs

     total energy              =     -34.16852066 Ry
     Harris-Foulkes estimate   =     -34.16898598 Ry
     estimated scf accuracy    <       0.00688572 Ry

     iteration #  3     ecut=    90.00 Ry     beta=0.70
     Davidson diagonalization with overlap
     ethr =  8.61E-05,  avg # of iterations =  3.0

     negative rho (up, down):  1.128E-03 0.000E+00

     total cpu time spent up to now is        9.1 secs

     total energy              =     -34.17315516 Ry
     Harris-Foulkes estimate   =     -34.17026540 Ry
     estimated scf accuracy    <       0.00029164 Ry

     iteration #  4     ecut=    90.00 Ry     beta=0.70
     Davidson diagonalization with overlap
     ethr =  3.65E-06,  avg # of iterations = 17.0

     negative rho (up, down):  4.035E-05 0.000E+00

     total cpu time spent up to now is        9.5 secs

     total energy              =     -34.17738527 Ry
     Harris-Foulkes estimate   =     -34.17731763 Ry
     estimated scf accuracy    <       0.00000899 Ry

     iteration #  5     ecut=    90.00 Ry     beta=0.70
     Davidson diagonalization with overlap
     ethr =  1.12E-07,  avg # of iterations =  8.0

     negative rho (up, down):  2.332E-08 0.000E+00

     total cpu time spent up to now is        9.7 secs

     total energy              =     -34.17738722 Ry
     Harris-Foulkes estimate   =     -34.17738830 Ry
     estimated scf accuracy    <       0.00000020 Ry

     iteration #  6     ecut=    90.00 Ry     beta=0.70
     Davidson diagonalization with overlap
     ethr =  2.50E-09,  avg # of iterations =  2.0

     total cpu time spent up to now is        9.9 secs

     End of self-consistent calculation

          k = 0.0000 0.0000 0.0000 (115313 PWs)   bands (ev):

   -25.1399 -12.1123  -9.6728  -7.1047  -1.0264   0.3946   0.7322   1.1175

     the Fermi energy is    -5.1067 ev

!    total energy              =     -34.17738707 Ry
     Harris-Foulkes estimate   =     -34.17738726 Ry
     estimated scf accuracy    <          9.1E-09 Ry

     The total energy is the sum of the following terms:

     one-electron contribution =     -63.39819057 Ry
     hartree contribution      =      33.11023701 Ry
     xc contribution           =      -8.33155109 Ry
     ewald contribution        =       4.44211759 Ry
     smearing contrib. (-TS)   =       0.00000000 Ry

     convergence has been achieved in   6 iterations

     Forces acting on atoms (Ry/au):

     atom    1 type  1   force =    -0.03084201   -0.03717489    0.00877545
     atom    2 type  1   force =     0.00999080   -0.02805420    0.01565011
     atom    3 type  2   force =     0.02085121    0.06522909   -0.02442556

     Total force =     0.093959     Total SCF correction =     0.000016

     number of scf cycles    =   3
     number of bfgs steps    =   1

     energy   old            =     -34.1494749292 Ry
     energy   new            =     -34.1773870695 Ry

     CASE: energy  _new < energy  _old

     new trust radius        =       0.0425553977 bohr
     new conv_thr            =       0.0000000065 Ry


ATOMIC_POSITIONS (angstrom)
H       -0.018356866   0.816208627  -0.328243390
H        0.908695050  -0.101286629   0.345548929
O       -0.027362184  -0.083556998   0.083205461



     Writing output data file pwscf.save
     Check: negative starting charge=   -0.016059
     NEW-OLD atomic charge density approx. for the potential
     Check: negative starting charge=   -0.016048

     negative rho (up, down):  7.667E-03 0.000E+00

     total cpu time spent up to now is       10.4 secs

     per-process dynamical memory:    45.8 Mb

     Self-consistent Calculation

     iteration #  1     ecut=    90.00 Ry     beta=0.70
     Davidson diagonalization with overlap
     c_bands:  1 eigenvalues not converged
     ethr =  1.00E-06,  avg # of iterations = 20.0

     negative rho (up, down):  2.014E-03 0.000E+00

     total cpu time spent up to now is       10.9 secs

     total energy              =     -34.17567843 Ry
     Harris-Foulkes estimate   =     -34.17250239 Ry
     estimated scf accuracy    <       0.00084102 Ry

     iteration #  2     ecut=    90.00 Ry     beta=0.70
     Davidson diagonalization with overlap
     ethr =  1.05E-05,  avg # of iterations = 12.0

     negative rho (up, down):  1.275E-03 0.000E+00

     total cpu time spent up to now is       11.2 secs

     total energy              =     -34.17677673 Ry
     Harris-Foulkes estimate   =     -34.17662395 Ry
     estimated scf accuracy    <       0.00096090 Ry

     iteration #  3     ecut=    90.00 Ry     beta=0.70
     Davidson diagonalization with overlap
     ethr =  1.05E-05,  avg # of iterations =  5.0

     negative rho (up, down):  2.188E-04 0.000E+00

     total cpu time spent up to now is       11.4 secs

     total energy              =     -34.18116467 Ry
     Harris-Foulkes estimate   =     -34.18103913 Ry
     estimated scf accuracy    <       0.00000771 Ry

     iteration #  4     ecut=    90.00 Ry     beta=0.70
     Davidson diagonalization with overlap
     c_bands:  1 eigenvalues not converged
     ethr =  9.63E-08,  avg # of iterations = 20.0

     negative rho (up, down):  1.279E-05 0.000E+00

     total cpu time spent up to now is       11.7 secs

     total energy              =     -34.18116903 Ry
     Harris-Foulkes estimate   =     -34.18116956 Ry
     estimated scf accuracy    <       0.00000034 Ry

     iteration #  5     ecut=    90.00 Ry     beta=0.70
     Davidson diagonalization with overlap
     ethr =  4.21E-09,  avg # of iterations =  9.0

     total cpu time spent up to now is       12.0 secs

     total energy              =     -34.18116857 Ry
     Harris-Foulkes estimate   =     -34.18116915 Ry
     estimated scf accuracy    <       0.00000002 Ry

     iteration #  6     ecut=    90.00 Ry     beta=0.70
     Davidson diagonalization with overlap
     ethr =  2.16E-10,  avg # of iterations =  2.0

     total cpu time spent up to now is       12.1 secs

     End of self-consistent calculation

          k = 0.0000 0.0000 0.0000 (115313 PWs)   bands (ev):

   -25.2238 -12.4237  -9.5066  -7.1122  -0.9658   0.4158   0.7568   1.1218

     the Fermi energy is    -5.1245 ev

!    total energy              =     -34.18116856 Ry
     Harris-Foulkes estimate   =     -34.18116858 Ry
     estimated scf accuracy    <          3.5E-10 Ry

     The total energy is the sum of the following terms:

     one-electron contribution =     -63.70236494 Ry
     hartree contribution      =      33.26132789 Ry
     xc contribution           =      -8.35653612 Ry
     ewald contribution        =       4.61640461 Ry
     smearing contrib. (-TS)   =       0.00000000 Ry

     convergence has been achieved in   6 iterations

     Forces acting on atoms (Ry/au):

     atom    1 type  1   force =    -0.02120541   -0.00949528   -0.00063121
     atom    2 type  1   force =     0.01995845   -0.01971455    0.01520882
     atom    3 type  2   force =     0.00124696    0.02920982   -0.01457760

     Total force =     0.051243     Total SCF correction =     0.000038

     number of scf cycles    =   4
     number of bfgs steps    =   2

     energy   old            =     -34.1773870695 Ry
     energy   new            =     -34.1811685632 Ry

     CASE: energy  _new < energy  _old

     new trust radius        =       0.0468109374 bohr
     new conv_thr            =       0.0000000029 Ry


ATOMIC_POSITIONS (angstrom)
H       -0.036917643   0.817962908  -0.333541315
H        0.921121579  -0.119003175   0.357603875
O       -0.021227936  -0.067594733   0.076448439



     Writing output data file pwscf.save
     Check: negative starting charge=   -0.016048
     NEW-OLD atomic charge density approx. for the potential
     Check: negative starting charge=   -0.016010

     negative rho (up, down):  6.144E-03 0.000E+00

     total cpu time spent up to now is       12.7 secs

     per-process dynamical memory:    45.8 Mb

     Self-consistent Calculation

     iteration #  1     ecut=    90.00 Ry     beta=0.70
     Davidson diagonalization with overlap
     ethr =  1.00E-06,  avg # of iterations = 19.0

     negative rho (up, down):  1.608E-03 0.000E+00

     total cpu time spent up to now is       13.1 secs

     total energy              =     -34.17865057 Ry
     Harris-Foulkes estimate   =     -34.17247828 Ry
     estimated scf accuracy    <       0.00026549 Ry

     iteration #  2     ecut=    90.00 Ry     beta=0.70
     Davidson diagonalization with overlap
     ethr =  3.32E-06,  avg # of iterations = 14.0

     negative rho (up, down):  5.500E-04 0.000E+00

     total cpu time spent up to now is       13.4 secs

     total energy              =     -34.17904684 Ry
     Harris-Foulkes estimate   =     -34.17871897 Ry
     estimated scf accuracy    <       0.00004187 Ry

     iteration #  3     ecut=    90.00 Ry     beta=0.70
     Davidson diagonalization with overlap
     c_bands:  1 eigenvalues not converged
     ethr =  5.23E-07,  avg # of iterations = 20.0

     negative rho (up, down):  1.417E-04 0.000E+00

     total cpu time spent up to now is       13.8 secs

     total energy              =     -34.18314410 Ry
     Harris-Foulkes estimate   =     -34.18314343 Ry
     estimated scf accuracy    <       0.00001848 Ry

     iteration #  4     ecut=    90.00 Ry     beta=0.70
     Davidson diagonalization with overlap
     ethr =  2.31E-07,  avg # of iterations = 12.0

     negative rho (up, down):  2.867E-06 0.000E+00

     total cpu time spent up to now is       14.1 secs

     total energy              =     -34.18314698 Ry
     Harris-Foulkes estimate   =     -34.18314891 Ry
     estimated scf accuracy    <       0.00000076 Ry

     iteration #  5     ecut=    90.00 Ry     beta=0.70
     Davidson diagonalization with overlap
     ethr =  9.45E-09,  avg # of iterations =  3.0

     total cpu time spent up to now is       14.5 secs

     total energy              =     -34.18314694 Ry
     Harris-Foulkes estimate   =     -34.18314721 Ry
     estimated scf accuracy    <          8.4E-09 Ry

     iteration #  6     ecut=    90.00 Ry     beta=0.70
     Davidson diagonalization with overlap
     ethr =  1.05E-10,  avg # of iterations =  2.0

     total cpu time spent up to now is       14.6 secs

     End of self-consistent calculation

          k = 0.0000 0.0000 0.0000 (115313 PWs)   bands (ev):

   -25.1587 -12.6113  -9.3238  -7.0949  -0.9513   0.4226   0.7482   1.1247

     the Fermi energy is    -5.1060 ev

!    total energy              =     -34.18314694 Ry
     Harris-Foulkes estimate   =     -34.18314695 Ry
     estimated scf accuracy    <          5.0E-10 Ry

     The total energy is the sum of the following terms:

     one-electron contribution =     -63.69129434 Ry
     hartree contribution      =      33.26175059 Ry
     xc contribution           =      -8.35693121 Ry
     ewald contribution        =       4.60332802 Ry
     smearing contrib. (-TS)   =       0.00000000 Ry

     convergence has been achieved in   6 iterations

     Forces acting on atoms (Ry/au):

     atom    1 type  1   force =    -0.00958924    0.01097581   -0.00713583
     atom    2 type  1   force =    -0.00563869   -0.00790134    0.00256498
     atom    3 type  2   force =     0.01522793   -0.00307447    0.00457084

     Total force =     0.025028     Total SCF correction =     0.000058

     number of scf cycles    =   5
     number of bfgs steps    =   3

     energy   old            =     -34.1811685632 Ry
     energy   new            =     -34.1831469408 Ry

     CASE: energy  _new < energy  _old

     new trust radius        =       0.0286486790 bohr
     new conv_thr            =       0.0000000015 Ry


ATOMIC_POSITIONS (angstrom)
H       -0.050266359   0.822800208  -0.338855903
H        0.922463498  -0.130790264   0.363880079
O       -0.009221140  -0.060644944   0.075486824



     Writing output data file pwscf.save
     Check: negative starting charge=   -0.016010
     NEW-OLD atomic charge density approx. for the potential
     Check: negative starting charge=   -0.015996

     negative rho (up, down):  4.547E-03 0.000E+00

     total cpu time spent up to now is       15.2 secs

     per-process dynamical memory:    45.8 Mb

     Self-consistent Calculation

     iteration #  1     ecut=    90.00 Ry     beta=0.70
     Davidson diagonalization with overlap
     c_bands:  1 eigenvalues not converged
     ethr =  1.00E-06,  avg # of iterations = 20.0

     negative rho (up, down):  1.184E-03 0.000E+00

     total cpu time spent up to now is       15.6 secs

     total energy              =     -34.17936596 Ry
     Harris-Foulkes estimate   =     -34.17533248 Ry
     estimated scf accuracy    <       0.00014617 Ry

     iteration #  2     ecut=    90.00 Ry     beta=0.70
     Davidson diagonalization with overlap
     ethr =  1.83E-06,  avg # of iterations = 13.0

     negative rho (up, down):  6.436E-04 0.000E+00

     total cpu time spent up to now is       15.9 secs

     total energy              =     -34.17948724 Ry
     Harris-Foulkes estimate   =     -34.17943822 Ry
     estimated scf accuracy    <       0.00008430 Ry

     iteration #  3     ecut=    90.00 Ry     beta=0.70
     Davidson diagonalization with overlap
     ethr =  1.05E-06,  avg # of iterations =  4.0

     negative rho (up, down):  5.656E-05 0.000E+00

     total cpu time spent up to now is       16.2 secs

     total energy              =     -34.18359927 Ry
     Harris-Foulkes estimate   =     -34.18358804 Ry
     estimated scf accuracy    <       0.00000646 Ry

     iteration #  4     ecut=    90.00 Ry     beta=0.70
     Davidson diagonalization with overlap
     ethr =  8.07E-08,  avg # of iterations =  4.0

     negative rho (up, down):  2.253E-07 0.000E+00

     total cpu time spent up to now is       16.4 secs

     total energy              =     -34.18359948 Ry
     Harris-Foulkes estimate   =     -34.18360096 Ry
     estimated scf accuracy    <       0.00000008 Ry

     iteration #  5     ecut=    90.00 Ry     beta=0.70
     Davidson diagonalization with overlap
     ethr =  9.40E-10,  avg # of iterations =  3.0

     total cpu time spent up to now is       16.6 secs

     total energy              =     -34.18359946 Ry
     Harris-Foulkes estimate   =     -34.18359954 Ry
     estimated scf accuracy    <          5.5E-09 Ry

     iteration #  6     ecut=    90.00 Ry     beta=0.70
     Davidson diagonalization with overlap
     ethr =  6.90E-11,  avg # of iterations =  2.0

     total cpu time spent up to now is       16.7 secs

     End of self-consistent calculation

          k = 0.0000 0.0000 0.0000 (115313 PWs)   bands (ev):

   -25.1420 -12.7756  -9.1891  -7.0869  -0.9349   0.4292   0.7478   1.1755

     the Fermi energy is    -5.0637 ev

!    total energy              =     -34.18359945 Ry
     Harris-Foulkes estimate   =     -34.18359946 Ry
     estimated scf accuracy    <          4.1E-10 Ry

     The total energy is the sum of the following terms:

     one-electron contribution =     -63.74736041 Ry
     hartree contribution      =      33.29268057 Ry
     xc contribution           =      -8.36205256 Ry
     ewald contribution        =       4.63313295 Ry
     smearing contrib. (-TS)   =       0.00000000 Ry

     convergence has been achieved in   6 iterations

     Forces acting on atoms (Ry/au):

     atom    1 type  1   force =    -0.00129152    0.00807475   -0.00363490
     atom    2 type  1   force =     0.00579250   -0.00099012    0.00243166
     atom    3 type  2   force =    -0.00450098   -0.00708463    0.00120324

     Total force =     0.013872     Total SCF correction =     0.000007

     number of scf cycles    =   6
     number of bfgs steps    =   4

     energy   old            =     -34.1831469408 Ry
     energy   new            =     -34.1835994503 Ry

     CASE: energy  _new < energy  _old

     new trust radius        =       0.0069919184 bohr
     new conv_thr            =       0.0000000005 Ry


ATOMIC_POSITIONS (angstrom)
H       -0.052575882   0.825262806  -0.340369655
H        0.925065010  -0.132653177   0.365669982
O       -0.009513128  -0.061244629   0.075210673



     Writing output data file pwscf.save
     Check: negative starting charge=   -0.015996
     NEW-OLD atomic charge density approx. for the potential
     Check: negative starting charge=   -0.015993

     negative rho (up, down):  1.585E-04 0.000E+00

     total cpu time spent up to now is       17.3 secs

     per-process dynamical memory:    45.8 Mb

     Self-consistent Calculation

     iteration #  1     ecut=    90.00 Ry     beta=0.70
     Davidson diagonalization with overlap
     ethr =  1.00E-06,  avg # of iterations =  3.0

     negative rho (up, down):  3.110E-05 0.000E+00

     total cpu time spent up to now is       17.5 secs

     total energy              =     -34.18364816 Ry
     Harris-Foulkes estimate   =     -34.18366300 Ry
     estimated scf accuracy    <       0.00002477 Ry

     iteration #  2     ecut=    90.00 Ry     beta=0.70
     Davidson diagonalization with overlap
     ethr =  3.10E-07,  avg # of iterations =  2.0

     negative rho (up, down):  1.539E-05 0.000E+00

     total cpu time spent up to now is       17.7 secs

     total energy              =     -34.18365259 Ry
     Harris-Foulkes estimate   =     -34.18366427 Ry
     estimated scf accuracy    <       0.00002277 Ry

     iteration #  3     ecut=    90.00 Ry     beta=0.70
     Davidson diagonalization with overlap
     ethr =  2.85E-07,  avg # of iterations =  2.0

     negative rho (up, down):  7.338E-07 0.000E+00

     total cpu time spent up to now is       18.0 secs

     total energy              =     -34.18365762 Ry
     Harris-Foulkes estimate   =     -34.18365761 Ry
     estimated scf accuracy    <       0.00000028 Ry

     iteration #  4     ecut=    90.00 Ry     beta=0.70
     Davidson diagonalization with overlap
     ethr =  3.46E-09,  avg # of iterations =  2.0

     total cpu time spent up to now is       18.2 secs

     total energy              =     -34.18365775 Ry
     Harris-Foulkes estimate   =     -34.18365771 Ry
     estimated scf accuracy    <          5.4E-09 Ry

     iteration #  5     ecut=    90.00 Ry     beta=0.70
     Davidson diagonalization with overlap
     ethr =  6.77E-11,  avg # of iterations =  3.0

     total cpu time spent up to now is       18.3 secs

     End of self-consistent calculation

          k = 0.0000 0.0000 0.0000 (115313 PWs)   bands (ev):

   -25.1017 -12.7532  -9.1745  -7.0795  -0.9445   0.4262   0.7396   1.1747

     the Fermi energy is    -5.0543 ev

!    total energy              =     -34.18365773 Ry
     Harris-Foulkes estimate   =     -34.18365775 Ry
     estimated scf accuracy    <          3.3E-10 Ry

     The total energy is the sum of the following terms:

     one-electron contribution =     -63.66749642 Ry
     hartree contribution      =      33.25501506 Ry
     xc contribution           =      -8.35589624 Ry
     ewald contribution        =       4.58471988 Ry
     smearing contrib. (-TS)   =       0.00000000 Ry

     convergence has been achieved in   5 iterations

     Forces acting on atoms (Ry/au):

     atom    1 type  1   force =    -0.00008552    0.00217561   -0.00065979
     atom    2 type  1   force =    -0.00050688    0.00039605    0.00001964
     atom    3 type  2   force =     0.00059240   -0.00257166    0.00064014

     Total force =     0.003601     Total SCF correction =     0.000142

     number of scf cycles    =   7
     number of bfgs steps    =   5

     energy   old            =     -34.1835994503 Ry
     energy   new            =     -34.1836577303 Ry

     CASE: energy  _new < energy  _old

     new trust radius        =       0.0015705322 bohr
     new conv_thr            =            1.0E-10 Ry


ATOMIC_POSITIONS (angstrom)
H       -0.052588707   0.825785962  -0.340397946
H        0.924994878  -0.132349503   0.365711703
O       -0.009430171  -0.062071459   0.075197243



     Writing output data file pwscf.save
     Check: negative starting charge=   -0.015993
     NEW-OLD atomic charge density approx. for the potential
     Check: negative starting charge=   -0.015993

     negative rho (up, down):  1.841E-04 0.000E+00

     total cpu time spent up to now is       19.1 secs

     per-process dynamical memory:    45.8 Mb

     Self-consistent Calculation

     iteration #  1     ecut=    90.00 Ry     beta=0.70
     Davidson diagonalization with overlap
     ethr =  1.00E-06,  avg # of iterations =  3.0

     Threshold (ethr) on eigenvalues was too large:
     Diagonalizing with lowered threshold

     Davidson diagonalization with overlap
     ethr =  1.53E-08,  avg # of iterations =  1.0

     negative rho (up, down):  3.736E-05 0.000E+00

     total cpu time spent up to now is       19.3 secs

     total energy              =     -34.18366061 Ry
     Harris-Foulkes estimate   =     -34.18365890 Ry
     estimated scf accuracy    <       0.00000119 Ry

     iteration #  2     ecut=    90.00 Ry     beta=0.70
     Davidson diagonalization with overlap
     ethr =  1.49E-08,  avg # of iterations =  2.0

     negative rho (up, down):  1.750E-05 0.000E+00

     total cpu time spent up to now is       19.5 secs

     total energy              =     -34.18366109 Ry
     Harris-Foulkes estimate   =     -34.18366129 Ry
     estimated scf accuracy    <       0.00000082 Ry

     iteration #  3     ecut=    90.00 Ry     beta=0.70
     Davidson diagonalization with overlap
     ethr =  1.03E-08,  avg # of iterations =  2.0

     negative rho (up, down):  1.458E-06 0.000E+00

     total cpu time spent up to now is       19.7 secs

     total energy              =     -34.18366173 Ry
     Harris-Foulkes estimate   =     -34.18366131 Ry
     estimated scf accuracy    <       0.00000003 Ry

     iteration #  4     ecut=    90.00 Ry     beta=0.70
     Davidson diagonalization with overlap
     ethr =  3.68E-10,  avg # of iterations =  2.0

     total cpu time spent up to now is       19.9 secs

     total energy              =     -34.18366183 Ry
     Harris-Foulkes estimate   =     -34.18366174 Ry
     estimated scf accuracy    <          6.9E-10 Ry

     iteration #  5     ecut=    90.00 Ry     beta=0.70
     Davidson diagonalization with overlap
     ethr =  8.60E-12,  avg # of iterations =  3.0

     total cpu time spent up to now is       20.1 secs

     End of self-consistent calculation

          k = 0.0000 0.0000 0.0000 (115313 PWs)   bands (ev):

   -25.0973 -12.7454  -9.1768  -7.0789  -0.9461   0.4257   0.7387   1.1746

     the Fermi energy is    -5.0532 ev

!    total energy              =     -34.18366188 Ry
     Harris-Foulkes estimate   =     -34.18366184 Ry
     estimated scf accuracy    <          4.5E-11 Ry

     The total energy is the sum of the following terms:

     one-electron contribution =     -63.65607587 Ry
     hartree contribution      =      33.24946194 Ry
     xc contribution           =      -8.35499075 Ry
     ewald contribution        =       4.57794280 Ry
     smearing contrib. (-TS)   =       0.00000000 Ry

     convergence has been achieved in   5 iterations

     Forces acting on atoms (Ry/au):

     atom    1 type  1   force =    -0.00010587    0.00015723    0.00024596
     atom    2 type  1   force =    -0.00005625    0.00030924    0.00017700
     atom    3 type  2   force =     0.00016211   -0.00046647   -0.00042296

     Total force =     0.000806     Total SCF correction =     0.000131
     SCF correction compared to forces is large: reduce conv_thr to get better values

     bfgs converged in   8 scf cycles and   6 bfgs steps
     (criteria: energy <  1.0E-04, force <  1.0E-03)

     End of BFGS Geometry Optimization

     Final energy   =     -34.1836618754 Ry
Begin final coordinates

ATOMIC_POSITIONS (angstrom)
H       -0.052588707   0.825785962  -0.340397946
H        0.924994878  -0.132349503   0.365711703
O       -0.009430171  -0.062071459   0.075197243
End final coordinates



     Writing output data file pwscf.save
 
     init_run     :      0.52s CPU      0.55s WALL (       1 calls)
     electrons    :     13.74s CPU     16.17s WALL (       8 calls)
     update_pot   :      1.76s CPU      2.20s WALL (       7 calls)
     forces       :      0.56s CPU      0.58s WALL (       8 calls)

     Called by init_run:
     wfcinit      :      0.03s CPU      0.04s WALL (       1 calls)
     potinit      :      0.11s CPU      0.12s WALL (       1 calls)

     Called by electrons:
     c_bands      :      6.68s CPU      6.91s WALL (      62 calls)
     sum_band     :      1.27s CPU      1.31s WALL (      62 calls)
     v_of_rho     :      3.63s CPU      3.84s WALL (      69 calls)
     mix_rho      :      1.71s CPU      3.00s WALL (      62 calls)

     Called by c_bands:
     init_us_2    :      0.03s CPU      0.04s WALL (     125 calls)
     cegterg      :      6.64s CPU      6.84s WALL (      62 calls)

     Called by sum_band:

     Called by *egterg:
     h_psi        :      5.66s CPU      5.84s WALL (     437 calls)
     g_psi        :      0.05s CPU      0.05s WALL (     374 calls)
     cdiaghg      :      0.14s CPU      0.14s WALL (     428 calls)

     Called by h_psi:
     h_psi:pot    :      5.60s CPU      5.78s WALL (     437 calls)
     h_psi:calbec :      0.09s CPU      0.09s WALL (     437 calls)
     vloc_psi     :      5.47s CPU      5.64s WALL (     437 calls)
     add_vuspsi   :      0.04s CPU      0.04s WALL (     437 calls)

     General routines
     calbec       :      0.09s CPU      0.10s WALL (     469 calls)
     fft          :      2.59s CPU      2.88s WALL (     776 calls)
     fftw         :      5.43s CPU      5.61s WALL (    4288 calls)
     davcio       :      0.22s CPU      1.24s WALL (     567 calls)
 
     Parallel routines
     fft_scatter  :      2.88s CPU      3.31s WALL (    5064 calls)
 
     PWSCF        :    17.14s CPU        20.66s WALL

 
   This run was terminated on:   2:37:52  28Jul2018            

=------------------------------------------------------------------------------=
   JOB DONE.
=------------------------------------------------------------------------------=
