
     Program PWSCF v.6.0 (svn rev. 13079) starts on 28Jul2018 at  2:37:55 

     This program is part of the open-source Quantum ESPRESSO suite
     for quantum simulation of materials; please cite
         "P. Giannozzi et al., J. Phys.:Condens. Matter 21 395502 (2009);
          URL http://www.quantum-espresso.org", 
     in publications or presentations arising from this work. More details at
     http://www.quantum-espresso.org/quote

     Parallel version (MPI), running on    28 processors
     R & G space division:  proc/nbgrp/npool/nimage =      28
     Reading input from ../QMCmins/relax-63.in

     Current dimensions of program PWSCF are:
     Max number of different atomic species (ntypx) = 10
     Max number of k-points (npk) =  40000
     Max angular momentum in pseudopotentials (lmaxx) =  3
     Message from routine iosys:
     pot_extrapolation='second-order' not available, using 'atomic'
     Message from routine iosys:
     wfc_extrapolation='second-order' not available, using 'atomic'

     Subspace diagonalization in iterative solution of the eigenvalue problem:
     a serial algorithm will be used

 
     Parallelization info
     --------------------
     sticks:   dense  smooth     PW     G-vecs:    dense   smooth      PW
     Min         408     408    102                32936    32936    4116
     Max         409     409    103                32943    32943    4121
     Sum       11449   11449   2869               922329   922329  115313
 


     bravais-lattice index     =            1
     lattice parameter (alat)  =      20.0000  a.u.
     unit-cell volume          =    8000.0000 (a.u.)^3
     number of atoms/cell      =            3
     number of atomic types    =            2
     number of electrons       =         8.00
     number of Kohn-Sham states=            8
     kinetic-energy cutoff     =      90.0000  Ry
     charge density cutoff     =     360.0000  Ry
     convergence threshold     =      1.0E-08
     mixing beta               =       0.7000
     number of iterations used =            8  plain     mixing
     Exchange-correlation      = BLYP ( 1  3  1  3 0 0)
     nstep                     =           50


     celldm(1)=  20.000000  celldm(2)=   0.000000  celldm(3)=   0.000000
     celldm(4)=   0.000000  celldm(5)=   0.000000  celldm(6)=   0.000000

     crystal axes: (cart. coord. in units of alat)
               a(1) = (   1.000000   0.000000   0.000000 )  
               a(2) = (   0.000000   1.000000   0.000000 )  
               a(3) = (   0.000000   0.000000   1.000000 )  

     reciprocal axes: (cart. coord. in units 2 pi/alat)
               b(1) = (  1.000000  0.000000  0.000000 )  
               b(2) = (  0.000000  1.000000  0.000000 )  
               b(3) = (  0.000000  0.000000  1.000000 )  


     PseudoPot. # 1 for  H read from file:
     ../H.blyp-hgh.UPF
     MD5 check sum: c576e69559cde411e611be972c763230
     Pseudo is Norm-conserving, Zval =  1.0
     Generated in analytical, separable form
     Using radial grid of  929 points,  0 beta functions with: 

     PseudoPot. # 2 for  O read from file:
     ../O.blyp-hgh.UPF
     MD5 check sum: d0b7156309aa9befef28faac7bc56342
     Pseudo is Norm-conserving, Zval =  6.0
     Generated in analytical, separable form
     Using radial grid of 1095 points,  1 beta functions with: 
                l(1) =   0

     atomic species   valence    mass     pseudopotential
        H              1.00     1.01000      H( 1.00)
        O              6.00    16.00000      O( 1.00)

     No symmetry found



   Cartesian axes

     site n.     atom                  positions (alat units)
         1           H   tau(   1) = (   0.0310218  -0.0864333  -0.0010856  )
         2           H   tau(   2) = (   0.0776221   0.0386093  -0.0155862  )
         3           O   tau(   3) = (  -0.0068581   0.0030189   0.0066304  )

     number of k points=     1  Marzari-Vanderbilt smearing, width (Ry)=  0.0250
                       cart. coord. in units 2pi/alat
        k(    1) = (   0.0000000   0.0000000   0.0000000), wk =   2.0000000

     Dense  grid:   922329 G-vectors     FFT dimensions: ( 125, 125, 125)

     Estimated max dynamical RAM per process >      31.67Mb

     Estimated total allocated dynamical RAM >     886.64Mb

     Initial potential from superposition of free atoms
     Check: negative starting charge=   -0.016065

     starting charge    7.99998, renormalised to    8.00000

     negative rho (up, down):  1.606E-02 0.000E+00
     Starting wfc are    6 randomized atomic wfcs +    2 random wfc

     total cpu time spent up to now is        0.8 secs

     per-process dynamical memory:    33.5 Mb

     Self-consistent Calculation

     iteration #  1     ecut=    90.00 Ry     beta=0.70
     Davidson diagonalization with overlap
     ethr =  1.00E-02,  avg # of iterations =  7.0

     negative rho (up, down):  4.670E-03 0.000E+00

     total cpu time spent up to now is        1.2 secs

     total energy              =     -34.03587310 Ry
     Harris-Foulkes estimate   =     -34.24629732 Ry
     estimated scf accuracy    <       0.32200815 Ry

     iteration #  2     ecut=    90.00 Ry     beta=0.70
     Davidson diagonalization with overlap
     ethr =  4.03E-03,  avg # of iterations =  2.0

     negative rho (up, down):  2.828E-03 0.000E+00

     total cpu time spent up to now is        1.3 secs

     total energy              =     -34.07815173 Ry
     Harris-Foulkes estimate   =     -34.26265283 Ry
     estimated scf accuracy    <       0.40774546 Ry

     iteration #  3     ecut=    90.00 Ry     beta=0.70
     Davidson diagonalization with overlap
     ethr =  4.03E-03,  avg # of iterations =  2.0

     negative rho (up, down):  1.495E-04 0.000E+00

     total cpu time spent up to now is        1.5 secs

     total energy              =     -34.16830846 Ry
     Harris-Foulkes estimate   =     -34.16913831 Ry
     estimated scf accuracy    <       0.00608007 Ry

     iteration #  4     ecut=    90.00 Ry     beta=0.70
     Davidson diagonalization with overlap
     ethr =  7.60E-05,  avg # of iterations =  6.0

     negative rho (up, down):  3.790E-06 0.000E+00

     total cpu time spent up to now is        1.8 secs

     total energy              =     -34.16993750 Ry
     Harris-Foulkes estimate   =     -34.17005002 Ry
     estimated scf accuracy    <       0.00030678 Ry

     iteration #  5     ecut=    90.00 Ry     beta=0.70
     Davidson diagonalization with overlap
     ethr =  3.83E-06,  avg # of iterations = 10.0

     negative rho (up, down):  5.056E-07 0.000E+00

     total cpu time spent up to now is        2.0 secs

     total energy              =     -34.16995803 Ry
     Harris-Foulkes estimate   =     -34.16996337 Ry
     estimated scf accuracy    <       0.00002375 Ry

     iteration #  6     ecut=    90.00 Ry     beta=0.70
     Davidson diagonalization with overlap
     ethr =  2.97E-07,  avg # of iterations =  2.0

     negative rho (up, down):  3.127E-07 0.000E+00

     total cpu time spent up to now is        2.2 secs

     total energy              =     -34.16996030 Ry
     Harris-Foulkes estimate   =     -34.16996016 Ry
     estimated scf accuracy    <       0.00000219 Ry

     iteration #  7     ecut=    90.00 Ry     beta=0.70
     Davidson diagonalization with overlap
     ethr =  2.73E-08,  avg # of iterations =  2.0

     total cpu time spent up to now is        2.5 secs

     total energy              =     -34.16996022 Ry
     Harris-Foulkes estimate   =     -34.16996070 Ry
     estimated scf accuracy    <       0.00000016 Ry

     iteration #  8     ecut=    90.00 Ry     beta=0.70
     Davidson diagonalization with overlap
     ethr =  1.95E-09,  avg # of iterations =  3.0

     total cpu time spent up to now is        2.7 secs

     total energy              =     -34.16996014 Ry
     Harris-Foulkes estimate   =     -34.16996026 Ry
     estimated scf accuracy    <       0.00000001 Ry

     iteration #  9     ecut=    90.00 Ry     beta=0.70
     Davidson diagonalization with overlap
     ethr =  1.61E-10,  avg # of iterations =  1.0

     total cpu time spent up to now is        2.8 secs

     End of self-consistent calculation

          k = 0.0000 0.0000 0.0000 (115313 PWs)   bands (ev):

   -25.0180 -11.7258  -9.8735  -7.0934  -1.1139   0.3684   0.7036   1.1048

     the Fermi energy is    -5.0858 ev

!    total energy              =     -34.16996012 Ry
     Harris-Foulkes estimate   =     -34.16996014 Ry
     estimated scf accuracy    <          1.9E-09 Ry

     The total energy is the sum of the following terms:

     one-electron contribution =     -62.99056931 Ry
     hartree contribution      =      32.90812943 Ry
     xc contribution           =      -8.29829939 Ry
     ewald contribution        =       4.21077915 Ry
     smearing contrib. (-TS)   =       0.00000000 Ry

     convergence has been achieved in   9 iterations

     Forces acting on atoms (Ry/au):

     atom    1 type  1   force =    -0.06198919    0.04187239    0.01464304
     atom    2 type  1   force =    -0.02905116    0.03404834    0.00640564
     atom    3 type  2   force =     0.09104035   -0.07592073   -0.02104868

     Total force =     0.149499     Total SCF correction =     0.000115

     BFGS Geometry Optimization

     number of scf cycles    =   1
     number of bfgs steps    =   0

     energy   new            =     -34.1699601187 Ry

     new trust radius        =       0.1203966328 bohr
     new conv_thr            =       0.0000000100 Ry


ATOMIC_POSITIONS (angstrom)
H        0.295517735  -0.892613084  -0.003741237
H        0.806143787   0.426640603  -0.161567284
O       -0.024406522  -0.008224519   0.059034521



     Writing output data file pwscf.save
     Check: negative starting charge=   -0.016065
     NEW-OLD atomic charge density approx. for the potential
     Check: negative starting charge=   -0.016047

     negative rho (up, down):  2.112E-02 0.000E+00

     total cpu time spent up to now is        3.4 secs

     per-process dynamical memory:    45.8 Mb

     Self-consistent Calculation

     iteration #  1     ecut=    90.00 Ry     beta=0.70
     Davidson diagonalization with overlap
     ethr =  1.00E-06,  avg # of iterations = 18.0

     negative rho (up, down):  5.628E-03 0.000E+00

     total cpu time spent up to now is        3.9 secs

     total energy              =     -34.15952637 Ry
     Harris-Foulkes estimate   =     -34.18527005 Ry
     estimated scf accuracy    <       0.01226587 Ry

     iteration #  2     ecut=    90.00 Ry     beta=0.70
     Davidson diagonalization with overlap
     ethr =  1.53E-04,  avg # of iterations =  4.0

     negative rho (up, down):  3.539E-03 0.000E+00

     total cpu time spent up to now is        4.1 secs

     total energy              =     -34.16735115 Ry
     Harris-Foulkes estimate   =     -34.17082911 Ry
     estimated scf accuracy    <       0.01408361 Ry

     iteration #  3     ecut=    90.00 Ry     beta=0.70
     Davidson diagonalization with overlap
     ethr =  1.53E-04,  avg # of iterations =  3.0

     negative rho (up, down):  8.314E-04 0.000E+00

     total cpu time spent up to now is        4.3 secs

     total energy              =     -34.17272828 Ry
     Harris-Foulkes estimate   =     -34.17006214 Ry
     estimated scf accuracy    <       0.00006652 Ry

     iteration #  4     ecut=    90.00 Ry     beta=0.70
     Davidson diagonalization with overlap
     ethr =  8.31E-07,  avg # of iterations = 15.0

     negative rho (up, down):  9.917E-05 0.000E+00

     total cpu time spent up to now is        4.7 secs

     total energy              =     -34.17688017 Ry
     Harris-Foulkes estimate   =     -34.17685297 Ry
     estimated scf accuracy    <       0.00000348 Ry

     iteration #  5     ecut=    90.00 Ry     beta=0.70
     Davidson diagonalization with overlap
     ethr =  4.35E-08,  avg # of iterations =  5.0

     total cpu time spent up to now is        4.9 secs

     total energy              =     -34.17687832 Ry
     Harris-Foulkes estimate   =     -34.17688122 Ry
     estimated scf accuracy    <       0.00000015 Ry

     iteration #  6     ecut=    90.00 Ry     beta=0.70
     Davidson diagonalization with overlap
     ethr =  1.84E-09,  avg # of iterations =  2.0

     total cpu time spent up to now is        5.1 secs

     End of self-consistent calculation

          k = 0.0000 0.0000 0.0000 (115313 PWs)   bands (ev):

   -25.5543 -12.6570  -9.5649  -7.1658  -0.8944   0.4379   0.8280   1.1203

     the Fermi energy is    -5.2082 ev

!    total energy              =     -34.17687818 Ry
     Harris-Foulkes estimate   =     -34.17687840 Ry
     estimated scf accuracy    <          4.2E-09 Ry

     The total energy is the sum of the following terms:

     one-electron contribution =     -64.36395903 Ry
     hartree contribution      =      33.57650027 Ry
     xc contribution           =      -8.40824049 Ry
     ewald contribution        =       5.01882107 Ry
     smearing contrib. (-TS)   =       0.00000000 Ry

     convergence has been achieved in   6 iterations

     Forces acting on atoms (Ry/au):

     atom    1 type  1   force =     0.00694863   -0.09366718    0.00073745
     atom    2 type  1   force =     0.02657702    0.04360587   -0.00709768
     atom    3 type  2   force =    -0.03352564    0.05006131    0.00636023

     Total force =     0.123090     Total SCF correction =     0.000108

     number of scf cycles    =   2
     number of bfgs steps    =   1

     energy   old            =     -34.1699601187 Ry
     energy   new            =     -34.1768781802 Ry

     CASE: energy  _new < energy  _old

     new trust radius        =       0.0554787284 bohr
     new conv_thr            =       0.0000000069 Ry


ATOMIC_POSITIONS (angstrom)
H        0.291235746  -0.921597351  -0.001877475
H        0.812492121   0.445982654  -0.163410451
O       -0.026472867   0.001417697   0.059013926



     Writing output data file pwscf.save
     Check: negative starting charge=   -0.016047
     NEW-OLD atomic charge density approx. for the potential
     Check: negative starting charge=   -0.016038

     negative rho (up, down):  3.087E-03 0.000E+00

     total cpu time spent up to now is        5.8 secs

     per-process dynamical memory:    45.8 Mb

     Self-consistent Calculation

     iteration #  1     ecut=    90.00 Ry     beta=0.70
     Davidson diagonalization with overlap
     ethr =  1.00E-06,  avg # of iterations = 13.0

     negative rho (up, down):  8.008E-04 0.000E+00

     total cpu time spent up to now is        6.2 secs

     total energy              =     -34.17708881 Ry
     Harris-Foulkes estimate   =     -34.17592743 Ry
     estimated scf accuracy    <       0.00144931 Ry

     iteration #  2     ecut=    90.00 Ry     beta=0.70
     Davidson diagonalization with overlap
     ethr =  1.81E-05,  avg # of iterations =  5.0

     negative rho (up, down):  4.856E-04 0.000E+00

     total cpu time spent up to now is        6.5 secs

     total energy              =     -34.18146372 Ry
     Harris-Foulkes estimate   =     -34.18209772 Ry
     estimated scf accuracy    <       0.00130539 Ry

     iteration #  3     ecut=    90.00 Ry     beta=0.70
     Davidson diagonalization with overlap
     ethr =  1.63E-05,  avg # of iterations =  2.0

     negative rho (up, down):  9.718E-05 0.000E+00

     total cpu time spent up to now is        6.6 secs

     total energy              =     -34.18175432 Ry
     Harris-Foulkes estimate   =     -34.18175299 Ry
     estimated scf accuracy    <       0.00001703 Ry

     iteration #  4     ecut=    90.00 Ry     beta=0.70
     Davidson diagonalization with overlap
     ethr =  2.13E-07,  avg # of iterations =  5.0

     negative rho (up, down):  5.653E-06 0.000E+00

     total cpu time spent up to now is        7.0 secs

     total energy              =     -34.18175998 Ry
     Harris-Foulkes estimate   =     -34.18175896 Ry
     estimated scf accuracy    <       0.00000039 Ry

     iteration #  5     ecut=    90.00 Ry     beta=0.70
     Davidson diagonalization with overlap
     ethr =  4.88E-09,  avg # of iterations =  2.0

     negative rho (up, down):  1.285E-08 0.000E+00

     total cpu time spent up to now is        7.2 secs

     total energy              =     -34.18176006 Ry
     Harris-Foulkes estimate   =     -34.18176008 Ry
     estimated scf accuracy    <       0.00000002 Ry

     iteration #  6     ecut=    90.00 Ry     beta=0.70
     Davidson diagonalization with overlap
     ethr =  2.22E-10,  avg # of iterations =  2.0

     total cpu time spent up to now is        7.3 secs

     End of self-consistent calculation

          k = 0.0000 0.0000 0.0000 (115313 PWs)   bands (ev):

   -25.2512 -12.5115  -9.4652  -7.1135  -0.9512   0.4215   0.7764   1.1167

     the Fermi energy is    -5.1352 ev

!    total energy              =     -34.18176006 Ry
     Harris-Foulkes estimate   =     -34.18176007 Ry
     estimated scf accuracy    <          1.2E-09 Ry

     The total energy is the sum of the following terms:

     one-electron contribution =     -63.79354699 Ry
     hartree contribution      =      33.30634040 Ry
     xc contribution           =      -8.36387246 Ry
     ewald contribution        =       4.66931899 Ry
     smearing contrib. (-TS)   =       0.00000000 Ry

     convergence has been achieved in   6 iterations

     Forces acting on atoms (Ry/au):

     atom    1 type  1   force =    -0.01229179   -0.01707472    0.00406757
     atom    2 type  1   force =     0.00733088    0.02436243   -0.00176955
     atom    3 type  2   force =     0.00496090   -0.00728771   -0.00229801

     Total force =     0.034534     Total SCF correction =     0.000206

     number of scf cycles    =   3
     number of bfgs steps    =   2

     energy   old            =     -34.1768781801 Ry
     energy   new            =     -34.1817600606 Ry

     CASE: energy  _new < energy  _old

     new trust radius        =       0.0490337006 bohr
     new conv_thr            =       0.0000000024 Ry


ATOMIC_POSITIONS (angstrom)
H        0.277346535  -0.940203879   0.002486931
H        0.817764969   0.471349393  -0.164824408
O       -0.017856504  -0.005342514   0.056063477



     Writing output data file pwscf.save
     Check: negative starting charge=   -0.016038
     NEW-OLD atomic charge density approx. for the potential
     Check: negative starting charge=   -0.016010

     negative rho (up, down):  3.671E-03 0.000E+00

     total cpu time spent up to now is        7.9 secs

     per-process dynamical memory:    45.8 Mb

     Self-consistent Calculation

     iteration #  1     ecut=    90.00 Ry     beta=0.70
     Davidson diagonalization with overlap
     c_bands:  1 eigenvalues not converged
     ethr =  1.00E-06,  avg # of iterations = 20.0

     negative rho (up, down):  9.519E-04 0.000E+00

     total cpu time spent up to now is        8.3 secs

     total energy              =     -34.17904485 Ry
     Harris-Foulkes estimate   =     -34.17622505 Ry
     estimated scf accuracy    <       0.00022381 Ry

     iteration #  2     ecut=    90.00 Ry     beta=0.70
     Davidson diagonalization with overlap
     ethr =  2.80E-06,  avg # of iterations = 15.0

     negative rho (up, down):  4.413E-04 0.000E+00

     total cpu time spent up to now is        8.6 secs

     total energy              =     -34.18318082 Ry
     Harris-Foulkes estimate   =     -34.18318775 Ry
     estimated scf accuracy    <       0.00007423 Ry

     iteration #  3     ecut=    90.00 Ry     beta=0.70
     Davidson diagonalization with overlap
     c_bands:  1 eigenvalues not converged
     ethr =  9.28E-07,  avg # of iterations = 20.0

     negative rho (up, down):  3.848E-05 0.000E+00

     total cpu time spent up to now is        9.0 secs

     total energy              =     -34.18320701 Ry
     Harris-Foulkes estimate   =     -34.18320965 Ry
     estimated scf accuracy    <       0.00001998 Ry

     iteration #  4     ecut=    90.00 Ry     beta=0.70
     Davidson diagonalization with overlap
     c_bands:  1 eigenvalues not converged
     ethr =  2.50E-07,  avg # of iterations = 20.0

     negative rho (up, down):  5.336E-07 0.000E+00

     total cpu time spent up to now is        9.3 secs

     total energy              =     -34.18321021 Ry
     Harris-Foulkes estimate   =     -34.18321098 Ry
     estimated scf accuracy    <       0.00000013 Ry

     iteration #  5     ecut=    90.00 Ry     beta=0.70
     Davidson diagonalization with overlap
     ethr =  1.67E-09,  avg # of iterations =  2.0

     total cpu time spent up to now is        9.5 secs

     total energy              =     -34.18321014 Ry
     Harris-Foulkes estimate   =     -34.18321028 Ry
     estimated scf accuracy    <          7.4E-09 Ry

     iteration #  6     ecut=    90.00 Ry     beta=0.70
     Davidson diagonalization with overlap
     ethr =  9.29E-11,  avg # of iterations =  2.0

     total cpu time spent up to now is        9.6 secs

     End of self-consistent calculation

          k = 0.0000 0.0000 0.0000 (115313 PWs)   bands (ev):

   -25.1033 -12.6075  -9.2868  -7.0819  -0.9633   0.4196   0.7502   1.1174

     the Fermi energy is    -5.0977 ev

!    total energy              =     -34.18321013 Ry
     Harris-Foulkes estimate   =     -34.18321014 Ry
     estimated scf accuracy    <          3.1E-10 Ry

     The total energy is the sum of the following terms:

     one-electron contribution =     -63.59380511 Ry
     hartree contribution      =      33.21612337 Ry
     xc contribution           =      -8.34937285 Ry
     ewald contribution        =       4.54384446 Ry
     smearing contrib. (-TS)   =       0.00000000 Ry

     convergence has been achieved in   6 iterations

     Forces acting on atoms (Ry/au):

     atom    1 type  1   force =    -0.00547361   -0.00254495    0.00201258
     atom    2 type  1   force =    -0.01031100    0.00193708    0.00317009
     atom    3 type  2   force =     0.01578461    0.00060786   -0.00518266

     Total force =     0.020904     Total SCF correction =     0.000040

     number of scf cycles    =   4
     number of bfgs steps    =   3

     energy   old            =     -34.1817600606 Ry
     energy   new            =     -34.1832101303 Ry

     CASE: energy  _new < energy  _old

     new trust radius        =       0.0286549127 bohr
     new conv_thr            =       0.0000000015 Ry


ATOMIC_POSITIONS (angstrom)
H        0.268511857  -0.952150346   0.005513965
H        0.813194654   0.483544737  -0.163367582
O       -0.004451511  -0.005591391   0.051579617



     Writing output data file pwscf.save
     Check: negative starting charge=   -0.016010
     NEW-OLD atomic charge density approx. for the potential
     Check: negative starting charge=   -0.016008

     negative rho (up, down):  4.593E-03 0.000E+00

     total cpu time spent up to now is       10.3 secs

     per-process dynamical memory:    45.8 Mb

     Self-consistent Calculation

     iteration #  1     ecut=    90.00 Ry     beta=0.70
     Davidson diagonalization with overlap
     ethr =  1.00E-06,  avg # of iterations = 20.0

     negative rho (up, down):  1.195E-03 0.000E+00

     total cpu time spent up to now is       10.7 secs

     total energy              =     -34.17917313 Ry
     Harris-Foulkes estimate   =     -34.17503990 Ry
     estimated scf accuracy    <       0.00016318 Ry

     iteration #  2     ecut=    90.00 Ry     beta=0.70
     Davidson diagonalization with overlap
     ethr =  2.04E-06,  avg # of iterations = 16.0

     negative rho (up, down):  6.268E-04 0.000E+00

     total cpu time spent up to now is       11.1 secs

     total energy              =     -34.17931891 Ry
     Harris-Foulkes estimate   =     -34.17924708 Ry
     estimated scf accuracy    <       0.00008136 Ry

     iteration #  3     ecut=    90.00 Ry     beta=0.70
     Davidson diagonalization with overlap
     ethr =  1.02E-06,  avg # of iterations = 11.0

     negative rho (up, down):  8.558E-05 0.000E+00

     total cpu time spent up to now is       11.3 secs

     total energy              =     -34.18343156 Ry
     Harris-Foulkes estimate   =     -34.18342073 Ry
     estimated scf accuracy    <       0.00000845 Ry

     iteration #  4     ecut=    90.00 Ry     beta=0.70
     Davidson diagonalization with overlap
     ethr =  1.06E-07,  avg # of iterations = 13.0

     negative rho (up, down):  1.267E-06 0.000E+00

     total cpu time spent up to now is       11.6 secs

     total energy              =     -34.18343165 Ry
     Harris-Foulkes estimate   =     -34.18343367 Ry
     estimated scf accuracy    <       0.00000012 Ry

     iteration #  5     ecut=    90.00 Ry     beta=0.70
     Davidson diagonalization with overlap
     ethr =  1.49E-09,  avg # of iterations =  2.0

     total cpu time spent up to now is       11.8 secs

     total energy              =     -34.18343144 Ry
     Harris-Foulkes estimate   =     -34.18343173 Ry
     estimated scf accuracy    <          3.6E-09 Ry

     iteration #  6     ecut=    90.00 Ry     beta=0.70
     Davidson diagonalization with overlap
     ethr =  4.56E-11,  avg # of iterations =  2.0

     total cpu time spent up to now is       11.9 secs

     End of self-consistent calculation

          k = 0.0000 0.0000 0.0000 (115313 PWs)   bands (ev):

   -25.0879 -12.7632  -9.1579  -7.0742  -0.9486   0.4253   0.7503   1.1183

     the Fermi energy is    -5.0931 ev

!    total energy              =     -34.18343143 Ry
     Harris-Foulkes estimate   =     -34.18343145 Ry
     estimated scf accuracy    <          2.8E-10 Ry

     The total energy is the sum of the following terms:

     one-electron contribution =     -63.64717651 Ry
     hartree contribution      =      33.24568712 Ry
     xc contribution           =      -8.35425422 Ry
     ewald contribution        =       4.57231218 Ry
     smearing contrib. (-TS)   =       0.00000000 Ry

     convergence has been achieved in   6 iterations

     Forces acting on atoms (Ry/au):

     atom    1 type  1   force =    -0.00209281    0.01055578    0.00063503
     atom    2 type  1   force =     0.00687379    0.00347224   -0.00141495
     atom    3 type  2   force =    -0.00478098   -0.01402802    0.00077993

     Total force =     0.019944     Total SCF correction =     0.000014

     number of scf cycles    =   5
     number of bfgs steps    =   4

     energy   old            =     -34.1832101303 Ry
     energy   new            =     -34.1834314318 Ry

     CASE: energy  _new < energy  _old

     new trust radius        =       0.0070823638 bohr
     new conv_thr            =       0.0000000002 Ry


ATOMIC_POSITIONS (angstrom)
H        0.268740356  -0.949287078   0.005538101
H        0.815019324   0.483805115  -0.163662875
O       -0.006504680  -0.008715037   0.051850774



     Writing output data file pwscf.save
     Check: negative starting charge=   -0.016008
     NEW-OLD atomic charge density approx. for the potential
     Check: negative starting charge=   -0.016006

     negative rho (up, down):  1.086E-03 0.000E+00

     total cpu time spent up to now is       12.5 secs

     per-process dynamical memory:    45.8 Mb

     Self-consistent Calculation

     iteration #  1     ecut=    90.00 Ry     beta=0.70
     Davidson diagonalization with overlap
     ethr =  1.00E-06,  avg # of iterations =  7.0

     negative rho (up, down):  2.702E-04 0.000E+00

     total cpu time spent up to now is       12.8 secs

     total energy              =     -34.18351412 Ry
     Harris-Foulkes estimate   =     -34.18346274 Ry
     estimated scf accuracy    <       0.00001785 Ry

     iteration #  2     ecut=    90.00 Ry     beta=0.70
     Davidson diagonalization with overlap
     ethr =  2.23E-07,  avg # of iterations =  4.0

     negative rho (up, down):  8.197E-05 0.000E+00

     total cpu time spent up to now is       13.0 secs

     total energy              =     -34.18352091 Ry
     Harris-Foulkes estimate   =     -34.18351926 Ry
     estimated scf accuracy    <       0.00000105 Ry

     iteration #  3     ecut=    90.00 Ry     beta=0.70
     Davidson diagonalization with overlap
     ethr =  1.31E-08,  avg # of iterations =  3.0

     negative rho (up, down):  2.716E-06 0.000E+00

     total cpu time spent up to now is       13.2 secs

     total energy              =     -34.18352226 Ry
     Harris-Foulkes estimate   =     -34.18352121 Ry
     estimated scf accuracy    <       0.00000006 Ry

     iteration #  4     ecut=    90.00 Ry     beta=0.70
     Davidson diagonalization with overlap
     ethr =  7.83E-10,  avg # of iterations =  3.0

     negative rho (up, down):  8.748E-08 0.000E+00

     total cpu time spent up to now is       13.4 secs

     total energy              =     -34.18352232 Ry
     Harris-Foulkes estimate   =     -34.18352231 Ry
     estimated scf accuracy    <       0.00000002 Ry

     iteration #  5     ecut=    90.00 Ry     beta=0.70
     Davidson diagonalization with overlap
     ethr =  2.45E-10,  avg # of iterations =  2.0

     total cpu time spent up to now is       13.6 secs

     total energy              =     -34.18352237 Ry
     Harris-Foulkes estimate   =     -34.18352233 Ry
     estimated scf accuracy    <          8.6E-10 Ry

     iteration #  6     ecut=    90.00 Ry     beta=0.70
     Davidson diagonalization with overlap
     ethr =  1.08E-11,  avg # of iterations =  2.0

     total cpu time spent up to now is       13.7 secs

     End of self-consistent calculation

          k = 0.0000 0.0000 0.0000 (115313 PWs)   bands (ev):

   -25.0905 -12.7553  -9.1663  -7.0751  -0.9485   0.4253   0.7509   1.1181

     the Fermi energy is    -5.0939 ev

!    total energy              =     -34.18352236 Ry
     Harris-Foulkes estimate   =     -34.18352237 Ry
     estimated scf accuracy    <          1.2E-11 Ry

     The total energy is the sum of the following terms:

     one-electron contribution =     -63.64817651 Ry
     hartree contribution      =      33.24595234 Ry
     xc contribution           =      -8.35429533 Ry
     ewald contribution        =       4.57299714 Ry
     smearing contrib. (-TS)   =       0.00000000 Ry

     convergence has been achieved in   6 iterations

     Forces acting on atoms (Ry/au):

     atom    1 type  1   force =     0.00026368    0.00115319    0.00030135
     atom    2 type  1   force =    -0.00137076   -0.00078706    0.00078090
     atom    3 type  2   force =     0.00110708   -0.00036614   -0.00108226

     Total force =     0.002670     Total SCF correction =     0.000009

     number of scf cycles    =   6
     number of bfgs steps    =   5

     energy   old            =     -34.1834314318 Ry
     energy   new            =     -34.1835223640 Ry

     CASE: energy  _new < energy  _old

     new trust radius        =       0.0015877278 bohr
     new conv_thr            =            1.0E-10 Ry


ATOMIC_POSITIONS (angstrom)
H        0.269234893  -0.948610243   0.005595067
H        0.814630306   0.483165877  -0.163340888
O       -0.006610200  -0.008752634   0.051471821



     Writing output data file pwscf.save
     Check: negative starting charge=   -0.016006
     NEW-OLD atomic charge density approx. for the potential
     Check: negative starting charge=   -0.016007

     negative rho (up, down):  6.996E-05 0.000E+00

     total cpu time spent up to now is       14.5 secs

     per-process dynamical memory:    45.8 Mb

     Self-consistent Calculation

     iteration #  1     ecut=    90.00 Ry     beta=0.70
     Davidson diagonalization with overlap
     ethr =  1.00E-06,  avg # of iterations =  3.0

     Threshold (ethr) on eigenvalues was too large:
     Diagonalizing with lowered threshold

     Davidson diagonalization with overlap
     ethr =  9.56E-09,  avg # of iterations =  1.0

     negative rho (up, down):  1.104E-05 0.000E+00

     total cpu time spent up to now is       14.8 secs

     total energy              =     -34.18352440 Ry
     Harris-Foulkes estimate   =     -34.18352371 Ry
     estimated scf accuracy    <       0.00000085 Ry

     iteration #  2     ecut=    90.00 Ry     beta=0.70
     Davidson diagonalization with overlap
     ethr =  1.06E-08,  avg # of iterations =  2.0

     negative rho (up, down):  4.458E-06 0.000E+00

     total cpu time spent up to now is       15.0 secs

     total energy              =     -34.18352485 Ry
     Harris-Foulkes estimate   =     -34.18352488 Ry
     estimated scf accuracy    <       0.00000062 Ry

     iteration #  3     ecut=    90.00 Ry     beta=0.70
     Davidson diagonalization with overlap
     ethr =  7.74E-09,  avg # of iterations =  2.0

     negative rho (up, down):  4.507E-08 0.000E+00

     total cpu time spent up to now is       15.2 secs

     total energy              =     -34.18352524 Ry
     Harris-Foulkes estimate   =     -34.18352500 Ry
     estimated scf accuracy    <       0.00000002 Ry

     iteration #  4     ecut=    90.00 Ry     beta=0.70
     Davidson diagonalization with overlap
     ethr =  2.44E-10,  avg # of iterations =  2.0

     total cpu time spent up to now is       15.3 secs

     total energy              =     -34.18352522 Ry
     Harris-Foulkes estimate   =     -34.18352525 Ry
     estimated scf accuracy    <          2.5E-10 Ry

     iteration #  5     ecut=    90.00 Ry     beta=0.70
     Davidson diagonalization with overlap
     ethr =  3.15E-12,  avg # of iterations =  3.0

     total cpu time spent up to now is       15.5 secs

     End of self-consistent calculation

          k = 0.0000 0.0000 0.0000 (115313 PWs)   bands (ev):

   -25.0981 -12.7582  -9.1701  -7.0765  -0.9468   0.4258   0.7524   1.1181

     the Fermi energy is    -5.0958 ev

!    total energy              =     -34.18352524 Ry
     Harris-Foulkes estimate   =     -34.18352522 Ry
     estimated scf accuracy    <          1.9E-11 Ry

     The total energy is the sum of the following terms:

     one-electron contribution =     -63.66262240 Ry
     hartree contribution      =      33.25273632 Ry
     xc contribution           =      -8.35540518 Ry
     ewald contribution        =       4.58176601 Ry
     smearing contrib. (-TS)   =       0.00000000 Ry

     convergence has been achieved in   5 iterations

     Forces acting on atoms (Ry/au):

     atom    1 type  1   force =     0.00034407    0.00006061    0.00028943
     atom    2 type  1   force =    -0.00034304    0.00010681    0.00048544
     atom    3 type  2   force =    -0.00000103   -0.00016742   -0.00077486

     Total force =     0.001095     Total SCF correction =     0.000048

     bfgs converged in   7 scf cycles and   6 bfgs steps
     (criteria: energy <  1.0E-04, force <  1.0E-03)

     End of BFGS Geometry Optimization

     Final energy   =     -34.1835252441 Ry
Begin final coordinates

ATOMIC_POSITIONS (angstrom)
H        0.269234893  -0.948610243   0.005595067
H        0.814630306   0.483165877  -0.163340888
O       -0.006610200  -0.008752634   0.051471821
End final coordinates



     Writing output data file pwscf.save
 
     init_run     :      0.56s CPU      0.69s WALL (       1 calls)
     electrons    :     10.08s CPU     11.71s WALL (       7 calls)
     update_pot   :      1.49s CPU      1.92s WALL (       6 calls)
     forces       :      0.47s CPU      0.47s WALL (       7 calls)

     Called by init_run:
     wfcinit      :      0.03s CPU      0.04s WALL (       1 calls)
     potinit      :      0.11s CPU      0.12s WALL (       1 calls)

     Called by electrons:
     c_bands      :      4.98s CPU      5.17s WALL (      45 calls)
     sum_band     :      0.92s CPU      0.95s WALL (      45 calls)
     v_of_rho     :      2.59s CPU      2.77s WALL (      51 calls)
     mix_rho      :      0.96s CPU      1.74s WALL (      45 calls)

     Called by c_bands:
     init_us_2    :      0.02s CPU      0.03s WALL (      91 calls)
     cegterg      :      4.95s CPU      5.13s WALL (      45 calls)

     Called by sum_band:

     Called by *egterg:
     h_psi        :      4.22s CPU      4.34s WALL (     334 calls)
     g_psi        :      0.04s CPU      0.04s WALL (     288 calls)
     cdiaghg      :      0.08s CPU      0.08s WALL (     326 calls)

     Called by h_psi:
     h_psi:pot    :      4.18s CPU      4.29s WALL (     334 calls)
     h_psi:calbec :      0.06s CPU      0.06s WALL (     334 calls)
     vloc_psi     :      4.09s CPU      4.20s WALL (     334 calls)
     add_vuspsi   :      0.03s CPU      0.03s WALL (     334 calls)

     General routines
     calbec       :      0.06s CPU      0.06s WALL (     362 calls)
     fft          :      1.84s CPU      2.02s WALL (     576 calls)
     fftw         :      4.06s CPU      4.18s WALL (    3176 calls)
     davcio       :      0.11s CPU      0.77s WALL (     310 calls)
 
     Parallel routines
     fft_scatter  :      2.09s CPU      2.36s WALL (    3752 calls)
 
     PWSCF        :    13.14s CPU        15.90s WALL

 
   This run was terminated on:   2:38:11  28Jul2018            

=------------------------------------------------------------------------------=
   JOB DONE.
=------------------------------------------------------------------------------=
