
     Program PWSCF v.6.0 (svn rev. 13079) starts on 28Jul2018 at  2:43:21 

     This program is part of the open-source Quantum ESPRESSO suite
     for quantum simulation of materials; please cite
         "P. Giannozzi et al., J. Phys.:Condens. Matter 21 395502 (2009);
          URL http://www.quantum-espresso.org", 
     in publications or presentations arising from this work. More details at
     http://www.quantum-espresso.org/quote

     Parallel version (MPI), running on    28 processors
     R & G space division:  proc/nbgrp/npool/nimage =      28
     Reading input from ../QMCmins/relax-77.in

     Current dimensions of program PWSCF are:
     Max number of different atomic species (ntypx) = 10
     Max number of k-points (npk) =  40000
     Max angular momentum in pseudopotentials (lmaxx) =  3
     Message from routine iosys:
     pot_extrapolation='second-order' not available, using 'atomic'
     Message from routine iosys:
     wfc_extrapolation='second-order' not available, using 'atomic'

     Subspace diagonalization in iterative solution of the eigenvalue problem:
     a serial algorithm will be used

 
     Parallelization info
     --------------------
     sticks:   dense  smooth     PW     G-vecs:    dense   smooth      PW
     Min         408     408    102                32936    32936    4116
     Max         409     409    103                32943    32943    4121
     Sum       11449   11449   2869               922329   922329  115313
 


     bravais-lattice index     =            1
     lattice parameter (alat)  =      20.0000  a.u.
     unit-cell volume          =    8000.0000 (a.u.)^3
     number of atoms/cell      =            3
     number of atomic types    =            2
     number of electrons       =         8.00
     number of Kohn-Sham states=            8
     kinetic-energy cutoff     =      90.0000  Ry
     charge density cutoff     =     360.0000  Ry
     convergence threshold     =      1.0E-08
     mixing beta               =       0.7000
     number of iterations used =            8  plain     mixing
     Exchange-correlation      = BLYP ( 1  3  1  3 0 0)
     nstep                     =           50


     celldm(1)=  20.000000  celldm(2)=   0.000000  celldm(3)=   0.000000
     celldm(4)=   0.000000  celldm(5)=   0.000000  celldm(6)=   0.000000

     crystal axes: (cart. coord. in units of alat)
               a(1) = (   1.000000   0.000000   0.000000 )  
               a(2) = (   0.000000   1.000000   0.000000 )  
               a(3) = (   0.000000   0.000000   1.000000 )  

     reciprocal axes: (cart. coord. in units 2 pi/alat)
               b(1) = (  1.000000  0.000000  0.000000 )  
               b(2) = (  0.000000  1.000000  0.000000 )  
               b(3) = (  0.000000  0.000000  1.000000 )  


     PseudoPot. # 1 for  H read from file:
     ../H.blyp-hgh.UPF
     MD5 check sum: c576e69559cde411e611be972c763230
     Pseudo is Norm-conserving, Zval =  1.0
     Generated in analytical, separable form
     Using radial grid of  929 points,  0 beta functions with: 

     PseudoPot. # 2 for  O read from file:
     ../O.blyp-hgh.UPF
     MD5 check sum: d0b7156309aa9befef28faac7bc56342
     Pseudo is Norm-conserving, Zval =  6.0
     Generated in analytical, separable form
     Using radial grid of 1095 points,  1 beta functions with: 
                l(1) =   0

     atomic species   valence    mass     pseudopotential
        H              1.00     1.01000      H( 1.00)
        O              6.00    16.00000      O( 1.00)

     No symmetry found



   Cartesian axes

     site n.     atom                  positions (alat units)
         1           H   tau(   1) = (  -0.0699881  -0.0673909   0.0007188  )
         2           H   tau(   2) = (  -0.0369520   0.0794297  -0.0151878  )
         3           O   tau(   3) = (   0.0067506  -0.0007600   0.0064913  )

     number of k points=     1  Marzari-Vanderbilt smearing, width (Ry)=  0.0250
                       cart. coord. in units 2pi/alat
        k(    1) = (   0.0000000   0.0000000   0.0000000), wk =   2.0000000

     Dense  grid:   922329 G-vectors     FFT dimensions: ( 125, 125, 125)

     Estimated max dynamical RAM per process >      31.67Mb

     Estimated total allocated dynamical RAM >     886.64Mb

     Initial potential from superposition of free atoms
     Check: negative starting charge=   -0.015936

     starting charge    7.99998, renormalised to    8.00000

     negative rho (up, down):  1.594E-02 0.000E+00
     Starting wfc are    6 randomized atomic wfcs +    2 random wfc

     total cpu time spent up to now is        0.7 secs

     per-process dynamical memory:    33.5 Mb

     Self-consistent Calculation

     iteration #  1     ecut=    90.00 Ry     beta=0.70
     Davidson diagonalization with overlap
     ethr =  1.00E-02,  avg # of iterations =  7.0

     negative rho (up, down):  4.611E-03 0.000E+00

     total cpu time spent up to now is        0.9 secs

     total energy              =     -34.02683956 Ry
     Harris-Foulkes estimate   =     -34.24489643 Ry
     estimated scf accuracy    <       0.33220452 Ry

     iteration #  2     ecut=    90.00 Ry     beta=0.70
     Davidson diagonalization with overlap
     ethr =  4.15E-03,  avg # of iterations =  2.0

     negative rho (up, down):  2.809E-03 0.000E+00

     total cpu time spent up to now is        1.1 secs

     total energy              =     -34.06982904 Ry
     Harris-Foulkes estimate   =     -34.27378118 Ry
     estimated scf accuracy    <       0.45834351 Ry

     iteration #  3     ecut=    90.00 Ry     beta=0.70
     Davidson diagonalization with overlap
     ethr =  4.15E-03,  avg # of iterations =  2.0

     negative rho (up, down):  1.585E-04 0.000E+00

     total cpu time spent up to now is        1.3 secs

     total energy              =     -34.16848182 Ry
     Harris-Foulkes estimate   =     -34.16919159 Ry
     estimated scf accuracy    <       0.00592574 Ry

     iteration #  4     ecut=    90.00 Ry     beta=0.70
     Davidson diagonalization with overlap
     ethr =  7.41E-05,  avg # of iterations =  5.0

     negative rho (up, down):  2.216E-06 0.000E+00

     total cpu time spent up to now is        1.6 secs

     total energy              =     -34.17003640 Ry
     Harris-Foulkes estimate   =     -34.17015226 Ry
     estimated scf accuracy    <       0.00031082 Ry

     iteration #  5     ecut=    90.00 Ry     beta=0.70
     Davidson diagonalization with overlap
     ethr =  3.89E-06,  avg # of iterations =  9.0

     negative rho (up, down):  3.998E-06 0.000E+00

     total cpu time spent up to now is        1.8 secs

     total energy              =     -34.17005496 Ry
     Harris-Foulkes estimate   =     -34.17006085 Ry
     estimated scf accuracy    <       0.00002366 Ry

     iteration #  6     ecut=    90.00 Ry     beta=0.70
     Davidson diagonalization with overlap
     ethr =  2.96E-07,  avg # of iterations =  2.0

     negative rho (up, down):  2.187E-07 0.000E+00

     total cpu time spent up to now is        2.0 secs

     total energy              =     -34.17005748 Ry
     Harris-Foulkes estimate   =     -34.17005747 Ry
     estimated scf accuracy    <       0.00000049 Ry

     iteration #  7     ecut=    90.00 Ry     beta=0.70
     Davidson diagonalization with overlap
     ethr =  6.08E-09,  avg # of iterations =  2.0

     total cpu time spent up to now is        2.2 secs

     total energy              =     -34.17005721 Ry
     Harris-Foulkes estimate   =     -34.17005761 Ry
     estimated scf accuracy    <       0.00000003 Ry

     iteration #  8     ecut=    90.00 Ry     beta=0.70
     Davidson diagonalization with overlap
     ethr =  3.13E-10,  avg # of iterations =  2.0

     total cpu time spent up to now is        2.4 secs

     End of self-consistent calculation

          k = 0.0000 0.0000 0.0000 (115313 PWs)   bands (ev):

   -24.6186 -12.1781  -9.2014  -6.9952  -1.1597   0.3468   0.6347   1.1090

     the Fermi energy is    -4.9828 ev

!    total energy              =     -34.17005710 Ry
     Harris-Foulkes estimate   =     -34.17005721 Ry
     estimated scf accuracy    <          3.7E-09 Ry

     The total energy is the sum of the following terms:

     one-electron contribution =     -62.49092361 Ry
     hartree contribution      =      32.68966904 Ry
     xc contribution           =      -8.26580950 Ry
     ewald contribution        =       3.89700695 Ry
     smearing contrib. (-TS)   =       0.00000000 Ry

     convergence has been achieved in   8 iterations

     Forces acting on atoms (Ry/au):

     atom    1 type  1   force =     0.09786192    0.08443769    0.00625804
     atom    2 type  1   force =     0.00939101   -0.01600132    0.00330151
     atom    3 type  2   force =    -0.10725293   -0.06843636   -0.00955955

     Total force =     0.182699     Total SCF correction =     0.000108

     BFGS Geometry Optimization

     number of scf cycles    =   1
     number of bfgs steps    =   0

     energy   new            =     -34.1700571043 Ry

     new trust radius        =       0.1294057232 bohr
     new conv_thr            =       0.0000000100 Ry


ATOMIC_POSITIONS (angstrom)
H       -0.688935702  -0.668552501   0.010918611
H       -0.386113490   0.832180466  -0.158993917
O        0.014689192  -0.044257964   0.063642306



     Writing output data file pwscf.save
     Check: negative starting charge=   -0.015936
     NEW-OLD atomic charge density approx. for the potential
     Check: negative starting charge=   -0.015971

     negative rho (up, down):  2.227E-02 0.000E+00

     total cpu time spent up to now is        2.9 secs

     per-process dynamical memory:    45.8 Mb

     Self-consistent Calculation

     iteration #  1     ecut=    90.00 Ry     beta=0.70
     Davidson diagonalization with overlap
     c_bands:  2 eigenvalues not converged
     ethr =  1.00E-06,  avg # of iterations = 20.0

     negative rho (up, down):  5.876E-03 0.000E+00

     total cpu time spent up to now is        3.4 secs

     total energy              =     -34.16299263 Ry
     Harris-Foulkes estimate   =     -34.17297423 Ry
     estimated scf accuracy    <       0.01540815 Ry

     iteration #  2     ecut=    90.00 Ry     beta=0.70
     Davidson diagonalization with overlap
     ethr =  1.93E-04,  avg # of iterations =  3.0

     negative rho (up, down):  3.632E-03 0.000E+00

     total cpu time spent up to now is        3.8 secs

     total energy              =     -34.17017002 Ry
     Harris-Foulkes estimate   =     -34.17447080 Ry
     estimated scf accuracy    <       0.01591515 Ry

     iteration #  3     ecut=    90.00 Ry     beta=0.70
     Davidson diagonalization with overlap
     ethr =  1.93E-04,  avg # of iterations =  2.0

     negative rho (up, down):  8.878E-04 0.000E+00

     total cpu time spent up to now is        4.1 secs

     total energy              =     -34.17624242 Ry
     Harris-Foulkes estimate   =     -34.17343545 Ry
     estimated scf accuracy    <       0.00010741 Ry

     iteration #  4     ecut=    90.00 Ry     beta=0.70
     Davidson diagonalization with overlap
     c_bands:  1 eigenvalues not converged
     ethr =  1.34E-06,  avg # of iterations = 20.0

     negative rho (up, down):  1.169E-04 0.000E+00

     total cpu time spent up to now is        4.5 secs

     total energy              =     -34.18041794 Ry
     Harris-Foulkes estimate   =     -34.18038244 Ry
     estimated scf accuracy    <       0.00000410 Ry

     iteration #  5     ecut=    90.00 Ry     beta=0.70
     Davidson diagonalization with overlap
     c_bands:  1 eigenvalues not converged
     ethr =  5.13E-08,  avg # of iterations = 20.0

     negative rho (up, down):  1.397E-08 0.000E+00

     total cpu time spent up to now is        4.8 secs

     total energy              =     -34.18041657 Ry
     Harris-Foulkes estimate   =     -34.18041933 Ry
     estimated scf accuracy    <       0.00000020 Ry

     iteration #  6     ecut=    90.00 Ry     beta=0.70
     Davidson diagonalization with overlap
     ethr =  2.52E-09,  avg # of iterations =  4.0

     total cpu time spent up to now is        4.9 secs

     End of self-consistent calculation

          k = 0.0000 0.0000 0.0000 (115313 PWs)   bands (ev):

   -25.2374 -13.0020  -9.0856  -7.0976  -0.9059   0.4372   0.7870   1.1216

     the Fermi energy is    -5.1280 ev

!    total energy              =     -34.18041647 Ry
     Harris-Foulkes estimate   =     -34.18041666 Ry
     estimated scf accuracy    <          4.2E-09 Ry

     The total energy is the sum of the following terms:

     one-electron contribution =     -64.01288921 Ry
     hartree contribution      =      33.42294972 Ry
     xc contribution           =      -8.38382432 Ry
     ewald contribution        =       4.79334734 Ry
     smearing contrib. (-TS)   =       0.00000000 Ry

     convergence has been achieved in   6 iterations

     Forces acting on atoms (Ry/au):

     atom    1 type  1   force =    -0.06420405   -0.05017146   -0.00573109
     atom    2 type  1   force =     0.00305834   -0.01858099    0.00371474
     atom    3 type  2   force =     0.06114572    0.06875245    0.00201635

     Total force =     0.124541     Total SCF correction =     0.000184

     number of scf cycles    =   2
     number of bfgs steps    =   1

     energy   old            =     -34.1700571043 Ry
     energy   new            =     -34.1804164684 Ry

     CASE: energy  _new < energy  _old

     new trust radius        =       0.0537217556 bohr
     new conv_thr            =       0.0000000069 Ry


ATOMIC_POSITIONS (angstrom)
H       -0.708646495  -0.683877599   0.009134998
H       -0.385037558   0.826043901  -0.157766086
O        0.033324053  -0.022796302   0.064198088



     Writing output data file pwscf.save
     Check: negative starting charge=   -0.015971
     NEW-OLD atomic charge density approx. for the potential
     Check: negative starting charge=   -0.015965

     negative rho (up, down):  9.698E-03 0.000E+00

     total cpu time spent up to now is        5.5 secs

     per-process dynamical memory:    45.8 Mb

     Self-consistent Calculation

     iteration #  1     ecut=    90.00 Ry     beta=0.70
     Davidson diagonalization with overlap
     c_bands:  1 eigenvalues not converged
     ethr =  1.00E-06,  avg # of iterations = 20.0

     negative rho (up, down):  2.534E-03 0.000E+00

     total cpu time spent up to now is        6.2 secs

     total energy              =     -34.17699518 Ry
     Harris-Foulkes estimate   =     -34.16742029 Ry
     estimated scf accuracy    <       0.00169137 Ry

     iteration #  2     ecut=    90.00 Ry     beta=0.70
     Davidson diagonalization with overlap
     ethr =  2.11E-05,  avg # of iterations =  7.0

     negative rho (up, down):  1.392E-03 0.000E+00

     total cpu time spent up to now is        6.5 secs

     total energy              =     -34.17853191 Ry
     Harris-Foulkes estimate   =     -34.17780198 Ry
     estimated scf accuracy    <       0.00084917 Ry

     iteration #  3     ecut=    90.00 Ry     beta=0.70
     Davidson diagonalization with overlap
     ethr =  1.06E-05,  avg # of iterations = 17.0

     negative rho (up, down):  4.578E-04 0.000E+00

     total cpu time spent up to now is        6.8 secs

     total energy              =     -34.17894285 Ry
     Harris-Foulkes estimate   =     -34.17878121 Ry
     estimated scf accuracy    <       0.00006988 Ry

     iteration #  4     ecut=    90.00 Ry     beta=0.70
     Davidson diagonalization with overlap
     ethr =  8.74E-07,  avg # of iterations = 14.0

     negative rho (up, down):  1.685E-05 0.000E+00

     total cpu time spent up to now is        7.0 secs

     total energy              =     -34.18304290 Ry
     Harris-Foulkes estimate   =     -34.18303561 Ry
     estimated scf accuracy    <       0.00000115 Ry

     iteration #  5     ecut=    90.00 Ry     beta=0.70
     Davidson diagonalization with overlap
     ethr =  1.44E-08,  avg # of iterations =  5.0

     negative rho (up, down):  3.842E-08 0.000E+00

     total cpu time spent up to now is        7.3 secs

     total energy              =     -34.18304361 Ry
     Harris-Foulkes estimate   =     -34.18304342 Ry
     estimated scf accuracy    <       0.00000004 Ry

     iteration #  6     ecut=    90.00 Ry     beta=0.70
     Davidson diagonalization with overlap
     ethr =  4.40E-10,  avg # of iterations =  2.0

     total cpu time spent up to now is        7.4 secs

     End of self-consistent calculation

          k = 0.0000 0.0000 0.0000 (115313 PWs)   bands (ev):

   -25.0584 -12.7647  -9.1308  -7.0690  -0.9563   0.4224   0.7524   1.1498

     the Fermi energy is    -5.0621 ev

!    total energy              =     -34.18304363 Ry
     Harris-Foulkes estimate   =     -34.18304362 Ry
     estimated scf accuracy    <          2.0E-09 Ry

     The total energy is the sum of the following terms:

     one-electron contribution =     -63.59629865 Ry
     hartree contribution      =      33.22240387 Ry
     xc contribution           =      -8.35065806 Ry
     ewald contribution        =       4.54150921 Ry
     smearing contrib. (-TS)   =       0.00000000 Ry

     convergence has been achieved in   6 iterations

     Forces acting on atoms (Ry/au):

     atom    1 type  1   force =     0.01814414    0.02050942    0.00113963
     atom    2 type  1   force =    -0.00993226    0.01409709   -0.00384503
     atom    3 type  2   force =    -0.00821189   -0.03460651    0.00270540

     Total force =     0.048329     Total SCF correction =     0.000136

     number of scf cycles    =   3
     number of bfgs steps    =   2

     energy   old            =     -34.1804164684 Ry
     energy   new            =     -34.1830436327 Ry

     CASE: energy  _new < energy  _old

     new trust radius        =       0.0177778747 bohr
     new conv_thr            =       0.0000000026 Ry


ATOMIC_POSITIONS (angstrom)
H       -0.705789333  -0.679220065   0.009219892
H       -0.388832950   0.830664314  -0.159093247
O        0.034262283  -0.032074249   0.065440355



     Writing output data file pwscf.save
     Check: negative starting charge=   -0.015965
     NEW-OLD atomic charge density approx. for the potential
     Check: negative starting charge=   -0.015963

     negative rho (up, down):  2.953E-03 0.000E+00

     total cpu time spent up to now is        8.0 secs

     per-process dynamical memory:    45.8 Mb

     Self-consistent Calculation

     iteration #  1     ecut=    90.00 Ry     beta=0.70
     Davidson diagonalization with overlap
     ethr =  1.00E-06,  avg # of iterations = 14.0

     negative rho (up, down):  7.613E-04 0.000E+00

     total cpu time spent up to now is        8.3 secs

     total energy              =     -34.17937918 Ry
     Harris-Foulkes estimate   =     -34.17753620 Ry
     estimated scf accuracy    <       0.00012141 Ry

     iteration #  2     ecut=    90.00 Ry     beta=0.70
     Davidson diagonalization with overlap
     ethr =  1.52E-06,  avg # of iterations = 14.0

     negative rho (up, down):  3.083E-04 0.000E+00

     total cpu time spent up to now is        8.6 secs

     total energy              =     -34.18350521 Ry
     Harris-Foulkes estimate   =     -34.18349719 Ry
     estimated scf accuracy    <       0.00001878 Ry

     iteration #  3     ecut=    90.00 Ry     beta=0.70
     Davidson diagonalization with overlap
     ethr =  2.35E-07,  avg # of iterations =  4.0

     negative rho (up, down):  1.135E-04 0.000E+00

     total cpu time spent up to now is        8.8 secs

     total energy              =     -34.18351299 Ry
     Harris-Foulkes estimate   =     -34.18351249 Ry
     estimated scf accuracy    <       0.00000478 Ry

     iteration #  4     ecut=    90.00 Ry     beta=0.70
     Davidson diagonalization with overlap
     ethr =  5.97E-08,  avg # of iterations =  3.0

     negative rho (up, down):  1.250E-06 0.000E+00

     total cpu time spent up to now is        9.0 secs

     total energy              =     -34.18351604 Ry
     Harris-Foulkes estimate   =     -34.18351427 Ry
     estimated scf accuracy    <       0.00000024 Ry

     iteration #  5     ecut=    90.00 Ry     beta=0.70
     Davidson diagonalization with overlap
     ethr =  3.04E-09,  avg # of iterations =  8.0

     total cpu time spent up to now is        9.2 secs

     End of self-consistent calculation

          k = 0.0000 0.0000 0.0000 (115313 PWs)   bands (ev):

   -25.0402 -12.7255  -9.1485  -7.0671  -0.9617   0.4212   0.7482   1.1494

     the Fermi energy is    -5.0579 ev

!    total energy              =     -34.18351633 Ry
     Harris-Foulkes estimate   =     -34.18351614 Ry
     estimated scf accuracy    <          2.6E-09 Ry

     The total energy is the sum of the following terms:

     one-electron contribution =     -63.54870884 Ry
     hartree contribution      =      33.19903869 Ry
     xc contribution           =      -8.34679787 Ry
     ewald contribution        =       4.51295168 Ry
     smearing contrib. (-TS)   =       0.00000000 Ry

     convergence has been achieved in   5 iterations

     Forces acting on atoms (Ry/au):

     atom    1 type  1   force =     0.00421606    0.00621897    0.00026773
     atom    2 type  1   force =     0.00320731   -0.01047592    0.00267183
     atom    3 type  2   force =    -0.00742337    0.00425695   -0.00293956

     Total force =     0.016296     Total SCF correction =     0.000649

     number of scf cycles    =   4
     number of bfgs steps    =   3

     energy   old            =     -34.1830436327 Ry
     energy   new            =     -34.1835163341 Ry

     CASE: energy  _new < energy  _old

     new trust radius        =       0.0087495025 bohr
     new conv_thr            =       0.0000000005 Ry


ATOMIC_POSITIONS (angstrom)
H       -0.703377070  -0.675534473   0.009344805
H       -0.387868161   0.826267945  -0.158007720
O        0.030885231  -0.031363472   0.064229915



     Writing output data file pwscf.save
     Check: negative starting charge=   -0.015963
     NEW-OLD atomic charge density approx. for the potential
     Check: negative starting charge=   -0.015963

     negative rho (up, down):  1.043E-03 0.000E+00

     total cpu time spent up to now is        9.9 secs

     per-process dynamical memory:    45.8 Mb

     Self-consistent Calculation

     iteration #  1     ecut=    90.00 Ry     beta=0.70
     Davidson diagonalization with overlap
     ethr =  1.00E-06,  avg # of iterations =  5.0

     negative rho (up, down):  2.580E-04 0.000E+00

     total cpu time spent up to now is       10.1 secs

     total energy              =     -34.18353632 Ry
     Harris-Foulkes estimate   =     -34.18355211 Ry
     estimated scf accuracy    <       0.00010204 Ry

     iteration #  2     ecut=    90.00 Ry     beta=0.70
     Davidson diagonalization with overlap
     ethr =  1.28E-06,  avg # of iterations =  4.0

     negative rho (up, down):  1.539E-04 0.000E+00

     total cpu time spent up to now is       10.3 secs

     total energy              =     -34.18356253 Ry
     Harris-Foulkes estimate   =     -34.18361073 Ry
     estimated scf accuracy    <       0.00010817 Ry

     iteration #  3     ecut=    90.00 Ry     beta=0.70
     Davidson diagonalization with overlap
     ethr =  1.28E-06,  avg # of iterations =  2.0

     negative rho (up, down):  1.876E-05 0.000E+00

     total cpu time spent up to now is       10.5 secs

     total energy              =     -34.18358348 Ry
     Harris-Foulkes estimate   =     -34.18358476 Ry
     estimated scf accuracy    <       0.00000054 Ry

     iteration #  4     ecut=    90.00 Ry     beta=0.70
     Davidson diagonalization with overlap
     ethr =  6.71E-09,  avg # of iterations =  3.0

     negative rho (up, down):  9.255E-07 0.000E+00

     total cpu time spent up to now is       10.7 secs

     total energy              =     -34.18358354 Ry
     Harris-Foulkes estimate   =     -34.18358379 Ry
     estimated scf accuracy    <       0.00000002 Ry

     iteration #  5     ecut=    90.00 Ry     beta=0.70
     Davidson diagonalization with overlap
     ethr =  2.58E-10,  avg # of iterations =  2.0

     total cpu time spent up to now is       10.9 secs

     total energy              =     -34.18358346 Ry
     Harris-Foulkes estimate   =     -34.18358355 Ry
     estimated scf accuracy    <          9.7E-10 Ry

     iteration #  6     ecut=    90.00 Ry     beta=0.70
     Davidson diagonalization with overlap
     ethr =  1.21E-11,  avg # of iterations =  2.0

     total cpu time spent up to now is       11.0 secs

     End of self-consistent calculation

          k = 0.0000 0.0000 0.0000 (115313 PWs)   bands (ev):

   -25.1077 -12.7957  -9.1490  -7.0787  -0.9417   0.4278   0.7624   1.1511

     the Fermi energy is    -5.0734 ev

!    total energy              =     -34.18358346 Ry
     Harris-Foulkes estimate   =     -34.18358346 Ry
     estimated scf accuracy    <          3.7E-11 Ry

     The total energy is the sum of the following terms:

     one-electron contribution =     -63.69936971 Ry
     hartree contribution      =      33.27105027 Ry
     xc contribution           =      -8.35855083 Ry
     ewald contribution        =       4.60328681 Ry
     smearing contrib. (-TS)   =       0.00000000 Ry

     convergence has been achieved in   6 iterations

     Forces acting on atoms (Ry/au):

     atom    1 type  1   force =    -0.00456474   -0.00134407   -0.00036414
     atom    2 type  1   force =    -0.00207696    0.00080620   -0.00016033
     atom    3 type  2   force =     0.00664171    0.00053787    0.00052447

     Total force =     0.008511     Total SCF correction =     0.000002

     number of scf cycles    =   5
     number of bfgs steps    =   4

     energy   old            =     -34.1835163341 Ry
     energy   new            =     -34.1835834584 Ry

     CASE: energy  _new < energy  _old

     new trust radius        =       0.0037219090 bohr
     new conv_thr            =            1.0E-10 Ry


ATOMIC_POSITIONS (angstrom)
H       -0.704655005  -0.675618244   0.009246812
H       -0.388557599   0.826347297  -0.158002189
O        0.032852604  -0.031359052   0.064322377



     Writing output data file pwscf.save
     Check: negative starting charge=   -0.015963
     NEW-OLD atomic charge density approx. for the potential
     Check: negative starting charge=   -0.015964

     negative rho (up, down):  5.075E-04 0.000E+00

     total cpu time spent up to now is       11.6 secs

     per-process dynamical memory:    45.8 Mb

     Self-consistent Calculation

     iteration #  1     ecut=    90.00 Ry     beta=0.70
     Davidson diagonalization with overlap
     ethr =  1.00E-06,  avg # of iterations =  3.0

     negative rho (up, down):  1.190E-04 0.000E+00

     total cpu time spent up to now is       11.9 secs

     total energy              =     -34.18359973 Ry
     Harris-Foulkes estimate   =     -34.18360235 Ry
     estimated scf accuracy    <       0.00001058 Ry

     iteration #  2     ecut=    90.00 Ry     beta=0.70
     Davidson diagonalization with overlap
     ethr =  1.32E-07,  avg # of iterations =  3.0

     negative rho (up, down):  6.910E-05 0.000E+00

     total cpu time spent up to now is       12.1 secs

     total energy              =     -34.18360303 Ry
     Harris-Foulkes estimate   =     -34.18360780 Ry
     estimated scf accuracy    <       0.00001164 Ry

     iteration #  3     ecut=    90.00 Ry     beta=0.70
     Davidson diagonalization with overlap
     ethr =  1.32E-07,  avg # of iterations =  2.0

     negative rho (up, down):  4.854E-06 0.000E+00

     total cpu time spent up to now is       12.2 secs

     total energy              =     -34.18360687 Ry
     Harris-Foulkes estimate   =     -34.18360539 Ry
     estimated scf accuracy    <       0.00000006 Ry

     iteration #  4     ecut=    90.00 Ry     beta=0.70
     Davidson diagonalization with overlap
     ethr =  7.12E-10,  avg # of iterations =  2.0

     negative rho (up, down):  1.798E-07 0.000E+00

     total cpu time spent up to now is       12.4 secs

     total energy              =     -34.18360716 Ry
     Harris-Foulkes estimate   =     -34.18360693 Ry
     estimated scf accuracy    <          3.5E-09 Ry

     iteration #  5     ecut=    90.00 Ry     beta=0.70
     Davidson diagonalization with overlap
     ethr =  4.42E-11,  avg # of iterations =  2.0

     total cpu time spent up to now is       12.6 secs

     total energy              =     -34.18360721 Ry
     Harris-Foulkes estimate   =     -34.18360716 Ry
     estimated scf accuracy    <          1.7E-10 Ry

     iteration #  6     ecut=    90.00 Ry     beta=0.70
     Davidson diagonalization with overlap
     ethr =  2.06E-12,  avg # of iterations =  2.0

     total cpu time spent up to now is       12.8 secs

     End of self-consistent calculation

          k = 0.0000 0.0000 0.0000 (115313 PWs)   bands (ev):

   -25.0920 -12.7666  -9.1586  -7.0764  -0.9476   0.4258   0.7590   1.1508

     the Fermi energy is    -5.0698 ev

!    total energy              =     -34.18360721 Ry
     Harris-Foulkes estimate   =     -34.18360721 Ry
     estimated scf accuracy    <          4.3E-12 Ry

     The total energy is the sum of the following terms:

     one-electron contribution =     -63.65781106 Ry
     hartree contribution      =      33.25087955 Ry
     xc contribution           =      -8.35525742 Ry
     ewald contribution        =       4.57858172 Ry
     smearing contrib. (-TS)   =       0.00000000 Ry

     convergence has been achieved in   6 iterations

     Forces acting on atoms (Ry/au):

     atom    1 type  1   force =    -0.00079723    0.00122122    0.00002524
     atom    2 type  1   force =    -0.00070664   -0.00074733    0.00036188
     atom    3 type  2   force =     0.00150387   -0.00047389   -0.00038713

     Total force =     0.002440     Total SCF correction =     0.000005

     number of scf cycles    =   6
     number of bfgs steps    =   5

     energy   old            =     -34.1835834584 Ry
     energy   new            =     -34.1836072109 Ry

     CASE: energy  _new < energy  _old

     new trust radius        =       0.0023403489 bohr
     new conv_thr            =            1.0E-10 Ry


ATOMIC_POSITIONS (angstrom)
H       -0.705248724  -0.674551935   0.009254499
H       -0.389116736   0.825608258  -0.157697468
O        0.034005460  -0.031686323   0.064009969



     Writing output data file pwscf.save
     Check: negative starting charge=   -0.015964
     NEW-OLD atomic charge density approx. for the potential
     Check: negative starting charge=   -0.015965

     negative rho (up, down):  2.987E-04 0.000E+00

     total cpu time spent up to now is       13.3 secs

     per-process dynamical memory:    45.8 Mb

     Self-consistent Calculation

     iteration #  1     ecut=    90.00 Ry     beta=0.70
     Davidson diagonalization with overlap
     ethr =  1.00E-06,  avg # of iterations =  3.0

     Threshold (ethr) on eigenvalues was too large:
     Diagonalizing with lowered threshold

     Davidson diagonalization with overlap
     ethr =  1.73E-08,  avg # of iterations =  2.0

     negative rho (up, down):  6.550E-05 0.000E+00

     total cpu time spent up to now is       13.7 secs

     total energy              =     -34.18361187 Ry
     Harris-Foulkes estimate   =     -34.18360935 Ry
     estimated scf accuracy    <       0.00000113 Ry

     iteration #  2     ecut=    90.00 Ry     beta=0.70
     Davidson diagonalization with overlap
     ethr =  1.41E-08,  avg # of iterations =  3.0

     negative rho (up, down):  2.943E-05 0.000E+00

     total cpu time spent up to now is       13.9 secs

     total energy              =     -34.18361277 Ry
     Harris-Foulkes estimate   =     -34.18361238 Ry
     estimated scf accuracy    <       0.00000060 Ry

     iteration #  3     ecut=    90.00 Ry     beta=0.70
     Davidson diagonalization with overlap
     ethr =  7.51E-09,  avg # of iterations =  2.0

     negative rho (up, down):  4.989E-07 0.000E+00

     total cpu time spent up to now is       14.1 secs

     total energy              =     -34.18361385 Ry
     Harris-Foulkes estimate   =     -34.18361296 Ry
     estimated scf accuracy    <       0.00000006 Ry

     iteration #  4     ecut=    90.00 Ry     beta=0.70
     Davidson diagonalization with overlap
     ethr =  7.77E-10,  avg # of iterations =  2.0

     total cpu time spent up to now is       14.3 secs

     total energy              =     -34.18361393 Ry
     Harris-Foulkes estimate   =     -34.18361388 Ry
     estimated scf accuracy    <          7.4E-10 Ry

     iteration #  5     ecut=    90.00 Ry     beta=0.70
     Davidson diagonalization with overlap
     ethr =  9.26E-12,  avg # of iterations =  3.0

     total cpu time spent up to now is       14.7 secs

     total energy              =     -34.18361396 Ry
     Harris-Foulkes estimate   =     -34.18361393 Ry
     estimated scf accuracy    <          2.0E-10 Ry

     iteration #  6     ecut=    90.00 Ry     beta=0.70
     Davidson diagonalization with overlap
     ethr =  2.47E-12,  avg # of iterations =  2.0

     total cpu time spent up to now is       14.9 secs

     End of self-consistent calculation

          k = 0.0000 0.0000 0.0000 (115313 PWs)   bands (ev):

   -25.0924 -12.7536  -9.1687  -7.0769  -0.9490   0.4252   0.7588   1.1509

     the Fermi energy is    -5.0698 ev

!    total energy              =     -34.18361397 Ry
     Harris-Foulkes estimate   =     -34.18361396 Ry
     estimated scf accuracy    <          6.4E-12 Ry

     The total energy is the sum of the following terms:

     one-electron contribution =     -63.65188687 Ry
     hartree contribution      =      33.24773214 Ry
     xc contribution           =      -8.35474709 Ry
     ewald contribution        =       4.57528785 Ry
     smearing contrib. (-TS)   =       0.00000000 Ry

     convergence has been achieved in   6 iterations

     Forces acting on atoms (Ry/au):

     atom    1 type  1   force =    -0.00002125    0.00108438    0.00020103
     atom    2 type  1   force =    -0.00005880   -0.00068619    0.00047777
     atom    3 type  2   force =     0.00008005   -0.00039819   -0.00067880

     Total force =     0.001595     Total SCF correction =     0.000004

     number of scf cycles    =   7
     number of bfgs steps    =   6

     energy   old            =     -34.1836072109 Ry
     energy   new            =     -34.1836139673 Ry

     CASE: energy  _new < energy  _old

     new trust radius        =       0.0031239835 bohr
     new conv_thr            =            1.0E-10 Ry


ATOMIC_POSITIONS (angstrom)
H       -0.705847242  -0.673020008   0.009421381
H       -0.389593975   0.824571142  -0.157091216
O        0.035081216  -0.032181135   0.063236835



     Writing output data file pwscf.save
     Check: negative starting charge=   -0.015965
     NEW-OLD atomic charge density approx. for the potential
     Check: negative starting charge=   -0.015965

     negative rho (up, down):  3.533E-04 0.000E+00

     total cpu time spent up to now is       15.4 secs

     per-process dynamical memory:    45.8 Mb

     Self-consistent Calculation

     iteration #  1     ecut=    90.00 Ry     beta=0.70
     Davidson diagonalization with overlap
     ethr =  1.00E-06,  avg # of iterations =  3.0

     Threshold (ethr) on eigenvalues was too large:
     Diagonalizing with lowered threshold

     Davidson diagonalization with overlap
     ethr =  1.52E-08,  avg # of iterations =  2.0

     negative rho (up, down):  7.896E-05 0.000E+00

     total cpu time spent up to now is       15.7 secs

     total energy              =     -34.18361571 Ry
     Harris-Foulkes estimate   =     -34.18361436 Ry
     estimated scf accuracy    <       0.00000120 Ry

     iteration #  2     ecut=    90.00 Ry     beta=0.70
     Davidson diagonalization with overlap
     ethr =  1.50E-08,  avg # of iterations =  2.0

     negative rho (up, down):  3.082E-06 0.000E+00

     total cpu time spent up to now is       15.9 secs

     total energy              =     -34.18361766 Ry
     Harris-Foulkes estimate   =     -34.18361593 Ry
     estimated scf accuracy    <       0.00000008 Ry

     iteration #  3     ecut=    90.00 Ry     beta=0.70
     Davidson diagonalization with overlap
     ethr =  9.76E-10,  avg # of iterations =  3.0

     negative rho (up, down):  3.189E-07 0.000E+00

     total cpu time spent up to now is       16.1 secs

     total energy              =     -34.18361785 Ry
     Harris-Foulkes estimate   =     -34.18361771 Ry
     estimated scf accuracy    <       0.00000001 Ry

     iteration #  4     ecut=    90.00 Ry     beta=0.70
     Davidson diagonalization with overlap
     ethr =  1.75E-10,  avg # of iterations =  2.0

     total cpu time spent up to now is       16.3 secs

     total energy              =     -34.18361790 Ry
     Harris-Foulkes estimate   =     -34.18361786 Ry
     estimated scf accuracy    <          2.0E-09 Ry

     iteration #  5     ecut=    90.00 Ry     beta=0.70
     Davidson diagonalization with overlap
     ethr =  2.48E-11,  avg # of iterations =  2.0

     total cpu time spent up to now is       16.5 secs

     End of self-consistent calculation

          k = 0.0000 0.0000 0.0000 (115313 PWs)   bands (ev):

   -25.0975 -12.7441  -9.1798  -7.0782  -0.9491   0.4251   0.7595   1.1510

     the Fermi energy is    -5.0710 ev

!    total energy              =     -34.18361792 Ry
     Harris-Foulkes estimate   =     -34.18361791 Ry
     estimated scf accuracy    <          1.6E-11 Ry

     The total energy is the sum of the following terms:

     one-electron contribution =     -63.65573458 Ry
     hartree contribution      =      33.24921092 Ry
     xc contribution           =      -8.35499205 Ry
     ewald contribution        =       4.57789779 Ry
     smearing contrib. (-TS)   =       0.00000000 Ry

     convergence has been achieved in   5 iterations

     Forces acting on atoms (Ry/au):

     atom    1 type  1   force =     0.00009192    0.00026402    0.00034188
     atom    2 type  1   force =     0.00037293   -0.00001636    0.00045070
     atom    3 type  2   force =    -0.00046485   -0.00024766   -0.00079258

     Total force =     0.001201     Total SCF correction =     0.000015

     bfgs converged in   8 scf cycles and   7 bfgs steps
     (criteria: energy <  1.0E-04, force <  1.0E-03)

     End of BFGS Geometry Optimization

     Final energy   =     -34.1836179238 Ry
Begin final coordinates

ATOMIC_POSITIONS (angstrom)
H       -0.705847242  -0.673020008   0.009421381
H       -0.389593975   0.824571142  -0.157091216
O        0.035081216  -0.032181135   0.063236835
End final coordinates



     Writing output data file pwscf.save
 
     init_run     :      0.52s CPU      0.55s WALL (       1 calls)
     electrons    :     10.88s CPU     12.90s WALL (       8 calls)
     update_pot   :      1.70s CPU      2.00s WALL (       7 calls)
     forces       :      0.54s CPU      0.55s WALL (       8 calls)

     Called by init_run:
     wfcinit      :      0.03s CPU      0.04s WALL (       1 calls)
     potinit      :      0.11s CPU      0.11s WALL (       1 calls)

     Called by electrons:
     c_bands      :      5.12s CPU      5.36s WALL (      50 calls)
     sum_band     :      1.01s CPU      1.04s WALL (      50 calls)
     v_of_rho     :      2.92s CPU      3.04s WALL (      56 calls)
     mix_rho      :      1.10s CPU      2.07s WALL (      50 calls)

     Called by c_bands:
     init_us_2    :      0.03s CPU      0.03s WALL (     101 calls)
     cegterg      :      5.09s CPU      5.31s WALL (      50 calls)

     Called by sum_band:

     Called by *egterg:
     h_psi        :      4.39s CPU      4.56s WALL (     322 calls)
     g_psi        :      0.04s CPU      0.04s WALL (     271 calls)
     cdiaghg      :      0.08s CPU      0.08s WALL (     312 calls)

     Called by h_psi:
     h_psi:pot    :      4.35s CPU      4.52s WALL (     322 calls)
     h_psi:calbec :      0.07s CPU      0.21s WALL (     322 calls)
     vloc_psi     :      4.24s CPU      4.28s WALL (     322 calls)
     add_vuspsi   :      0.03s CPU      0.03s WALL (     322 calls)

     General routines
     calbec       :      0.07s CPU      0.21s WALL (     354 calls)
     fft          :      2.06s CPU      2.19s WALL (     635 calls)
     fftw         :      4.24s CPU      4.28s WALL (    3324 calls)
     davcio       :      0.13s CPU      0.79s WALL (     319 calls)
 
     Parallel routines
     fft_scatter  :      2.28s CPU      2.42s WALL (    3959 calls)
 
     PWSCF        :    14.14s CPU        16.88s WALL

 
   This run was terminated on:   2:43:38  28Jul2018            

=------------------------------------------------------------------------------=
   JOB DONE.
=------------------------------------------------------------------------------=
