
     Program PWSCF v.6.0 (svn rev. 13079) starts on 28Jul2018 at  2:30:40 

     This program is part of the open-source Quantum ESPRESSO suite
     for quantum simulation of materials; please cite
         "P. Giannozzi et al., J. Phys.:Condens. Matter 21 395502 (2009);
          URL http://www.quantum-espresso.org", 
     in publications or presentations arising from this work. More details at
     http://www.quantum-espresso.org/quote

     Parallel version (MPI), running on    28 processors
     R & G space division:  proc/nbgrp/npool/nimage =      28
     Reading input from ../QMCmins/relax-46.in

     Current dimensions of program PWSCF are:
     Max number of different atomic species (ntypx) = 10
     Max number of k-points (npk) =  40000
     Max angular momentum in pseudopotentials (lmaxx) =  3
     Message from routine iosys:
     pot_extrapolation='second-order' not available, using 'atomic'
     Message from routine iosys:
     wfc_extrapolation='second-order' not available, using 'atomic'

     Subspace diagonalization in iterative solution of the eigenvalue problem:
     a serial algorithm will be used

 
     Parallelization info
     --------------------
     sticks:   dense  smooth     PW     G-vecs:    dense   smooth      PW
     Min         408     408    102                32936    32936    4116
     Max         409     409    103                32943    32943    4121
     Sum       11449   11449   2869               922329   922329  115313
 


     bravais-lattice index     =            1
     lattice parameter (alat)  =      20.0000  a.u.
     unit-cell volume          =    8000.0000 (a.u.)^3
     number of atoms/cell      =            3
     number of atomic types    =            2
     number of electrons       =         8.00
     number of Kohn-Sham states=            8
     kinetic-energy cutoff     =      90.0000  Ry
     charge density cutoff     =     360.0000  Ry
     convergence threshold     =      1.0E-08
     mixing beta               =       0.7000
     number of iterations used =            8  plain     mixing
     Exchange-correlation      = BLYP ( 1  3  1  3 0 0)
     nstep                     =           50


     celldm(1)=  20.000000  celldm(2)=   0.000000  celldm(3)=   0.000000
     celldm(4)=   0.000000  celldm(5)=   0.000000  celldm(6)=   0.000000

     crystal axes: (cart. coord. in units of alat)
               a(1) = (   1.000000   0.000000   0.000000 )  
               a(2) = (   0.000000   1.000000   0.000000 )  
               a(3) = (   0.000000   0.000000   1.000000 )  

     reciprocal axes: (cart. coord. in units 2 pi/alat)
               b(1) = (  1.000000  0.000000  0.000000 )  
               b(2) = (  0.000000  1.000000  0.000000 )  
               b(3) = (  0.000000  0.000000  1.000000 )  


     PseudoPot. # 1 for  H read from file:
     ../H.blyp-hgh.UPF
     MD5 check sum: c576e69559cde411e611be972c763230
     Pseudo is Norm-conserving, Zval =  1.0
     Generated in analytical, separable form
     Using radial grid of  929 points,  0 beta functions with: 

     PseudoPot. # 2 for  O read from file:
     ../O.blyp-hgh.UPF
     MD5 check sum: d0b7156309aa9befef28faac7bc56342
     Pseudo is Norm-conserving, Zval =  6.0
     Generated in analytical, separable form
     Using radial grid of 1095 points,  1 beta functions with: 
                l(1) =   0

     atomic species   valence    mass     pseudopotential
        H              1.00     1.01000      H( 1.00)
        O              6.00    16.00000      O( 1.00)

     No symmetry found



   Cartesian axes

     site n.     atom                  positions (alat units)
         1           H   tau(   1) = (  -0.0660663  -0.0426107   0.0160704  )
         2           H   tau(   2) = (  -0.0246983   0.0724783  -0.0380874  )
         3           O   tau(   3) = (   0.0057296  -0.0018854   0.0069678  )

     number of k points=     1  Marzari-Vanderbilt smearing, width (Ry)=  0.0250
                       cart. coord. in units 2pi/alat
        k(    1) = (   0.0000000   0.0000000   0.0000000), wk =   2.0000000

     Dense  grid:   922329 G-vectors     FFT dimensions: ( 125, 125, 125)

     Estimated max dynamical RAM per process >      31.67Mb

     Estimated total allocated dynamical RAM >     886.64Mb

     Initial potential from superposition of free atoms
     Check: negative starting charge=   -0.016068

     starting charge    7.99998, renormalised to    8.00000

     negative rho (up, down):  1.607E-02 0.000E+00
     Starting wfc are    6 randomized atomic wfcs +    2 random wfc

     total cpu time spent up to now is        0.7 secs

     per-process dynamical memory:    33.5 Mb

     Self-consistent Calculation

     iteration #  1     ecut=    90.00 Ry     beta=0.70
     Davidson diagonalization with overlap
     ethr =  1.00E-02,  avg # of iterations =  8.0

     negative rho (up, down):  4.700E-03 0.000E+00

     total cpu time spent up to now is        1.2 secs

     total energy              =     -33.99823016 Ry
     Harris-Foulkes estimate   =     -34.26707538 Ry
     estimated scf accuracy    <       0.39883827 Ry

     iteration #  2     ecut=    90.00 Ry     beta=0.70
     Davidson diagonalization with overlap
     ethr =  4.99E-03,  avg # of iterations =  2.0

     negative rho (up, down):  2.723E-03 0.000E+00

     total cpu time spent up to now is        1.4 secs

     total energy              =     -34.06984910 Ry
     Harris-Foulkes estimate   =     -34.25090899 Ry
     estimated scf accuracy    <       0.37812270 Ry

     iteration #  3     ecut=    90.00 Ry     beta=0.70
     Davidson diagonalization with overlap
     ethr =  4.73E-03,  avg # of iterations =  2.0

     negative rho (up, down):  1.943E-04 0.000E+00

     total cpu time spent up to now is        1.7 secs

     total energy              =     -34.15666185 Ry
     Harris-Foulkes estimate   =     -34.15794595 Ry
     estimated scf accuracy    <       0.00621174 Ry

     iteration #  4     ecut=    90.00 Ry     beta=0.70
     Davidson diagonalization with overlap
     ethr =  7.76E-05,  avg # of iterations =  7.0

     negative rho (up, down):  2.523E-05 0.000E+00

     total cpu time spent up to now is        2.0 secs

     total energy              =     -34.15435752 Ry
     Harris-Foulkes estimate   =     -34.15452990 Ry
     estimated scf accuracy    <       0.00041910 Ry

     iteration #  5     ecut=    90.00 Ry     beta=0.70
     Davidson diagonalization with overlap
     ethr =  5.24E-06,  avg # of iterations = 10.0

     total cpu time spent up to now is        2.3 secs

     total energy              =     -34.15847570 Ry
     Harris-Foulkes estimate   =     -34.15847824 Ry
     estimated scf accuracy    <       0.00001294 Ry

     iteration #  6     ecut=    90.00 Ry     beta=0.70
     Davidson diagonalization with overlap
     ethr =  1.62E-07,  avg # of iterations =  2.0

     negative rho (up, down):  4.891E-08 0.000E+00

     total cpu time spent up to now is        2.5 secs

     total energy              =     -34.15847721 Ry
     Harris-Foulkes estimate   =     -34.15847723 Ry
     estimated scf accuracy    <       0.00000255 Ry

     iteration #  7     ecut=    90.00 Ry     beta=0.70
     Davidson diagonalization with overlap
     ethr =  3.19E-08,  avg # of iterations =  2.0

     total cpu time spent up to now is        2.7 secs

     total energy              =     -34.15847738 Ry
     Harris-Foulkes estimate   =     -34.15847741 Ry
     estimated scf accuracy    <       0.00000002 Ry

     iteration #  8     ecut=    90.00 Ry     beta=0.70
     Davidson diagonalization with overlap
     ethr =  2.15E-10,  avg # of iterations =  2.0

     total cpu time spent up to now is        2.8 secs

     End of self-consistent calculation

          k = 0.0000 0.0000 0.0000 (115313 PWs)   bands (ev):

   -25.8643 -13.0427  -9.4633  -7.2099  -0.8404   0.4512   0.8627   1.1329

     the Fermi energy is    -5.2763 ev

!    total energy              =     -34.15847726 Ry
     Harris-Foulkes estimate   =     -34.15847739 Ry
     estimated scf accuracy    <          5.4E-09 Ry

     The total energy is the sum of the following terms:

     one-electron contribution =     -65.01779660 Ry
     hartree contribution      =      33.89232158 Ry
     xc contribution           =      -8.46291616 Ry
     ewald contribution        =       5.42991392 Ry
     smearing contrib. (-TS)   =       0.00000000 Ry

     convergence has been achieved in   8 iterations

     Forces acting on atoms (Ry/au):

     atom    1 type  1   force =    -0.22508876   -0.15017801    0.04069704
     atom    2 type  1   force =     0.01432752    0.01985086   -0.00799145
     atom    3 type  2   force =     0.21076124    0.13032715   -0.03270559

     Total force =     0.371501     Total SCF correction =     0.000063

     BFGS Geometry Optimization

     number of scf cycles    =   1
     number of bfgs steps    =   0

     energy   new            =     -34.1584772567 Ry

     new trust radius        =       0.2736322919 bohr
     new conv_thr            =       0.0000000100 Ry


ATOMIC_POSITIONS (angstrom)
H       -0.818327840  -0.530442779   0.191617945
H       -0.253814202   0.777581621  -0.407328895
O        0.172169042   0.049012158   0.056436950



     Writing output data file pwscf.save
     Check: negative starting charge=   -0.016068
     NEW-OLD atomic charge density approx. for the potential
     Check: negative starting charge=   -0.015969

     negative rho (up, down):  2.815E-02 0.000E+00

     total cpu time spent up to now is        3.5 secs

     per-process dynamical memory:    45.8 Mb

     Self-consistent Calculation

     iteration #  1     ecut=    90.00 Ry     beta=0.70
     Davidson diagonalization with overlap
     c_bands:  3 eigenvalues not converged
     ethr =  1.00E-06,  avg # of iterations = 20.0

     negative rho (up, down):  7.297E-03 0.000E+00

     total cpu time spent up to now is        4.1 secs

     total energy              =     -34.08330124 Ry
     Harris-Foulkes estimate   =     -34.20892344 Ry
     estimated scf accuracy    <       0.03075929 Ry

     iteration #  2     ecut=    90.00 Ry     beta=0.70
     Davidson diagonalization with overlap
     ethr =  3.84E-04,  avg # of iterations =  4.0

     negative rho (up, down):  3.386E-03 0.000E+00

     total cpu time spent up to now is        4.3 secs

     total energy              =     -34.13503483 Ry
     Harris-Foulkes estimate   =     -34.13159886 Ry
     estimated scf accuracy    <       0.00640691 Ry

     iteration #  3     ecut=    90.00 Ry     beta=0.70
     Davidson diagonalization with overlap
     ethr =  8.01E-05,  avg # of iterations =  5.0

     negative rho (up, down):  1.565E-03 0.000E+00

     total cpu time spent up to now is        4.5 secs

     total energy              =     -34.13894645 Ry
     Harris-Foulkes estimate   =     -34.13734698 Ry
     estimated scf accuracy    <       0.00229476 Ry

     iteration #  4     ecut=    90.00 Ry     beta=0.70
     Davidson diagonalization with overlap
     ethr =  2.87E-05,  avg # of iterations = 10.0

     negative rho (up, down):  2.449E-05 0.000E+00

     total cpu time spent up to now is        4.8 secs

     total energy              =     -34.14386477 Ry
     Harris-Foulkes estimate   =     -34.14348462 Ry
     estimated scf accuracy    <       0.00009798 Ry

     iteration #  5     ecut=    90.00 Ry     beta=0.70
     Davidson diagonalization with overlap
     c_bands:  1 eigenvalues not converged
     ethr =  1.22E-06,  avg # of iterations = 20.0

     negative rho (up, down):  5.006E-06 0.000E+00

     total cpu time spent up to now is        5.1 secs

     total energy              =     -34.14388030 Ry
     Harris-Foulkes estimate   =     -34.14388147 Ry
     estimated scf accuracy    <       0.00000376 Ry

     iteration #  6     ecut=    90.00 Ry     beta=0.70
     Davidson diagonalization with overlap
     c_bands:  1 eigenvalues not converged
     ethr =  4.70E-08,  avg # of iterations = 20.0

     total cpu time spent up to now is        5.5 secs

     total energy              =     -34.14388098 Ry
     Harris-Foulkes estimate   =     -34.14388089 Ry
     estimated scf accuracy    <       0.00000012 Ry

     iteration #  7     ecut=    90.00 Ry     beta=0.70
     Davidson diagonalization with overlap
     ethr =  1.53E-09,  avg # of iterations =  2.0

     total cpu time spent up to now is        5.6 secs

     End of self-consistent calculation

          k = 0.0000 0.0000 0.0000 (115313 PWs)   bands (ev):

   -24.6496 -11.6365  -9.5580  -7.0113  -1.4081   0.2269   0.6303   1.1074

     the Fermi energy is    -4.9917 ev

!    total energy              =     -34.14388100 Ry
     Harris-Foulkes estimate   =     -34.14388101 Ry
     estimated scf accuracy    <          3.0E-09 Ry

     The total energy is the sum of the following terms:

     one-electron contribution =     -62.13199548 Ry
     hartree contribution      =      32.50331926 Ry
     xc contribution           =      -8.24029905 Ry
     ewald contribution        =       3.72509427 Ry
     smearing contrib. (-TS)   =       0.00000000 Ry

     convergence has been achieved in   7 iterations

     Forces acting on atoms (Ry/au):

     atom    1 type  1   force =     0.15510905    0.07277877   -0.01083068
     atom    2 type  1   force =    -0.00160903    0.04673228   -0.02451857
     atom    3 type  2   force =    -0.15350002   -0.11951105    0.03534925

     Total force =     0.267124     Total SCF correction =     0.000086

     number of scf cycles    =   2
     number of bfgs steps    =   1

     energy   old            =     -34.1584772567 Ry
     energy   new            =     -34.1438810004 Ry

     CASE: energy  _new > energy  _old

     new trust radius        =       0.1237304115 bohr
     new conv_thr            =       0.0000000100 Ry


ATOMIC_POSITIONS (angstrom)
H       -0.753075714  -0.486906911   0.179820073
H       -0.257967680   0.771826955  -0.405012212
O        0.111070394   0.011230956   0.065918138



     Writing output data file pwscf.save
     Check: negative starting charge=   -0.015969
     NEW-OLD atomic charge density approx. for the potential
     Check: negative starting charge=   -0.016030

     negative rho (up, down):  2.385E-02 0.000E+00

     total cpu time spent up to now is        6.2 secs

     per-process dynamical memory:    45.8 Mb

     Self-consistent Calculation

     iteration #  1     ecut=    90.00 Ry     beta=0.70
     Davidson diagonalization with overlap
     c_bands:  2 eigenvalues not converged
     ethr =  1.00E-06,  avg # of iterations = 20.0

     negative rho (up, down):  6.206E-03 0.000E+00

     total cpu time spent up to now is        6.9 secs

     total energy              =     -34.18277233 Ry
     Harris-Foulkes estimate   =     -34.14802342 Ry
     estimated scf accuracy    <       0.01166256 Ry

     iteration #  2     ecut=    90.00 Ry     beta=0.70
     Davidson diagonalization with overlap
     ethr =  1.46E-04,  avg # of iterations =  4.0

     negative rho (up, down):  3.585E-03 0.000E+00

     total cpu time spent up to now is        7.1 secs

     total energy              =     -34.16863069 Ry
     Harris-Foulkes estimate   =     -34.19230138 Ry
     estimated scf accuracy    <       0.00801161 Ry

     iteration #  3     ecut=    90.00 Ry     beta=0.70
     Davidson diagonalization with overlap
     ethr =  1.00E-04,  avg # of iterations =  3.0

     negative rho (up, down):  8.898E-04 0.000E+00

     total cpu time spent up to now is        7.4 secs

     total energy              =     -34.17605717 Ry
     Harris-Foulkes estimate   =     -34.17361792 Ry
     estimated scf accuracy    <       0.00007810 Ry

     iteration #  4     ecut=    90.00 Ry     beta=0.70
     Davidson diagonalization with overlap
     ethr =  9.76E-07,  avg # of iterations = 14.0

     negative rho (up, down):  2.434E-05 0.000E+00

     total cpu time spent up to now is        7.7 secs

     total energy              =     -34.18019194 Ry
     Harris-Foulkes estimate   =     -34.18016623 Ry
     estimated scf accuracy    <       0.00000519 Ry

     iteration #  5     ecut=    90.00 Ry     beta=0.70
     Davidson diagonalization with overlap
     ethr =  6.48E-08,  avg # of iterations =  6.0

     negative rho (up, down):  6.918E-08 0.000E+00

     total cpu time spent up to now is        7.9 secs

     total energy              =     -34.18019250 Ry
     Harris-Foulkes estimate   =     -34.18019351 Ry
     estimated scf accuracy    <       0.00000019 Ry

     iteration #  6     ecut=    90.00 Ry     beta=0.70
     Davidson diagonalization with overlap
     ethr =  2.38E-09,  avg # of iterations =  2.0

     total cpu time spent up to now is        8.1 secs

     End of self-consistent calculation

          k = 0.0000 0.0000 0.0000 (115313 PWs)   bands (ev):

   -25.1774 -12.3726  -9.5077  -7.1033  -0.9850   0.4085   0.7587   1.1226

     the Fermi energy is    -5.1123 ev

!    total energy              =     -34.18019243 Ry
     Harris-Foulkes estimate   =     -34.18019254 Ry
     estimated scf accuracy    <          6.7E-09 Ry

     The total energy is the sum of the following terms:

     one-electron contribution =     -63.59277931 Ry
     hartree contribution      =      33.20871861 Ry
     xc contribution           =      -8.34809120 Ry
     ewald contribution        =       4.55195948 Ry
     smearing contrib. (-TS)   =       0.00000000 Ry

     convergence has been achieved in   6 iterations

     Forces acting on atoms (Ry/au):

     atom    1 type  1   force =     0.03813810    0.00097540    0.00575631
     atom    2 type  1   force =     0.00605929    0.03450234   -0.01791331
     atom    3 type  2   force =    -0.04419739   -0.03547774    0.01215700

     Total force =     0.079978     Total SCF correction =     0.000246

     number of scf cycles    =   3
     number of bfgs steps    =   1

     energy   old            =     -34.1584772567 Ry
     energy   new            =     -34.1801924251 Ry

     CASE: energy  _new < energy  _old

     new trust radius        =       0.0360782454 bohr
     new conv_thr            =       0.0000000044 Ry


ATOMIC_POSITIONS (angstrom)
H       -0.746476288  -0.493678212   0.184404392
H       -0.254512176   0.788536530  -0.413576431
O        0.101015464   0.001292683   0.069898039



     Writing output data file pwscf.save
     Check: negative starting charge=   -0.016030
     NEW-OLD atomic charge density approx. for the potential
     Check: negative starting charge=   -0.016027

     negative rho (up, down):  4.862E-03 0.000E+00

     total cpu time spent up to now is        8.7 secs

     per-process dynamical memory:    45.8 Mb

     Self-consistent Calculation

     iteration #  1     ecut=    90.00 Ry     beta=0.70
     Davidson diagonalization with overlap
     c_bands:  1 eigenvalues not converged
     ethr =  1.00E-06,  avg # of iterations = 20.0

     negative rho (up, down):  1.271E-03 0.000E+00

     total cpu time spent up to now is        9.2 secs

     total energy              =     -34.17797791 Ry
     Harris-Foulkes estimate   =     -34.17410698 Ry
     estimated scf accuracy    <       0.00026766 Ry

     iteration #  2     ecut=    90.00 Ry     beta=0.70
     Davidson diagonalization with overlap
     c_bands:  1 eigenvalues not converged
     ethr =  3.35E-06,  avg # of iterations = 20.0

     negative rho (up, down):  4.291E-04 0.000E+00

     total cpu time spent up to now is        9.5 secs

     total energy              =     -34.18224121 Ry
     Harris-Foulkes estimate   =     -34.18213979 Ry
     estimated scf accuracy    <       0.00002115 Ry

     iteration #  3     ecut=    90.00 Ry     beta=0.70
     Davidson diagonalization with overlap
     c_bands:  1 eigenvalues not converged
     ethr =  2.64E-07,  avg # of iterations = 20.0

     negative rho (up, down):  1.258E-04 0.000E+00

     total cpu time spent up to now is        9.8 secs

     total energy              =     -34.18225037 Ry
     Harris-Foulkes estimate   =     -34.18224896 Ry
     estimated scf accuracy    <       0.00000553 Ry

     iteration #  4     ecut=    90.00 Ry     beta=0.70
     Davidson diagonalization with overlap
     ethr =  6.92E-08,  avg # of iterations =  5.0

     negative rho (up, down):  3.428E-06 0.000E+00

     total cpu time spent up to now is       10.0 secs

     total energy              =     -34.18225124 Ry
     Harris-Foulkes estimate   =     -34.18225243 Ry
     estimated scf accuracy    <       0.00000122 Ry

     iteration #  5     ecut=    90.00 Ry     beta=0.70
     Davidson diagonalization with overlap
     ethr =  1.52E-08,  avg # of iterations =  3.0

     total cpu time spent up to now is       10.2 secs

     total energy              =     -34.18225133 Ry
     Harris-Foulkes estimate   =     -34.18225153 Ry
     estimated scf accuracy    <          5.3E-09 Ry

     iteration #  6     ecut=    90.00 Ry     beta=0.70
     Davidson diagonalization with overlap
     ethr =  6.59E-11,  avg # of iterations =  3.0

     total cpu time spent up to now is       10.4 secs

     End of self-consistent calculation

          k = 0.0000 0.0000 0.0000 (115313 PWs)   bands (ev):

   -25.1040 -12.4342  -9.4153  -7.0871  -0.9841   0.4120   0.7448   1.1244

     the Fermi energy is    -5.0926 ev

!    total energy              =     -34.18225133 Ry
     Harris-Foulkes estimate   =     -34.18225134 Ry
     estimated scf accuracy    <          1.7E-09 Ry

     The total energy is the sum of the following terms:

     one-electron contribution =     -63.50465631 Ry
     hartree contribution      =      33.16921460 Ry
     xc contribution           =      -8.34160757 Ry
     ewald contribution        =       4.49479796 Ry
     smearing contrib. (-TS)   =       0.00000000 Ry

     convergence has been achieved in   6 iterations

     Forces acting on atoms (Ry/au):

     atom    1 type  1   force =     0.01446563   -0.00762061    0.00427154
     atom    2 type  1   force =     0.01807974   -0.00417196    0.00287676
     atom    3 type  2   force =    -0.03254537    0.01179257   -0.00714830

     Total force =     0.043445     Total SCF correction =     0.000097

     number of scf cycles    =   4
     number of bfgs steps    =   2

     energy   old            =     -34.1801924251 Ry
     energy   new            =     -34.1822513268 Ry

     CASE: energy  _new < energy  _old

     new trust radius        =       0.0438040754 bohr
     new conv_thr            =       0.0000000021 Ry


ATOMIC_POSITIONS (angstrom)
H       -0.737644975  -0.505255763   0.190538376
H       -0.240726680   0.795918017  -0.416848445
O        0.078398655   0.005488746   0.067036069



     Writing output data file pwscf.save
     Check: negative starting charge=   -0.016027
     NEW-OLD atomic charge density approx. for the potential
     Check: negative starting charge=   -0.016009

     negative rho (up, down):  7.768E-03 0.000E+00

     total cpu time spent up to now is       10.9 secs

     per-process dynamical memory:    45.8 Mb

     Self-consistent Calculation

     iteration #  1     ecut=    90.00 Ry     beta=0.70
     Davidson diagonalization with overlap
     ethr =  1.00E-06,  avg # of iterations = 18.0

     negative rho (up, down):  2.036E-03 0.000E+00

     total cpu time spent up to now is       11.6 secs

     total energy              =     -34.17809888 Ry
     Harris-Foulkes estimate   =     -34.17062377 Ry
     estimated scf accuracy    <       0.00074921 Ry

     iteration #  2     ecut=    90.00 Ry     beta=0.70
     Davidson diagonalization with overlap
     ethr =  9.37E-06,  avg # of iterations = 11.0

     negative rho (up, down):  1.249E-03 0.000E+00

     total cpu time spent up to now is       11.9 secs

     total energy              =     -34.17893294 Ry
     Harris-Foulkes estimate   =     -34.17861149 Ry
     estimated scf accuracy    <       0.00071040 Ry

     iteration #  3     ecut=    90.00 Ry     beta=0.70
     Davidson diagonalization with overlap
     ethr =  8.88E-06,  avg # of iterations =  5.0

     negative rho (up, down):  1.658E-04 0.000E+00

     total cpu time spent up to now is       12.1 secs

     total energy              =     -34.18331135 Ry
     Harris-Foulkes estimate   =     -34.18316248 Ry
     estimated scf accuracy    <       0.00000913 Ry

     iteration #  4     ecut=    90.00 Ry     beta=0.70
     Davidson diagonalization with overlap
     ethr =  1.14E-07,  avg # of iterations =  5.0

     negative rho (up, down):  5.018E-06 0.000E+00

     total cpu time spent up to now is       12.4 secs

     total energy              =     -34.18331417 Ry
     Harris-Foulkes estimate   =     -34.18331638 Ry
     estimated scf accuracy    <       0.00000025 Ry

     iteration #  5     ecut=    90.00 Ry     beta=0.70
     Davidson diagonalization with overlap
     ethr =  3.06E-09,  avg # of iterations =  4.0

     total cpu time spent up to now is       12.6 secs

     total energy              =     -34.18331376 Ry
     Harris-Foulkes estimate   =     -34.18331429 Ry
     estimated scf accuracy    <          9.5E-09 Ry

     iteration #  6     ecut=    90.00 Ry     beta=0.70
     Davidson diagonalization with overlap
     ethr =  1.19E-10,  avg # of iterations =  2.0

     total cpu time spent up to now is       12.7 secs

     End of self-consistent calculation

          k = 0.0000 0.0000 0.0000 (115313 PWs)   bands (ev):

   -25.1815 -12.7466  -9.2403  -7.0944  -0.9333   0.4295   0.7656   1.1301

     the Fermi energy is    -5.1077 ev

!    total energy              =     -34.18331374 Ry
     Harris-Foulkes estimate   =     -34.18331377 Ry
     estimated scf accuracy    <          4.4E-10 Ry

     The total energy is the sum of the following terms:

     one-electron contribution =     -63.79570637 Ry
     hartree contribution      =      33.31407255 Ry
     xc contribution           =      -8.36550625 Ry
     ewald contribution        =       4.66382633 Ry
     smearing contrib. (-TS)   =       0.00000000 Ry

     convergence has been achieved in   6 iterations

     Forces acting on atoms (Ry/au):

     atom    1 type  1   force =    -0.01610470   -0.01493440    0.00324340
     atom    2 type  1   force =     0.00298621    0.00286616   -0.00296460
     atom    3 type  2   force =     0.01311849    0.01206824   -0.00027881

     Total force =     0.028925     Total SCF correction =     0.000039

     number of scf cycles    =   5
     number of bfgs steps    =   3

     energy   old            =     -34.1822513268 Ry
     energy   new            =     -34.1833137384 Ry

     CASE: energy  _new < energy  _old

     new trust radius        =       0.0116065590 bohr
     new conv_thr            =       0.0000000011 Ry


ATOMIC_POSITIONS (angstrom)
H       -0.740039918  -0.510716877   0.192009344
H       -0.238511866   0.798591467  -0.418952649
O        0.078578784   0.008276410   0.067669304



     Writing output data file pwscf.save
     Check: negative starting charge=   -0.016009
     NEW-OLD atomic charge density approx. for the potential
     Check: negative starting charge=   -0.016004

     negative rho (up, down):  7.846E-04 0.000E+00

     total cpu time spent up to now is       13.3 secs

     per-process dynamical memory:    45.8 Mb

     Self-consistent Calculation

     iteration #  1     ecut=    90.00 Ry     beta=0.70
     Davidson diagonalization with overlap
     ethr =  1.00E-06,  avg # of iterations =  4.0

     negative rho (up, down):  1.916E-04 0.000E+00

     total cpu time spent up to now is       14.0 secs

     total energy              =     -34.18354472 Ry
     Harris-Foulkes estimate   =     -34.18354738 Ry
     estimated scf accuracy    <       0.00003627 Ry

     iteration #  2     ecut=    90.00 Ry     beta=0.70
     Davidson diagonalization with overlap
     ethr =  4.53E-07,  avg # of iterations =  3.0

     negative rho (up, down):  1.023E-04 0.000E+00

     total cpu time spent up to now is       14.3 secs

     total energy              =     -34.18355169 Ry
     Harris-Foulkes estimate   =     -34.18356356 Ry
     estimated scf accuracy    <       0.00002321 Ry

     iteration #  3     ecut=    90.00 Ry     beta=0.70
     Davidson diagonalization with overlap
     ethr =  2.90E-07,  avg # of iterations =  2.0

     negative rho (up, down):  1.471E-05 0.000E+00

     total cpu time spent up to now is       14.4 secs

     total energy              =     -34.18355849 Ry
     Harris-Foulkes estimate   =     -34.18355776 Ry
     estimated scf accuracy    <       0.00000110 Ry

     iteration #  4     ecut=    90.00 Ry     beta=0.70
     Davidson diagonalization with overlap
     ethr =  1.37E-08,  avg # of iterations =  3.0

     negative rho (up, down):  1.671E-07 0.000E+00

     total cpu time spent up to now is       14.6 secs

     total energy              =     -34.18355879 Ry
     Harris-Foulkes estimate   =     -34.18355876 Ry
     estimated scf accuracy    <       0.00000002 Ry

     iteration #  5     ecut=    90.00 Ry     beta=0.70
     Davidson diagonalization with overlap
     ethr =  2.43E-10,  avg # of iterations =  2.0

     total cpu time spent up to now is       14.8 secs

     End of self-consistent calculation

          k = 0.0000 0.0000 0.0000 (115313 PWs)   bands (ev):

   -25.1342 -12.7330  -9.2145  -7.0858  -0.9424   0.4272   0.7568   1.1296

     the Fermi energy is    -5.0962 ev

!    total energy              =     -34.18355880 Ry
     Harris-Foulkes estimate   =     -34.18355880 Ry
     estimated scf accuracy    <          1.0E-09 Ry

     The total energy is the sum of the following terms:

     one-electron contribution =     -63.70952969 Ry
     hartree contribution      =      33.27371983 Ry
     xc contribution           =      -8.35891852 Ry
     ewald contribution        =       4.61116958 Ry
     smearing contrib. (-TS)   =       0.00000000 Ry

     convergence has been achieved in   5 iterations

     Forces acting on atoms (Ry/au):

     atom    1 type  1   force =    -0.00557524   -0.00627805    0.00079813
     atom    2 type  1   force =     0.00181311    0.00137863   -0.00210281
     atom    3 type  2   force =     0.00376213    0.00489942    0.00130468

     Total force =     0.010982     Total SCF correction =     0.000318

     number of scf cycles    =   6
     number of bfgs steps    =   4

     energy   old            =     -34.1833137384 Ry
     energy   new            =     -34.1835588003 Ry

     CASE: energy  _new < energy  _old

     new trust radius        =       0.0111417559 bohr
     new conv_thr            =       0.0000000002 Ry


ATOMIC_POSITIONS (angstrom)
H       -0.741316496  -0.516360238   0.193143016
H       -0.235519619   0.801520901  -0.421767349
O        0.076863115   0.010990337   0.069350333



     Writing output data file pwscf.save
     Check: negative starting charge=   -0.016004
     NEW-OLD atomic charge density approx. for the potential
     Check: negative starting charge=   -0.015997

     negative rho (up, down):  1.036E-03 0.000E+00

     total cpu time spent up to now is       15.4 secs

     per-process dynamical memory:    45.8 Mb

     Self-consistent Calculation

     iteration #  1     ecut=    90.00 Ry     beta=0.70
     Davidson diagonalization with overlap
     ethr =  1.00E-06,  avg # of iterations = 20.0

     negative rho (up, down):  2.565E-04 0.000E+00

     total cpu time spent up to now is       15.8 secs

     total energy              =     -34.18362029 Ry
     Harris-Foulkes estimate   =     -34.18358561 Ry
     estimated scf accuracy    <       0.00002095 Ry

     iteration #  2     ecut=    90.00 Ry     beta=0.70
     Davidson diagonalization with overlap
     ethr =  2.62E-07,  avg # of iterations =  4.0

     negative rho (up, down):  1.193E-04 0.000E+00

     total cpu time spent up to now is       16.0 secs

     total energy              =     -34.18362665 Ry
     Harris-Foulkes estimate   =     -34.18362806 Ry
     estimated scf accuracy    <       0.00000808 Ry

     iteration #  3     ecut=    90.00 Ry     beta=0.70
     Davidson diagonalization with overlap
     ethr =  1.01E-07,  avg # of iterations =  2.0

     negative rho (up, down):  9.123E-06 0.000E+00

     total cpu time spent up to now is       16.2 secs

     total energy              =     -34.18363063 Ry
     Harris-Foulkes estimate   =     -34.18362946 Ry
     estimated scf accuracy    <       0.00000144 Ry

     iteration #  4     ecut=    90.00 Ry     beta=0.70
     Davidson diagonalization with overlap
     ethr =  1.80E-08,  avg # of iterations =  3.0

     negative rho (up, down):  5.435E-08 0.000E+00

     total cpu time spent up to now is       16.4 secs

     total energy              =     -34.18363099 Ry
     Harris-Foulkes estimate   =     -34.18363097 Ry
     estimated scf accuracy    <       0.00000001 Ry

     iteration #  5     ecut=    90.00 Ry     beta=0.70
     Davidson diagonalization with overlap
     ethr =  1.75E-10,  avg # of iterations =  2.0

     total cpu time spent up to now is       16.8 secs

     total energy              =     -34.18363103 Ry
     Harris-Foulkes estimate   =     -34.18363100 Ry
     estimated scf accuracy    <          8.9E-10 Ry

     iteration #  6     ecut=    90.00 Ry     beta=0.70
     Davidson diagonalization with overlap
     ethr =  1.12E-11,  avg # of iterations =  2.0

     total cpu time spent up to now is       16.9 secs

     End of self-consistent calculation

          k = 0.0000 0.0000 0.0000 (115313 PWs)   bands (ev):

   -25.0964 -12.7396  -9.1799  -7.0785  -0.9482   0.4253   0.7496   1.1296

     the Fermi energy is    -5.0867 ev

!    total energy              =     -34.18363105 Ry
     Harris-Foulkes estimate   =     -34.18363103 Ry
     estimated scf accuracy    <          6.7E-11 Ry

     The total energy is the sum of the following terms:

     one-electron contribution =     -63.64924778 Ry
     hartree contribution      =      33.24596320 Ry
     xc contribution           =      -8.35440712 Ry
     ewald contribution        =       4.57406066 Ry
     smearing contrib. (-TS)   =       0.00000000 Ry

     convergence has been achieved in   6 iterations

     Forces acting on atoms (Ry/au):

     atom    1 type  1   force =     0.00014002   -0.00015124   -0.00099186
     atom    2 type  1   force =     0.00036675   -0.00105881   -0.00061203
     atom    3 type  2   force =    -0.00050677    0.00121005    0.00160389

     Total force =     0.002636     Total SCF correction =     0.000020

     number of scf cycles    =   7
     number of bfgs steps    =   5

     energy   old            =     -34.1835588003 Ry
     energy   new            =     -34.1836310463 Ry

     CASE: energy  _new < energy  _old

     new trust radius        =       0.0027674703 bohr
     new conv_thr            =            1.0E-10 Ry


ATOMIC_POSITIONS (angstrom)
H       -0.741387107  -0.517024896   0.192705964
H       -0.235074309   0.801339619  -0.422465503
O        0.076488416   0.011836278   0.070485539



     Writing output data file pwscf.save
     Check: negative starting charge=   -0.015997
     NEW-OLD atomic charge density approx. for the potential
     Check: negative starting charge=   -0.015996

     negative rho (up, down):  3.634E-04 0.000E+00

     total cpu time spent up to now is       17.5 secs

     per-process dynamical memory:    45.8 Mb

     Self-consistent Calculation

     iteration #  1     ecut=    90.00 Ry     beta=0.70
     Davidson diagonalization with overlap
     ethr =  1.00E-06,  avg # of iterations =  4.0

     Threshold (ethr) on eigenvalues was too large:
     Diagonalizing with lowered threshold

     Davidson diagonalization with overlap
     ethr =  1.43E-08,  avg # of iterations =  2.0

     negative rho (up, down):  8.171E-05 0.000E+00

     total cpu time spent up to now is       17.8 secs

     total energy              =     -34.18363631 Ry
     Harris-Foulkes estimate   =     -34.18363434 Ry
     estimated scf accuracy    <       0.00000123 Ry

     iteration #  2     ecut=    90.00 Ry     beta=0.70
     Davidson diagonalization with overlap
     ethr =  1.53E-08,  avg # of iterations =  3.0

     negative rho (up, down):  3.882E-06 0.000E+00

     total cpu time spent up to now is       18.0 secs

     total energy              =     -34.18363801 Ry
     Harris-Foulkes estimate   =     -34.18363660 Ry
     estimated scf accuracy    <       0.00000008 Ry

     iteration #  3     ecut=    90.00 Ry     beta=0.70
     Davidson diagonalization with overlap
     ethr =  9.56E-10,  avg # of iterations =  2.0

     negative rho (up, down):  4.608E-07 0.000E+00

     total cpu time spent up to now is       18.2 secs

     total energy              =     -34.18363803 Ry
     Harris-Foulkes estimate   =     -34.18363807 Ry
     estimated scf accuracy    <       0.00000002 Ry

     iteration #  4     ecut=    90.00 Ry     beta=0.70
     Davidson diagonalization with overlap
     ethr =  2.29E-10,  avg # of iterations =  2.0

     total cpu time spent up to now is       18.4 secs

     total energy              =     -34.18363812 Ry
     Harris-Foulkes estimate   =     -34.18363804 Ry
     estimated scf accuracy    <          1.9E-09 Ry

     iteration #  5     ecut=    90.00 Ry     beta=0.70
     Davidson diagonalization with overlap
     ethr =  2.40E-11,  avg # of iterations =  2.0

     total cpu time spent up to now is       18.5 secs

     End of self-consistent calculation

          k = 0.0000 0.0000 0.0000 (115313 PWs)   bands (ev):

   -25.0944 -12.7410  -9.1771  -7.0783  -0.9484   0.4252   0.7494   1.1291

     the Fermi energy is    -5.0867 ev

!    total energy              =     -34.18363813 Ry
     Harris-Foulkes estimate   =     -34.18363812 Ry
     estimated scf accuracy    <          2.0E-11 Ry

     The total energy is the sum of the following terms:

     one-electron contribution =     -63.64672019 Ry
     hartree contribution      =      33.24483048 Ry
     xc contribution           =      -8.35423069 Ry
     ewald contribution        =       4.57248227 Ry
     smearing contrib. (-TS)   =       0.00000000 Ry

     convergence has been achieved in   5 iterations

     Forces acting on atoms (Ry/au):

     atom    1 type  1   force =     0.00055568    0.00051615   -0.00107109
     atom    2 type  1   force =     0.00000686   -0.00073406   -0.00064986
     atom    3 type  2   force =    -0.00056253    0.00021791    0.00172095

     Total force =     0.002451     Total SCF correction =     0.000023

     number of scf cycles    =   8
     number of bfgs steps    =   6

     energy   old            =     -34.1836310463 Ry
     energy   new            =     -34.1836381289 Ry

     CASE: energy  _new < energy  _old

     new trust radius        =       0.0030442174 bohr
     new conv_thr            =            1.0E-10 Ry


ATOMIC_POSITIONS (angstrom)
H       -0.741421645  -0.517305735   0.191987627
H       -0.234827492   0.800903835  -0.423174221
O        0.076276137   0.012552900   0.071912594



     Writing output data file pwscf.save
     Check: negative starting charge=   -0.015996
     NEW-OLD atomic charge density approx. for the potential
     Check: negative starting charge=   -0.015996

     negative rho (up, down):  4.032E-04 0.000E+00

     total cpu time spent up to now is       19.1 secs

     per-process dynamical memory:    45.8 Mb

     Self-consistent Calculation

     iteration #  1     ecut=    90.00 Ry     beta=0.70
     Davidson diagonalization with overlap
     ethr =  1.00E-06,  avg # of iterations =  3.0

     Threshold (ethr) on eigenvalues was too large:
     Diagonalizing with lowered threshold

     Davidson diagonalization with overlap
     ethr =  1.69E-08,  avg # of iterations =  2.0

     negative rho (up, down):  9.182E-05 0.000E+00

     total cpu time spent up to now is       19.5 secs

     total energy              =     -34.18364283 Ry
     Harris-Foulkes estimate   =     -34.18364213 Ry
     estimated scf accuracy    <       0.00000144 Ry

     iteration #  2     ecut=    90.00 Ry     beta=0.70
     Davidson diagonalization with overlap
     ethr =  1.81E-08,  avg # of iterations =  2.0

     negative rho (up, down):  5.438E-06 0.000E+00

     total cpu time spent up to now is       19.7 secs

     total energy              =     -34.18364487 Ry
     Harris-Foulkes estimate   =     -34.18364316 Ry
     estimated scf accuracy    <       0.00000010 Ry

     iteration #  3     ecut=    90.00 Ry     beta=0.70
     Davidson diagonalization with overlap
     ethr =  1.25E-09,  avg # of iterations =  3.0

     negative rho (up, down):  5.960E-07 0.000E+00

     total cpu time spent up to now is       19.9 secs

     total energy              =     -34.18364501 Ry
     Harris-Foulkes estimate   =     -34.18364494 Ry
     estimated scf accuracy    <       0.00000003 Ry

     iteration #  4     ecut=    90.00 Ry     beta=0.70
     Davidson diagonalization with overlap
     ethr =  4.11E-10,  avg # of iterations =  2.0

     total cpu time spent up to now is       20.1 secs

     total energy              =     -34.18364496 Ry
     Harris-Foulkes estimate   =     -34.18364502 Ry
     estimated scf accuracy    <          1.9E-09 Ry

     iteration #  5     ecut=    90.00 Ry     beta=0.70
     Davidson diagonalization with overlap
     ethr =  2.43E-11,  avg # of iterations =  2.0

     total cpu time spent up to now is       20.2 secs

     End of self-consistent calculation

          k = 0.0000 0.0000 0.0000 (115313 PWs)   bands (ev):

   -25.0940 -12.7397  -9.1776  -7.0783  -0.9486   0.4251   0.7492   1.1288

     the Fermi energy is    -5.0868 ev

!    total energy              =     -34.18364497 Ry
     Harris-Foulkes estimate   =     -34.18364496 Ry
     estimated scf accuracy    <          1.5E-11 Ry

     The total energy is the sum of the following terms:

     one-electron contribution =     -63.64531624 Ry
     hartree contribution      =      33.24413787 Ry
     xc contribution           =      -8.35412624 Ry
     ewald contribution        =       4.57165963 Ry
     smearing contrib. (-TS)   =       0.00000000 Ry

     convergence has been achieved in   5 iterations

     Forces acting on atoms (Ry/au):

     atom    1 type  1   force =     0.00060536    0.00081462   -0.00098509
     atom    2 type  1   force =    -0.00012200   -0.00050223   -0.00055238
     atom    3 type  2   force =    -0.00048337   -0.00031239    0.00153747

     Total force =     0.002295     Total SCF correction =     0.000018

     number of scf cycles    =   9
     number of bfgs steps    =   7

     energy   old            =     -34.1836381289 Ry
     energy   new            =     -34.1836449727 Ry

     CASE: energy  _new < energy  _old

     new trust radius        =       0.0045663261 bohr
     new conv_thr            =            1.0E-10 Ry


ATOMIC_POSITIONS (angstrom)
H       -0.741500507  -0.517294252   0.190702749
H       -0.234631211   0.800026554  -0.424142247
O        0.076158717   0.013418698   0.074165498



     Writing output data file pwscf.save
     Check: negative starting charge=   -0.015996
     NEW-OLD atomic charge density approx. for the potential
     Check: negative starting charge=   -0.015996

     negative rho (up, down):  6.415E-04 0.000E+00

     total cpu time spent up to now is       20.8 secs

     per-process dynamical memory:    45.8 Mb

     Self-consistent Calculation

     iteration #  1     ecut=    90.00 Ry     beta=0.70
     Davidson diagonalization with overlap
     ethr =  1.00E-06,  avg # of iterations =  5.0

     Threshold (ethr) on eigenvalues was too large:
     Diagonalizing with lowered threshold

     Davidson diagonalization with overlap
     ethr =  4.05E-08,  avg # of iterations =  2.0

     negative rho (up, down):  1.532E-04 0.000E+00

     total cpu time spent up to now is       21.2 secs

     total energy              =     -34.18364922 Ry
     Harris-Foulkes estimate   =     -34.18364115 Ry
     estimated scf accuracy    <       0.00000327 Ry

     iteration #  2     ecut=    90.00 Ry     beta=0.70
     Davidson diagonalization with overlap
     ethr =  4.09E-08,  avg # of iterations =  3.0

     negative rho (up, down):  1.266E-05 0.000E+00

     total cpu time spent up to now is       21.6 secs

     total energy              =     -34.18365248 Ry
     Harris-Foulkes estimate   =     -34.18364996 Ry
     estimated scf accuracy    <       0.00000022 Ry

     iteration #  3     ecut=    90.00 Ry     beta=0.70
     Davidson diagonalization with overlap
     ethr =  2.75E-09,  avg # of iterations =  3.0

     negative rho (up, down):  1.512E-06 0.000E+00

     total cpu time spent up to now is       21.8 secs

     total energy              =     -34.18365284 Ry
     Harris-Foulkes estimate   =     -34.18365261 Ry
     estimated scf accuracy    <       0.00000006 Ry

     iteration #  4     ecut=    90.00 Ry     beta=0.70
     Davidson diagonalization with overlap
     ethr =  8.00E-10,  avg # of iterations =  2.0

     total cpu time spent up to now is       22.0 secs

     total energy              =     -34.18365276 Ry
     Harris-Foulkes estimate   =     -34.18365286 Ry
     estimated scf accuracy    <          5.7E-09 Ry

     iteration #  5     ecut=    90.00 Ry     beta=0.70
     Davidson diagonalization with overlap
     ethr =  7.15E-11,  avg # of iterations =  2.0

     total cpu time spent up to now is       22.1 secs

     End of self-consistent calculation

          k = 0.0000 0.0000 0.0000 (115313 PWs)   bands (ev):

   -25.0948 -12.7350  -9.1816  -7.0788  -0.9490   0.4250   0.7494   1.1281

     the Fermi energy is    -5.0875 ev

!    total energy              =     -34.18365280 Ry
     Harris-Foulkes estimate   =     -34.18365277 Ry
     estimated scf accuracy    <          3.5E-11 Ry

     The total energy is the sum of the following terms:

     one-electron contribution =     -63.64423185 Ry
     hartree contribution      =      33.24348656 Ry
     xc contribution           =      -8.35402993 Ry
     ewald contribution        =       4.57112242 Ry
     smearing contrib. (-TS)   =       0.00000000 Ry

     convergence has been achieved in   5 iterations

     Forces acting on atoms (Ry/au):

     atom    1 type  1   force =     0.00043633    0.00093202   -0.00063130
     atom    2 type  1   force =    -0.00007221   -0.00019223   -0.00023774
     atom    3 type  2   force =    -0.00036412   -0.00073979    0.00086903

     Total force =     0.001730     Total SCF correction =     0.000025

     bfgs converged in  10 scf cycles and   8 bfgs steps
     (criteria: energy <  1.0E-04, force <  1.0E-03)

     End of BFGS Geometry Optimization

     Final energy   =     -34.1836528044 Ry
Begin final coordinates

ATOMIC_POSITIONS (angstrom)
H       -0.741500507  -0.517294252   0.190702749
H       -0.234631211   0.800026554  -0.424142247
O        0.076158717   0.013418698   0.074165498
End final coordinates



     Writing output data file pwscf.save
 
     init_run     :      0.51s CPU      0.55s WALL (       1 calls)
     electrons    :     14.56s CPU     17.56s WALL (      10 calls)
     update_pot   :      2.18s CPU      2.61s WALL (       9 calls)
     forces       :      0.68s CPU      0.69s WALL (      10 calls)

     Called by init_run:
     wfcinit      :      0.03s CPU      0.04s WALL (       1 calls)
     potinit      :      0.11s CPU      0.11s WALL (       1 calls)

     Called by electrons:
     c_bands      :      6.87s CPU      7.34s WALL (      62 calls)
     sum_band     :      1.29s CPU      1.47s WALL (      62 calls)
     v_of_rho     :      3.55s CPU      3.82s WALL (      69 calls)
     mix_rho      :      1.22s CPU      2.23s WALL (      62 calls)

     Called by c_bands:
     init_us_2    :      0.03s CPU      0.04s WALL (     125 calls)
     cegterg      :      6.79s CPU      7.21s WALL (      62 calls)

     Called by sum_band:

     Called by *egterg:
     h_psi        :      5.82s CPU      6.06s WALL (     437 calls)
     g_psi        :      0.05s CPU      0.05s WALL (     374 calls)
     cdiaghg      :      0.12s CPU      0.25s WALL (     424 calls)

     Called by h_psi:
     h_psi:pot    :      5.77s CPU      6.00s WALL (     437 calls)
     h_psi:calbec :      0.09s CPU      0.09s WALL (     437 calls)
     vloc_psi     :      5.64s CPU      5.87s WALL (     437 calls)
     add_vuspsi   :      0.04s CPU      0.04s WALL (     437 calls)

     General routines
     calbec       :      0.09s CPU      0.09s WALL (     477 calls)
     fft          :      2.53s CPU      2.80s WALL (     784 calls)
     fftw         :      5.63s CPU      6.01s WALL (    4306 calls)
     davcio       :      0.16s CPU      0.97s WALL (     387 calls)
 
     Parallel routines
     fft_scatter  :      2.99s CPU      3.63s WALL (    5090 calls)
 
     PWSCF        :    18.63s CPU        22.80s WALL

 
   This run was terminated on:   2:31: 3  28Jul2018            

=------------------------------------------------------------------------------=
   JOB DONE.
=------------------------------------------------------------------------------=
