
     Program PWSCF v.6.0 (svn rev. 13079) starts on 28Jul2018 at  2:45:28 

     This program is part of the open-source Quantum ESPRESSO suite
     for quantum simulation of materials; please cite
         "P. Giannozzi et al., J. Phys.:Condens. Matter 21 395502 (2009);
          URL http://www.quantum-espresso.org", 
     in publications or presentations arising from this work. More details at
     http://www.quantum-espresso.org/quote

     Parallel version (MPI), running on    28 processors
     R & G space division:  proc/nbgrp/npool/nimage =      28
     Reading input from ../QMCmins/relax-83.in

     Current dimensions of program PWSCF are:
     Max number of different atomic species (ntypx) = 10
     Max number of k-points (npk) =  40000
     Max angular momentum in pseudopotentials (lmaxx) =  3
     Message from routine iosys:
     pot_extrapolation='second-order' not available, using 'atomic'
     Message from routine iosys:
     wfc_extrapolation='second-order' not available, using 'atomic'

     Subspace diagonalization in iterative solution of the eigenvalue problem:
     a serial algorithm will be used

 
     Parallelization info
     --------------------
     sticks:   dense  smooth     PW     G-vecs:    dense   smooth      PW
     Min         408     408    102                32936    32936    4116
     Max         409     409    103                32943    32943    4121
     Sum       11449   11449   2869               922329   922329  115313
 


     bravais-lattice index     =            1
     lattice parameter (alat)  =      20.0000  a.u.
     unit-cell volume          =    8000.0000 (a.u.)^3
     number of atoms/cell      =            3
     number of atomic types    =            2
     number of electrons       =         8.00
     number of Kohn-Sham states=            8
     kinetic-energy cutoff     =      90.0000  Ry
     charge density cutoff     =     360.0000  Ry
     convergence threshold     =      1.0E-08
     mixing beta               =       0.7000
     number of iterations used =            8  plain     mixing
     Exchange-correlation      = BLYP ( 1  3  1  3 0 0)
     nstep                     =           50


     celldm(1)=  20.000000  celldm(2)=   0.000000  celldm(3)=   0.000000
     celldm(4)=   0.000000  celldm(5)=   0.000000  celldm(6)=   0.000000

     crystal axes: (cart. coord. in units of alat)
               a(1) = (   1.000000   0.000000   0.000000 )  
               a(2) = (   0.000000   1.000000   0.000000 )  
               a(3) = (   0.000000   0.000000   1.000000 )  

     reciprocal axes: (cart. coord. in units 2 pi/alat)
               b(1) = (  1.000000  0.000000  0.000000 )  
               b(2) = (  0.000000  1.000000  0.000000 )  
               b(3) = (  0.000000  0.000000  1.000000 )  


     PseudoPot. # 1 for  H read from file:
     ../H.blyp-hgh.UPF
     MD5 check sum: c576e69559cde411e611be972c763230
     Pseudo is Norm-conserving, Zval =  1.0
     Generated in analytical, separable form
     Using radial grid of  929 points,  0 beta functions with: 

     PseudoPot. # 2 for  O read from file:
     ../O.blyp-hgh.UPF
     MD5 check sum: d0b7156309aa9befef28faac7bc56342
     Pseudo is Norm-conserving, Zval =  6.0
     Generated in analytical, separable form
     Using radial grid of 1095 points,  1 beta functions with: 
                l(1) =   0

     atomic species   valence    mass     pseudopotential
        H              1.00     1.01000      H( 1.00)
        O              6.00    16.00000      O( 1.00)

     No symmetry found



   Cartesian axes

     site n.     atom                  positions (alat units)
         1           H   tau(   1) = (   0.0654729   0.0013475   0.0624711  )
         2           H   tau(   2) = (  -0.0895801  -0.0142651   0.0451434  )
         3           O   tau(   3) = (   0.0015218   0.0008154  -0.0012152  )

     number of k points=     1  Marzari-Vanderbilt smearing, width (Ry)=  0.0250
                       cart. coord. in units 2pi/alat
        k(    1) = (   0.0000000   0.0000000   0.0000000), wk =   2.0000000

     Dense  grid:   922329 G-vectors     FFT dimensions: ( 125, 125, 125)

     Estimated max dynamical RAM per process >      31.67Mb

     Estimated total allocated dynamical RAM >     886.64Mb

     Initial potential from superposition of free atoms
     Check: negative starting charge=   -0.015878

     starting charge    7.99998, renormalised to    8.00000

     negative rho (up, down):  1.588E-02 0.000E+00
     Starting wfc are    6 randomized atomic wfcs +    2 random wfc

     total cpu time spent up to now is        1.1 secs

     per-process dynamical memory:    33.5 Mb

     Self-consistent Calculation

     iteration #  1     ecut=    90.00 Ry     beta=0.70
     Davidson diagonalization with overlap
     ethr =  1.00E-02,  avg # of iterations =  7.0

     negative rho (up, down):  4.605E-03 0.000E+00

     total cpu time spent up to now is        1.6 secs

     total energy              =     -34.01143858 Ry
     Harris-Foulkes estimate   =     -34.24467793 Ry
     estimated scf accuracy    <       0.35190483 Ry

     iteration #  2     ecut=    90.00 Ry     beta=0.70
     Davidson diagonalization with overlap
     ethr =  4.40E-03,  avg # of iterations =  2.0

     negative rho (up, down):  2.900E-03 0.000E+00

     total cpu time spent up to now is        2.0 secs

     total energy              =     -34.06000266 Ry
     Harris-Foulkes estimate   =     -34.27017828 Ry
     estimated scf accuracy    <       0.46903671 Ry

     iteration #  3     ecut=    90.00 Ry     beta=0.70
     Davidson diagonalization with overlap
     ethr =  4.40E-03,  avg # of iterations =  2.0

     negative rho (up, down):  1.468E-04 0.000E+00

     total cpu time spent up to now is        2.4 secs

     total energy              =     -34.16124514 Ry
     Harris-Foulkes estimate   =     -34.16196368 Ry
     estimated scf accuracy    <       0.00602653 Ry

     iteration #  4     ecut=    90.00 Ry     beta=0.70
     Davidson diagonalization with overlap
     ethr =  7.53E-05,  avg # of iterations =  5.0

     negative rho (up, down):  3.338E-06 0.000E+00

     total cpu time spent up to now is        2.8 secs

     total energy              =     -34.16283776 Ry
     Harris-Foulkes estimate   =     -34.16296618 Ry
     estimated scf accuracy    <       0.00032681 Ry

     iteration #  5     ecut=    90.00 Ry     beta=0.70
     Davidson diagonalization with overlap
     ethr =  4.09E-06,  avg # of iterations = 10.0

     negative rho (up, down):  4.470E-06 0.000E+00

     total cpu time spent up to now is        3.3 secs

     total energy              =     -34.16285701 Ry
     Harris-Foulkes estimate   =     -34.16286445 Ry
     estimated scf accuracy    <       0.00002488 Ry

     iteration #  6     ecut=    90.00 Ry     beta=0.70
     Davidson diagonalization with overlap
     ethr =  3.11E-07,  avg # of iterations =  2.0

     negative rho (up, down):  2.955E-07 0.000E+00

     total cpu time spent up to now is        3.6 secs

     total energy              =     -34.16285996 Ry
     Harris-Foulkes estimate   =     -34.16286065 Ry
     estimated scf accuracy    <       0.00000032 Ry

     iteration #  7     ecut=    90.00 Ry     beta=0.70
     Davidson diagonalization with overlap
     ethr =  3.98E-09,  avg # of iterations =  2.0

     total cpu time spent up to now is        3.9 secs

     total energy              =     -34.16285994 Ry
     Harris-Foulkes estimate   =     -34.16286007 Ry
     estimated scf accuracy    <       0.00000005 Ry

     iteration #  8     ecut=    90.00 Ry     beta=0.70
     Davidson diagonalization with overlap
     ethr =  5.70E-10,  avg # of iterations =  2.0

     total cpu time spent up to now is        4.2 secs

     End of self-consistent calculation

          k = 0.0000 0.0000 0.0000 (115313 PWs)   bands (ev):

   -24.6787 -12.5584  -8.8845  -6.9825  -1.1614   0.3244   0.6757   1.1314

     the Fermi energy is    -4.9810 ev

!    total energy              =     -34.16285986 Ry
     Harris-Foulkes estimate   =     -34.16285995 Ry
     estimated scf accuracy    <          8.1E-09 Ry

     The total energy is the sum of the following terms:

     one-electron contribution =     -62.73523480 Ry
     hartree contribution      =      32.81804217 Ry
     xc contribution           =      -8.28778166 Ry
     ewald contribution        =       4.04211442 Ry
     smearing contrib. (-TS)   =       0.00000000 Ry

     convergence has been achieved in   8 iterations

     Forces acting on atoms (Ry/au):

     atom    1 type  1   force =     0.02510274   -0.00068152    0.04821201
     atom    2 type  1   force =     0.14041920    0.02296481   -0.05443995
     atom    3 type  2   force =    -0.16552194   -0.02228329    0.00622794

     Total force =     0.232587     Total SCF correction =     0.000167

     BFGS Geometry Optimization

     number of scf cycles    =   1
     number of bfgs steps    =   0

     energy   new            =     -34.1628598632 Ry

     new trust radius        =       0.1671312222 bohr
     new conv_thr            =       0.0000000100 Ry


ATOMIC_POSITIONS (angstrom)
H        0.706218799   0.013900353   0.686678697
H       -0.873768360  -0.138822545   0.448968617
O       -0.071484439  -0.003161808  -0.009565314



     Writing output data file pwscf.save
     Check: negative starting charge=   -0.015878
     NEW-OLD atomic charge density approx. for the potential
     Check: negative starting charge=   -0.015933

     negative rho (up, down):  2.696E-02 0.000E+00

     total cpu time spent up to now is        5.5 secs

     per-process dynamical memory:    45.8 Mb

     Self-consistent Calculation

     iteration #  1     ecut=    90.00 Ry     beta=0.70
     Davidson diagonalization with overlap
     c_bands:  1 eigenvalues not converged
     ethr =  1.00E-06,  avg # of iterations = 20.0

     negative rho (up, down):  7.027E-03 0.000E+00

     total cpu time spent up to now is        6.3 secs

     total energy              =     -34.16049774 Ry
     Harris-Foulkes estimate   =     -34.13911848 Ry
     estimated scf accuracy    <       0.01331511 Ry

     iteration #  2     ecut=    90.00 Ry     beta=0.70
     Davidson diagonalization with overlap
     ethr =  1.66E-04,  avg # of iterations =  4.0

     negative rho (up, down):  3.662E-03 0.000E+00

     total cpu time spent up to now is        6.7 secs

     total energy              =     -34.26831223 Ry
     Harris-Foulkes estimate   =     -34.16209103 Ry
     estimated scf accuracy    <       0.00581227 Ry

     iteration #  3     ecut=    90.00 Ry     beta=0.70
     Davidson diagonalization with overlap
     ethr =  7.27E-05,  avg # of iterations =  5.0

     negative rho (up, down):  3.550E-03 0.000E+00

     total cpu time spent up to now is        7.2 secs

     total energy              =      30.14484386 Ry
     Harris-Foulkes estimate   =     -44.58006447 Ry
     estimated scf accuracy    <       7.34054154 Ry

     iteration #  4     ecut=    90.00 Ry     beta=0.70
     Davidson diagonalization with overlap
     ethr =  7.27E-05,  avg # of iterations = 10.0

     negative rho (up, down):  1.250E-03 0.000E+00

     total cpu time spent up to now is        7.7 secs

     total energy              =     -34.16747292 Ry
     Harris-Foulkes estimate   =     -34.16486829 Ry
     estimated scf accuracy    <       0.00043091 Ry

     iteration #  5     ecut=    90.00 Ry     beta=0.70
     Davidson diagonalization with overlap
     ethr =  5.39E-06,  avg # of iterations = 15.0

     negative rho (up, down):  2.484E-05 0.000E+00

     total cpu time spent up to now is        8.3 secs

     total energy              =     -34.16779639 Ry
     Harris-Foulkes estimate   =     -34.16758003 Ry
     estimated scf accuracy    <       0.00003476 Ry

     iteration #  6     ecut=    90.00 Ry     beta=0.70
     Davidson diagonalization with overlap
     ethr =  4.35E-07,  avg # of iterations =  6.0

     negative rho (up, down):  2.464E-08 0.000E+00

     total cpu time spent up to now is        8.7 secs

     total energy              =     -34.17188127 Ry
     Harris-Foulkes estimate   =     -34.17187851 Ry
     estimated scf accuracy    <       0.00001798 Ry

     iteration #  7     ecut=    90.00 Ry     beta=0.70
     Davidson diagonalization with overlap
     ethr =  2.25E-07,  avg # of iterations =  1.0

     total cpu time spent up to now is        9.0 secs

     total energy              =     -34.17188114 Ry
     Harris-Foulkes estimate   =     -34.17188132 Ry
     estimated scf accuracy    <       0.00001751 Ry

     iteration #  8     ecut=    90.00 Ry     beta=0.70
     Davidson diagonalization with overlap
     ethr =  2.19E-07,  avg # of iterations =  1.0

     total cpu time spent up to now is        9.5 secs

     total energy              =     -34.17188078 Ry
     Harris-Foulkes estimate   =     -34.17188115 Ry
     estimated scf accuracy    <       0.00001720 Ry

     iteration #  9     ecut=    90.00 Ry     beta=0.70
     Davidson diagonalization with overlap
     ethr =  2.15E-07,  avg # of iterations =  1.0

     total cpu time spent up to now is        9.8 secs

     total energy              =     -34.17188036 Ry
     Harris-Foulkes estimate   =     -34.17188079 Ry
     estimated scf accuracy    <       0.00001710 Ry

     iteration # 10     ecut=    90.00 Ry     beta=0.70
     Davidson diagonalization with overlap
     ethr =  2.14E-07,  avg # of iterations =  1.0

     total cpu time spent up to now is       10.2 secs

     total energy              =     -34.17187975 Ry
     Harris-Foulkes estimate   =     -34.17188036 Ry
     estimated scf accuracy    <       0.00001703 Ry

     iteration # 11     ecut=    90.00 Ry     beta=0.70
     Davidson diagonalization with overlap
     ethr =  2.13E-07,  avg # of iterations =  1.0

     total cpu time spent up to now is       10.5 secs

     total energy              =     -34.17187945 Ry
     Harris-Foulkes estimate   =     -34.17187975 Ry
     estimated scf accuracy    <       0.00001690 Ry

     iteration # 12     ecut=    90.00 Ry     beta=0.70
     Davidson diagonalization with overlap
     ethr =  2.11E-07,  avg # of iterations =  1.0

     negative rho (up, down):  3.341E-07 0.000E+00

     total cpu time spent up to now is       10.8 secs

     total energy              =     -34.17172494 Ry
     Harris-Foulkes estimate   =     -34.17187945 Ry
     estimated scf accuracy    <       0.00001680 Ry

     iteration # 13     ecut=    90.00 Ry     beta=0.70
     Davidson diagonalization with overlap
     ethr =  2.10E-07,  avg # of iterations =  2.0

     negative rho (up, down):  1.683E-08 0.000E+00

     total cpu time spent up to now is       11.2 secs

     total energy              =     -34.17172764 Ry
     Harris-Foulkes estimate   =     -34.17172776 Ry
     estimated scf accuracy    <       0.00000037 Ry

     iteration # 14     ecut=    90.00 Ry     beta=0.70
     Davidson diagonalization with overlap
     ethr =  4.60E-09,  avg # of iterations =  1.0

     negative rho (up, down):  3.484E-07 0.000E+00

     total cpu time spent up to now is       11.6 secs

     total energy              =     -34.17172761 Ry
     Harris-Foulkes estimate   =     -34.17172765 Ry
     estimated scf accuracy    <       0.00000034 Ry

     iteration # 15     ecut=    90.00 Ry     beta=0.70
     Davidson diagonalization with overlap
     ethr =  4.30E-09,  avg # of iterations =  1.0

     negative rho (up, down):  3.981E-07 0.000E+00

     total cpu time spent up to now is       11.9 secs

     total energy              =     -34.17172756 Ry
     Harris-Foulkes estimate   =     -34.17172761 Ry
     estimated scf accuracy    <       0.00000046 Ry

     iteration # 16     ecut=    90.00 Ry     beta=0.70
     Davidson diagonalization with overlap
     ethr =  4.30E-09,  avg # of iterations =  2.0

     negative rho (up, down):  1.134E-07 0.000E+00

     total cpu time spent up to now is       12.3 secs

     total energy              =     -34.17172766 Ry
     Harris-Foulkes estimate   =     -34.17172764 Ry
     estimated scf accuracy    <       0.00000003 Ry

     iteration # 17     ecut=    90.00 Ry     beta=0.70
     Davidson diagonalization with overlap
     ethr =  3.88E-10,  avg # of iterations =  2.0

     total cpu time spent up to now is       12.6 secs

     total energy              =     -34.17172758 Ry
     Harris-Foulkes estimate   =     -34.17172766 Ry
     estimated scf accuracy    <       0.00000004 Ry

     iteration # 18     ecut=    90.00 Ry     beta=0.70
     Davidson diagonalization with overlap
     ethr =  3.88E-10,  avg # of iterations =  1.0

     total cpu time spent up to now is       13.1 secs

     total energy              =     -34.17172749 Ry
     Harris-Foulkes estimate   =     -34.17172758 Ry
     estimated scf accuracy    <       0.00000002 Ry

     iteration # 19     ecut=    90.00 Ry     beta=0.70
     Davidson diagonalization with overlap
     ethr =  3.11E-10,  avg # of iterations =  2.0

     total cpu time spent up to now is       13.4 secs

     End of self-consistent calculation

          k = 0.0000 0.0000 0.0000 (115313 PWs)   bands (ev):

   -24.9946 -12.8938  -8.9212  -7.0423  -1.0038   0.3893   0.7456   1.1191

     the Fermi energy is    -5.0692 ev

!    total energy              =     -34.17172747 Ry
     Harris-Foulkes estimate   =     -34.17172749 Ry
     estimated scf accuracy    <          8.2E-10 Ry

     The total energy is the sum of the following terms:

     one-electron contribution =     -63.49585841 Ry
     hartree contribution      =      33.18100315 Ry
     xc contribution           =      -8.34552619 Ry
     ewald contribution        =       4.48865398 Ry
     smearing contrib. (-TS)   =       0.00000000 Ry

     convergence has been achieved in  19 iterations

     Forces acting on atoms (Ry/au):

     atom    1 type  1   force =    -0.08341428   -0.00576549   -0.06036311
     atom    2 type  1   force =    -0.07633547   -0.01714928    0.06100599
     atom    3 type  2   force =     0.15974975    0.02291477   -0.00064288

     Total force =     0.215693     Total SCF correction =     0.000053

     number of scf cycles    =   2
     number of bfgs steps    =   1

     energy   old            =     -34.1628598632 Ry
     energy   new            =     -34.1717274734 Ry

     CASE: energy  _new < energy  _old

     new trust radius        =       0.0808494503 bohr
     new conv_thr            =       0.0000000089 Ry


ATOMIC_POSITIONS (angstrom)
H        0.682935600   0.012244869   0.670403857
H       -0.892831401  -0.143269165   0.465307590
O       -0.029138199   0.002940296  -0.009629447



     Writing output data file pwscf.save
     Check: negative starting charge=   -0.015933
     NEW-OLD atomic charge density approx. for the potential
     Check: negative starting charge=   -0.015964

     negative rho (up, down):  1.458E-02 0.000E+00

     total cpu time spent up to now is       14.4 secs

     per-process dynamical memory:    45.8 Mb

     Self-consistent Calculation

     iteration #  1     ecut=    90.00 Ry     beta=0.70
     Davidson diagonalization with overlap
     ethr =  1.00E-06,  avg # of iterations = 15.0

     negative rho (up, down):  3.777E-03 0.000E+00

     total cpu time spent up to now is       15.2 secs

     total energy              =     -34.17478126 Ry
     Harris-Foulkes estimate   =     -34.16096767 Ry
     estimated scf accuracy    <       0.00254890 Ry

     iteration #  2     ecut=    90.00 Ry     beta=0.70
     Davidson diagonalization with overlap
     ethr =  3.19E-05,  avg # of iterations =  7.0

     negative rho (up, down):  1.394E-03 0.000E+00

     total cpu time spent up to now is       15.6 secs

     total energy              =     -34.17795539 Ry
     Harris-Foulkes estimate   =     -34.17547434 Ry
     estimated scf accuracy    <       0.00019042 Ry

     iteration #  3     ecut=    90.00 Ry     beta=0.70
     Davidson diagonalization with overlap
     ethr =  2.38E-06,  avg # of iterations =  8.0

     negative rho (up, down):  4.523E-04 0.000E+00

     total cpu time spent up to now is       15.9 secs

     total energy              =     -34.17822734 Ry
     Harris-Foulkes estimate   =     -34.17802162 Ry
     estimated scf accuracy    <       0.00002871 Ry

     iteration #  4     ecut=    90.00 Ry     beta=0.70
     Davidson diagonalization with overlap
     ethr =  3.59E-07,  avg # of iterations =  5.0

     negative rho (up, down):  2.753E-05 0.000E+00

     total cpu time spent up to now is       16.3 secs

     total energy              =     -34.18231776 Ry
     Harris-Foulkes estimate   =     -34.18231799 Ry
     estimated scf accuracy    <       0.00001102 Ry

     iteration #  5     ecut=    90.00 Ry     beta=0.70
     Davidson diagonalization with overlap
     ethr =  1.38E-07,  avg # of iterations =  4.0

     negative rho (up, down):  3.382E-07 0.000E+00

     total cpu time spent up to now is       16.7 secs

     total energy              =     -34.18232021 Ry
     Harris-Foulkes estimate   =     -34.18232017 Ry
     estimated scf accuracy    <       0.00000004 Ry

     iteration #  6     ecut=    90.00 Ry     beta=0.70
     Davidson diagonalization with overlap
     ethr =  5.42E-10,  avg # of iterations =  3.0

     total cpu time spent up to now is       17.1 secs

     End of self-consistent calculation

          k = 0.0000 0.0000 0.0000 (115313 PWs)   bands (ev):

   -24.9314 -12.8426  -8.9666  -7.0409  -0.9731   0.4193   0.7310   1.1193

     the Fermi energy is    -5.0532 ev

!    total energy              =     -34.18232034 Ry
     Harris-Foulkes estimate   =     -34.18232026 Ry
     estimated scf accuracy    <          4.7E-09 Ry

     The total energy is the sum of the following terms:

     one-electron contribution =     -63.42018624 Ry
     hartree contribution      =      33.14333940 Ry
     xc contribution           =      -8.33760966 Ry
     ewald contribution        =       4.43213617 Ry
     smearing contrib. (-TS)   =       0.00000000 Ry

     convergence has been achieved in   6 iterations

     Forces acting on atoms (Ry/au):

     atom    1 type  1   force =    -0.01618451   -0.00158574    0.00139839
     atom    2 type  1   force =     0.03317170    0.00462218   -0.00481248
     atom    3 type  2   force =    -0.01698719   -0.00303644    0.00341409

     Total force =     0.041482     Total SCF correction =     0.000259

     number of scf cycles    =   3
     number of bfgs steps    =   2

     energy   old            =     -34.1717274734 Ry
     energy   new            =     -34.1823203376 Ry

     CASE: energy  _new < energy  _old

     new trust radius        =       0.0268581541 bohr
     new conv_thr            =       0.0000000033 Ry


ATOMIC_POSITIONS (angstrom)
H        0.671166026   0.011171913   0.668658119
H       -0.878718429  -0.141588633   0.465344352
O       -0.031481596   0.002332719  -0.007920472



     Writing output data file pwscf.save
     Check: negative starting charge=   -0.015964
     NEW-OLD atomic charge density approx. for the potential
     Check: negative starting charge=   -0.015978

     negative rho (up, down):  8.571E-04 0.000E+00

     total cpu time spent up to now is       18.0 secs

     per-process dynamical memory:    45.8 Mb

     Self-consistent Calculation

     iteration #  1     ecut=    90.00 Ry     beta=0.70
     Davidson diagonalization with overlap
     ethr =  1.00E-06,  avg # of iterations =  6.0

     negative rho (up, down):  2.079E-04 0.000E+00

     total cpu time spent up to now is       18.4 secs

     total energy              =     -34.18294787 Ry
     Harris-Foulkes estimate   =     -34.18314003 Ry
     estimated scf accuracy    <       0.00032617 Ry

     iteration #  2     ecut=    90.00 Ry     beta=0.70
     Davidson diagonalization with overlap
     ethr =  4.08E-06,  avg # of iterations =  2.0

     negative rho (up, down):  1.205E-04 0.000E+00

     total cpu time spent up to now is       18.7 secs

     total energy              =     -34.18301564 Ry
     Harris-Foulkes estimate   =     -34.18316620 Ry
     estimated scf accuracy    <       0.00031627 Ry

     iteration #  3     ecut=    90.00 Ry     beta=0.70
     Davidson diagonalization with overlap
     ethr =  3.95E-06,  avg # of iterations =  2.0

     negative rho (up, down):  1.282E-05 0.000E+00

     total cpu time spent up to now is       19.2 secs

     total energy              =     -34.18308212 Ry
     Harris-Foulkes estimate   =     -34.18308355 Ry
     estimated scf accuracy    <       0.00000297 Ry

     iteration #  4     ecut=    90.00 Ry     beta=0.70
     Davidson diagonalization with overlap
     ethr =  3.72E-08,  avg # of iterations =  3.0

     negative rho (up, down):  3.776E-07 0.000E+00

     total cpu time spent up to now is       19.5 secs

     total energy              =     -34.18308302 Ry
     Harris-Foulkes estimate   =     -34.18308301 Ry
     estimated scf accuracy    <       0.00000007 Ry

     iteration #  5     ecut=    90.00 Ry     beta=0.70
     Davidson diagonalization with overlap
     ethr =  8.36E-10,  avg # of iterations =  2.0

     total cpu time spent up to now is       19.8 secs

     End of self-consistent calculation

          k = 0.0000 0.0000 0.0000 (115313 PWs)   bands (ev):

   -25.0703 -12.9292  -9.0160  -7.0676  -0.9351   0.4311   0.7605   1.1210

     the Fermi energy is    -5.0867 ev

!    total energy              =     -34.18308298 Ry
     Harris-Foulkes estimate   =     -34.18308304 Ry
     estimated scf accuracy    <          3.3E-09 Ry

     The total energy is the sum of the following terms:

     one-electron contribution =     -63.70423131 Ry
     hartree contribution      =      33.27761322 Ry
     xc contribution           =      -8.35957008 Ry
     ewald contribution        =       4.60310519 Ry
     smearing contrib. (-TS)   =       0.00000000 Ry

     convergence has been achieved in   5 iterations

     Forces acting on atoms (Ry/au):

     atom    1 type  1   force =    -0.00132799   -0.00107886    0.01160124
     atom    2 type  1   force =     0.00750865    0.00048402    0.00612855
     atom    3 type  2   force =    -0.00618066    0.00059484   -0.01772979

     Total force =     0.024178     Total SCF correction =     0.000482

     number of scf cycles    =   4
     number of bfgs steps    =   3

     energy   old            =     -34.1823203376 Ry
     energy   new            =     -34.1830829779 Ry

     CASE: energy  _new < energy  _old

     new trust radius        =       0.0209890157 bohr
     new conv_thr            =       0.0000000008 Ry


ATOMIC_POSITIONS (angstrom)
H        0.663754858   0.009941287   0.674031470
H       -0.868614041  -0.140742605   0.469877451
O       -0.034174817   0.002717317  -0.017826921



     Writing output data file pwscf.save
     Check: negative starting charge=   -0.015978
     NEW-OLD atomic charge density approx. for the potential
     Check: negative starting charge=   -0.015983

     negative rho (up, down):  3.265E-03 0.000E+00

     total cpu time spent up to now is       20.6 secs

     per-process dynamical memory:    45.8 Mb

     Self-consistent Calculation

     iteration #  1     ecut=    90.00 Ry     beta=0.70
     Davidson diagonalization with overlap
     c_bands:  1 eigenvalues not converged
     ethr =  1.00E-06,  avg # of iterations = 20.0

     negative rho (up, down):  8.393E-04 0.000E+00

     total cpu time spent up to now is       21.3 secs

     total energy              =     -34.17936332 Ry
     Harris-Foulkes estimate   =     -34.17705316 Ry
     estimated scf accuracy    <       0.00007891 Ry

     iteration #  2     ecut=    90.00 Ry     beta=0.70
     Davidson diagonalization with overlap
     ethr =  9.86E-07,  avg # of iterations = 16.0

     negative rho (up, down):  3.820E-04 0.000E+00

     total cpu time spent up to now is       22.0 secs

     total energy              =     -34.18347824 Ry
     Harris-Foulkes estimate   =     -34.18347060 Ry
     estimated scf accuracy    <       0.00002512 Ry

     iteration #  3     ecut=    90.00 Ry     beta=0.70
     Davidson diagonalization with overlap
     ethr =  3.14E-07,  avg # of iterations =  3.0

     negative rho (up, down):  6.241E-05 0.000E+00

     total cpu time spent up to now is       22.4 secs

     total energy              =     -34.18349003 Ry
     Harris-Foulkes estimate   =     -34.18348774 Ry
     estimated scf accuracy    <       0.00000601 Ry

     iteration #  4     ecut=    90.00 Ry     beta=0.70
     Davidson diagonalization with overlap
     ethr =  7.51E-08,  avg # of iterations =  4.0

     negative rho (up, down):  5.958E-07 0.000E+00

     total cpu time spent up to now is       22.7 secs

     total energy              =     -34.18349308 Ry
     Harris-Foulkes estimate   =     -34.18349147 Ry
     estimated scf accuracy    <       0.00000011 Ry

     iteration #  5     ecut=    90.00 Ry     beta=0.70
     Davidson diagonalization with overlap
     ethr =  1.36E-09,  avg # of iterations =  2.0

     total cpu time spent up to now is       22.9 secs

     total energy              =     -34.18349337 Ry
     Harris-Foulkes estimate   =     -34.18349314 Ry
     estimated scf accuracy    <          2.4E-09 Ry

     iteration #  6     ecut=    90.00 Ry     beta=0.70
     Davidson diagonalization with overlap
     ethr =  3.00E-11,  avg # of iterations =  3.0

     total cpu time spent up to now is       23.1 secs

     End of self-consistent calculation

          k = 0.0000 0.0000 0.0000 (115313 PWs)   bands (ev):

   -25.0857 -12.8243  -9.1087  -7.0741  -0.9430   0.4276   0.7613   1.1214

     the Fermi energy is    -5.0903 ev

!    total energy              =     -34.18349342 Ry
     Harris-Foulkes estimate   =     -34.18349337 Ry
     estimated scf accuracy    <          1.5E-10 Ry

     The total energy is the sum of the following terms:

     one-electron contribution =     -63.67650614 Ry
     hartree contribution      =      33.26136800 Ry
     xc contribution           =      -8.35698032 Ry
     ewald contribution        =       4.58862503 Ry
     smearing contrib. (-TS)   =       0.00000000 Ry

     convergence has been achieved in   6 iterations

     Forces acting on atoms (Ry/au):

     atom    1 type  1   force =    -0.00603896   -0.00048774   -0.00078280
     atom    2 type  1   force =    -0.00307771   -0.00088996    0.00622448
     atom    3 type  2   force =     0.00911666    0.00137770   -0.00544167

     Total force =     0.014176     Total SCF correction =     0.000029

     number of scf cycles    =   5
     number of bfgs steps    =   4

     energy   old            =     -34.1830829779 Ry
     energy   new            =     -34.1834934228 Ry

     CASE: energy  _new < energy  _old

     new trust radius        =       0.0123334663 bohr
     new conv_thr            =       0.0000000004 Ry


ATOMIC_POSITIONS (angstrom)
H        0.657410637   0.009249802   0.675398611
H       -0.864270961  -0.140499478   0.473797910
O       -0.032173675   0.003165676  -0.023114521



     Writing output data file pwscf.save
     Check: negative starting charge=   -0.015983
     NEW-OLD atomic charge density approx. for the potential
     Check: negative starting charge=   -0.015988

     negative rho (up, down):  1.704E-03 0.000E+00

     total cpu time spent up to now is       23.6 secs

     per-process dynamical memory:    45.8 Mb

     Self-consistent Calculation

     iteration #  1     ecut=    90.00 Ry     beta=0.70
     Davidson diagonalization with overlap
     ethr =  1.00E-06,  avg # of iterations = 10.0

     negative rho (up, down):  4.315E-04 0.000E+00

     total cpu time spent up to now is       24.2 secs

     total energy              =     -34.17950624 Ry
     Harris-Foulkes estimate   =     -34.17909103 Ry
     estimated scf accuracy    <       0.00002178 Ry

     iteration #  2     ecut=    90.00 Ry     beta=0.70
     Davidson diagonalization with overlap
     ethr =  2.72E-07,  avg # of iterations =  8.0

     negative rho (up, down):  1.961E-04 0.000E+00

     total cpu time spent up to now is       24.6 secs

     total energy              =     -34.18359110 Ry
     Harris-Foulkes estimate   =     -34.18359231 Ry
     estimated scf accuracy    <       0.00000808 Ry

     iteration #  3     ecut=    90.00 Ry     beta=0.70
     Davidson diagonalization with overlap
     ethr =  1.01E-07,  avg # of iterations =  3.0

     negative rho (up, down):  1.612E-05 0.000E+00

     total cpu time spent up to now is       24.9 secs

     total energy              =     -34.18359747 Ry
     Harris-Foulkes estimate   =     -34.18359404 Ry
     estimated scf accuracy    <       0.00000174 Ry

     iteration #  4     ecut=    90.00 Ry     beta=0.70
     Davidson diagonalization with overlap
     ethr =  2.17E-08,  avg # of iterations =  3.0

     negative rho (up, down):  7.961E-08 0.000E+00

     total cpu time spent up to now is       25.1 secs

     total energy              =     -34.18359840 Ry
     Harris-Foulkes estimate   =     -34.18359787 Ry
     estimated scf accuracy    <       0.00000001 Ry

     iteration #  5     ecut=    90.00 Ry     beta=0.70
     Davidson diagonalization with overlap
     ethr =  1.75E-10,  avg # of iterations =  2.0

     total cpu time spent up to now is       25.3 secs

     total energy              =     -34.18359852 Ry
     Harris-Foulkes estimate   =     -34.18359841 Ry
     estimated scf accuracy    <          8.1E-10 Ry

     iteration #  6     ecut=    90.00 Ry     beta=0.70
     Davidson diagonalization with overlap
     ethr =  1.01E-11,  avg # of iterations =  2.0

     total cpu time spent up to now is       25.5 secs

     End of self-consistent calculation

          k = 0.0000 0.0000 0.0000 (115313 PWs)   bands (ev):

   -25.0978 -12.7633  -9.1646  -7.0784  -0.9472   0.4258   0.7624   1.1210

     the Fermi energy is    -5.0935 ev

!    total energy              =     -34.18359855 Ry
     Harris-Foulkes estimate   =     -34.18359852 Ry
     estimated scf accuracy    <          7.6E-11 Ry

     The total energy is the sum of the following terms:

     one-electron contribution =     -63.66579878 Ry
     hartree contribution      =      33.25447846 Ry
     xc contribution           =      -8.35585857 Ry
     ewald contribution        =       4.58358034 Ry
     smearing contrib. (-TS)   =       0.00000000 Ry

     convergence has been achieved in   6 iterations

     Forces acting on atoms (Ry/au):

     atom    1 type  1   force =    -0.00114553    0.00001241   -0.00060922
     atom    2 type  1   force =    -0.00120979   -0.00022065    0.00139732
     atom    3 type  2   force =     0.00235532    0.00020823   -0.00078810

     Total force =     0.003371     Total SCF correction =     0.000011

     number of scf cycles    =   6
     number of bfgs steps    =   5

     energy   old            =     -34.1834934228 Ry
     energy   new            =     -34.1835985459 Ry

     CASE: energy  _new < energy  _old

     new trust radius        =       0.0018941563 bohr
     new conv_thr            =       0.0000000001 Ry


ATOMIC_POSITIONS (angstrom)
H        0.656423870   0.009205280   0.675438307
H       -0.863864241  -0.140475422   0.474575417
O       -0.031593628   0.003186142  -0.023931724



     Writing output data file pwscf.save
     Check: negative starting charge=   -0.015988
     NEW-OLD atomic charge density approx. for the potential
     Check: negative starting charge=   -0.015989

     negative rho (up, down):  2.357E-04 0.000E+00

     total cpu time spent up to now is       26.0 secs

     per-process dynamical memory:    45.8 Mb

     Self-consistent Calculation

     iteration #  1     ecut=    90.00 Ry     beta=0.70
     Davidson diagonalization with overlap
     ethr =  1.00E-06,  avg # of iterations =  3.0

     Threshold (ethr) on eigenvalues was too large:
     Diagonalizing with lowered threshold

     Davidson diagonalization with overlap
     ethr =  1.25E-08,  avg # of iterations =  2.0

     negative rho (up, down):  4.983E-05 0.000E+00

     total cpu time spent up to now is       26.3 secs

     total energy              =     -34.18360075 Ry
     Harris-Foulkes estimate   =     -34.18359847 Ry
     estimated scf accuracy    <       0.00000094 Ry

     iteration #  2     ecut=    90.00 Ry     beta=0.70
     Davidson diagonalization with overlap
     ethr =  1.17E-08,  avg # of iterations =  2.0

     negative rho (up, down):  2.110E-05 0.000E+00

     total cpu time spent up to now is       26.5 secs

     total energy              =     -34.18360133 Ry
     Harris-Foulkes estimate   =     -34.18360117 Ry
     estimated scf accuracy    <       0.00000046 Ry

     iteration #  3     ecut=    90.00 Ry     beta=0.70
     Davidson diagonalization with overlap
     ethr =  5.69E-09,  avg # of iterations =  2.0

     negative rho (up, down):  1.202E-06 0.000E+00

     total cpu time spent up to now is       26.7 secs

     total energy              =     -34.18360200 Ry
     Harris-Foulkes estimate   =     -34.18360148 Ry
     estimated scf accuracy    <       0.00000005 Ry

     iteration #  4     ecut=    90.00 Ry     beta=0.70
     Davidson diagonalization with overlap
     ethr =  6.07E-10,  avg # of iterations =  2.0

     total cpu time spent up to now is       26.9 secs

     total energy              =     -34.18360207 Ry
     Harris-Foulkes estimate   =     -34.18360201 Ry
     estimated scf accuracy    <          7.6E-10 Ry

     iteration #  5     ecut=    90.00 Ry     beta=0.70
     Davidson diagonalization with overlap
     ethr =  9.56E-12,  avg # of iterations =  3.0

     total cpu time spent up to now is       27.3 secs

     End of self-consistent calculation

          k = 0.0000 0.0000 0.0000 (115313 PWs)   bands (ev):

   -25.0983 -12.7529  -9.1729  -7.0788  -0.9482   0.4255   0.7624   1.1210

     the Fermi energy is    -5.0937 ev

!    total energy              =     -34.18360207 Ry
     Harris-Foulkes estimate   =     -34.18360208 Ry
     estimated scf accuracy    <          5.8E-11 Ry

     The total energy is the sum of the following terms:

     one-electron contribution =     -63.66138235 Ry
     hartree contribution      =      33.25209821 Ry
     xc contribution           =      -8.35546765 Ry
     ewald contribution        =       4.58114971 Ry
     smearing contrib. (-TS)   =       0.00000000 Ry

     convergence has been achieved in   5 iterations

     Forces acting on atoms (Ry/au):

     atom    1 type  1   force =     0.00003449    0.00009345   -0.00016611
     atom    2 type  1   force =    -0.00001193    0.00003785    0.00011132
     atom    3 type  2   force =    -0.00002257   -0.00013130    0.00005479

     Total force =     0.000269     Total SCF correction =     0.000106
     SCF correction compared to forces is large: reduce conv_thr to get better values

     bfgs converged in   7 scf cycles and   6 bfgs steps
     (criteria: energy <  1.0E-04, force <  1.0E-03)

     End of BFGS Geometry Optimization

     Final energy   =     -34.1836020691 Ry
Begin final coordinates

ATOMIC_POSITIONS (angstrom)
H        0.656423870   0.009205280   0.675438307
H       -0.863864241  -0.140475422   0.474575417
O       -0.031593628   0.003186142  -0.023931724
End final coordinates



     Writing output data file pwscf.save
 
     init_run     :      0.80s CPU      0.91s WALL (       1 calls)
     electrons    :     18.86s CPU     22.81s WALL (       7 calls)
     update_pot   :      1.92s CPU      2.24s WALL (       6 calls)
     forces       :      0.63s CPU      0.66s WALL (       7 calls)

     Called by init_run:
     wfcinit      :      0.12s CPU      0.13s WALL (       1 calls)
     potinit      :      0.23s CPU      0.24s WALL (       1 calls)

     Called by electrons:
     c_bands      :      9.05s CPU      9.73s WALL (      56 calls)
     sum_band     :      1.81s CPU      2.12s WALL (      56 calls)
     v_of_rho     :      5.14s CPU      5.53s WALL (      62 calls)
     mix_rho      :      1.97s CPU      3.39s WALL (      56 calls)

     Called by c_bands:
     init_us_2    :      0.03s CPU      0.03s WALL (     113 calls)
     cegterg      :      8.98s CPU      9.57s WALL (      56 calls)

     Called by sum_band:

     Called by *egterg:
     h_psi        :      7.62s CPU      8.09s WALL (     313 calls)
     g_psi        :      0.04s CPU      0.04s WALL (     256 calls)
     cdiaghg      :      0.23s CPU      0.26s WALL (     305 calls)

     Called by h_psi:
     h_psi:pot    :      7.57s CPU      8.05s WALL (     313 calls)
     h_psi:calbec :      0.68s CPU      0.77s WALL (     313 calls)
     vloc_psi     :      6.85s CPU      7.24s WALL (     313 calls)
     add_vuspsi   :      0.03s CPU      0.04s WALL (     313 calls)

     General routines
     calbec       :      0.70s CPU      0.80s WALL (     341 calls)
     fft          :      4.50s CPU      4.92s WALL (     697 calls)
     fftw         :      7.25s CPU      7.80s WALL (    3584 calls)
     davcio       :      0.19s CPU      1.16s WALL (     528 calls)
 
     Parallel routines
     fft_scatter  :      7.53s CPU      8.48s WALL (    4281 calls)
 
     PWSCF        :    22.84s CPU        27.77s WALL

 
   This run was terminated on:   2:45:56  28Jul2018            

=------------------------------------------------------------------------------=
   JOB DONE.
=------------------------------------------------------------------------------=
