
     Program PWSCF v.6.0 (svn rev. 13079) starts on 28Jul2018 at  2:22:44 

     This program is part of the open-source Quantum ESPRESSO suite
     for quantum simulation of materials; please cite
         "P. Giannozzi et al., J. Phys.:Condens. Matter 21 395502 (2009);
          URL http://www.quantum-espresso.org", 
     in publications or presentations arising from this work. More details at
     http://www.quantum-espresso.org/quote

     Parallel version (MPI), running on    28 processors
     R & G space division:  proc/nbgrp/npool/nimage =      28
     Reading input from ../QMCmins/relax-25.in

     Current dimensions of program PWSCF are:
     Max number of different atomic species (ntypx) = 10
     Max number of k-points (npk) =  40000
     Max angular momentum in pseudopotentials (lmaxx) =  3
     Message from routine iosys:
     pot_extrapolation='second-order' not available, using 'atomic'
     Message from routine iosys:
     wfc_extrapolation='second-order' not available, using 'atomic'

     Subspace diagonalization in iterative solution of the eigenvalue problem:
     a serial algorithm will be used

 
     Parallelization info
     --------------------
     sticks:   dense  smooth     PW     G-vecs:    dense   smooth      PW
     Min         408     408    102                32936    32936    4116
     Max         409     409    103                32943    32943    4121
     Sum       11449   11449   2869               922329   922329  115313
 


     bravais-lattice index     =            1
     lattice parameter (alat)  =      20.0000  a.u.
     unit-cell volume          =    8000.0000 (a.u.)^3
     number of atoms/cell      =            3
     number of atomic types    =            2
     number of electrons       =         8.00
     number of Kohn-Sham states=            8
     kinetic-energy cutoff     =      90.0000  Ry
     charge density cutoff     =     360.0000  Ry
     convergence threshold     =      1.0E-08
     mixing beta               =       0.7000
     number of iterations used =            8  plain     mixing
     Exchange-correlation      = BLYP ( 1  3  1  3 0 0)
     nstep                     =           50


     celldm(1)=  20.000000  celldm(2)=   0.000000  celldm(3)=   0.000000
     celldm(4)=   0.000000  celldm(5)=   0.000000  celldm(6)=   0.000000

     crystal axes: (cart. coord. in units of alat)
               a(1) = (   1.000000   0.000000   0.000000 )  
               a(2) = (   0.000000   1.000000   0.000000 )  
               a(3) = (   0.000000   0.000000   1.000000 )  

     reciprocal axes: (cart. coord. in units 2 pi/alat)
               b(1) = (  1.000000  0.000000  0.000000 )  
               b(2) = (  0.000000  1.000000  0.000000 )  
               b(3) = (  0.000000  0.000000  1.000000 )  


     PseudoPot. # 1 for  H read from file:
     ../H.blyp-hgh.UPF
     MD5 check sum: c576e69559cde411e611be972c763230
     Pseudo is Norm-conserving, Zval =  1.0
     Generated in analytical, separable form
     Using radial grid of  929 points,  0 beta functions with: 

     PseudoPot. # 2 for  O read from file:
     ../O.blyp-hgh.UPF
     MD5 check sum: d0b7156309aa9befef28faac7bc56342
     Pseudo is Norm-conserving, Zval =  6.0
     Generated in analytical, separable form
     Using radial grid of 1095 points,  1 beta functions with: 
                l(1) =   0

     atomic species   valence    mass     pseudopotential
        H              1.00     1.01000      H( 1.00)
        O              6.00    16.00000      O( 1.00)

     No symmetry found



   Cartesian axes

     site n.     atom                  positions (alat units)
         1           H   tau(   1) = (   0.0397893  -0.0686698  -0.0367808  )
         2           H   tau(   2) = (  -0.0498445   0.0579128  -0.0364943  )
         3           O   tau(   3) = (   0.0006348   0.0006791   0.0102035  )

     number of k points=     1  Marzari-Vanderbilt smearing, width (Ry)=  0.0250
                       cart. coord. in units 2pi/alat
        k(    1) = (   0.0000000   0.0000000   0.0000000), wk =   2.0000000

     Dense  grid:   922329 G-vectors     FFT dimensions: ( 125, 125, 125)

     Estimated max dynamical RAM per process >      31.67Mb

     Estimated total allocated dynamical RAM >     886.64Mb

     Initial potential from superposition of free atoms
     Check: negative starting charge=   -0.015922

     starting charge    7.99998, renormalised to    8.00000

     negative rho (up, down):  1.592E-02 0.000E+00
     Starting wfc are    6 randomized atomic wfcs +    2 random wfc

     total cpu time spent up to now is        0.7 secs

     per-process dynamical memory:    33.5 Mb

     Self-consistent Calculation

     iteration #  1     ecut=    90.00 Ry     beta=0.70
     Davidson diagonalization with overlap
     ethr =  1.00E-02,  avg # of iterations =  8.0

     negative rho (up, down):  4.632E-03 0.000E+00

     total cpu time spent up to now is        1.0 secs

     total energy              =     -34.01341983 Ry
     Harris-Foulkes estimate   =     -34.27169279 Ry
     estimated scf accuracy    <       0.38453306 Ry

     iteration #  2     ecut=    90.00 Ry     beta=0.70
     Davidson diagonalization with overlap
     ethr =  4.81E-03,  avg # of iterations =  2.0

     negative rho (up, down):  2.806E-03 0.000E+00

     total cpu time spent up to now is        1.2 secs

     total energy              =     -34.08038856 Ry
     Harris-Foulkes estimate   =     -34.27319681 Ry
     estimated scf accuracy    <       0.41108447 Ry

     iteration #  3     ecut=    90.00 Ry     beta=0.70
     Davidson diagonalization with overlap
     ethr =  4.81E-03,  avg # of iterations =  2.0

     negative rho (up, down):  1.982E-04 0.000E+00

     total cpu time spent up to now is        1.6 secs

     total energy              =     -34.17259422 Ry
     Harris-Foulkes estimate   =     -34.17348277 Ry
     estimated scf accuracy    <       0.00584447 Ry

     iteration #  4     ecut=    90.00 Ry     beta=0.70
     Davidson diagonalization with overlap
     ethr =  7.31E-05,  avg # of iterations =  7.0

     negative rho (up, down):  3.668E-06 0.000E+00

     total cpu time spent up to now is        1.9 secs

     total energy              =     -34.17425502 Ry
     Harris-Foulkes estimate   =     -34.17440145 Ry
     estimated scf accuracy    <       0.00037454 Ry

     iteration #  5     ecut=    90.00 Ry     beta=0.70
     Davidson diagonalization with overlap
     ethr =  4.68E-06,  avg # of iterations =  4.0

     negative rho (up, down):  1.914E-06 0.000E+00

     total cpu time spent up to now is        2.1 secs

     total energy              =     -34.17427667 Ry
     Harris-Foulkes estimate   =     -34.17428399 Ry
     estimated scf accuracy    <       0.00002499 Ry

     iteration #  6     ecut=    90.00 Ry     beta=0.70
     Davidson diagonalization with overlap
     ethr =  3.12E-07,  avg # of iterations =  7.0

     negative rho (up, down):  1.091E-07 0.000E+00

     total cpu time spent up to now is        2.3 secs

     total energy              =     -34.17427993 Ry
     Harris-Foulkes estimate   =     -34.17428115 Ry
     estimated scf accuracy    <       0.00000092 Ry

     iteration #  7     ecut=    90.00 Ry     beta=0.70
     Davidson diagonalization with overlap
     ethr =  1.15E-08,  avg # of iterations =  2.0

     total cpu time spent up to now is        2.6 secs

     total energy              =     -34.17427970 Ry
     Harris-Foulkes estimate   =     -34.17428010 Ry
     estimated scf accuracy    <       0.00000005 Ry

     iteration #  8     ecut=    90.00 Ry     beta=0.70
     Davidson diagonalization with overlap
     ethr =  5.88E-10,  avg # of iterations =  2.0

     total cpu time spent up to now is        2.8 secs

     total energy              =     -34.17427952 Ry
     Harris-Foulkes estimate   =     -34.17427971 Ry
     estimated scf accuracy    <       0.00000002 Ry

     iteration #  9     ecut=    90.00 Ry     beta=0.70
     Davidson diagonalization with overlap
     ethr =  2.68E-10,  avg # of iterations =  2.0

     total cpu time spent up to now is        2.9 secs

     End of self-consistent calculation

          k = 0.0000 0.0000 0.0000 (115313 PWs)   bands (ev):

   -25.0757 -13.5225  -8.5534  -7.0502  -0.8847   0.4477   0.7574   1.1423

     the Fermi energy is    -5.0721 ev

!    total energy              =     -34.17427951 Ry
     Harris-Foulkes estimate   =     -34.17427952 Ry
     estimated scf accuracy    <          3.3E-10 Ry

     The total energy is the sum of the following terms:

     one-electron contribution =     -64.01782778 Ry
     hartree contribution      =      33.44265940 Ry
     xc contribution           =      -8.38537563 Ry
     ewald contribution        =       4.78626449 Ry
     smearing contrib. (-TS)   =       0.00000000 Ry

     convergence has been achieved in   9 iterations

     Forces acting on atoms (Ry/au):

     atom    1 type  1   force =    -0.01736561    0.01886517   -0.02201156
     atom    2 type  1   force =    -0.02639171    0.02064866   -0.05857135
     atom    3 type  2   force =     0.04375731   -0.03951383    0.08058292

     Total force =     0.125160     Total SCF correction =     0.000048

     BFGS Geometry Optimization

     number of scf cycles    =   1
     number of bfgs steps    =   0

     energy   new            =     -34.1742795127 Ry

     new trust radius        =       0.0998481442 bohr
     new conv_thr            =       0.0000000100 Ry


ATOMIC_POSITIONS (angstrom)
H        0.411922517  -0.716786982  -0.400919017
H       -0.541496890   0.623849802  -0.417233626
O        0.029873373  -0.013722820   0.150631643



     Writing output data file pwscf.save
     Check: negative starting charge=   -0.015922
     NEW-OLD atomic charge density approx. for the potential
     Check: negative starting charge=   -0.015920

     negative rho (up, down):  1.759E-02 0.000E+00

     total cpu time spent up to now is        3.6 secs

     per-process dynamical memory:    45.8 Mb

     Self-consistent Calculation

     iteration #  1     ecut=    90.00 Ry     beta=0.70
     Davidson diagonalization with overlap
     ethr =  1.00E-06,  avg # of iterations = 18.0

     negative rho (up, down):  4.559E-03 0.000E+00

     total cpu time spent up to now is        4.1 secs

     total energy              =     -34.16650149 Ry
     Harris-Foulkes estimate   =     -34.15016778 Ry
     estimated scf accuracy    <       0.00538943 Ry

     iteration #  2     ecut=    90.00 Ry     beta=0.70
     Davidson diagonalization with overlap
     ethr =  6.74E-05,  avg # of iterations =  5.0

     negative rho (up, down):  2.740E-03 0.000E+00

     total cpu time spent up to now is        4.4 secs

     total energy              =     -34.17030157 Ry
     Harris-Foulkes estimate   =     -34.16969128 Ry
     estimated scf accuracy    <       0.00415923 Ry

     iteration #  3     ecut=    90.00 Ry     beta=0.70
     Davidson diagonalization with overlap
     ethr =  5.20E-05,  avg # of iterations =  4.0

     negative rho (up, down):  7.920E-04 0.000E+00

     total cpu time spent up to now is        4.6 secs

     total energy              =     -34.17295696 Ry
     Harris-Foulkes estimate   =     -34.17130953 Ry
     estimated scf accuracy    <       0.00012650 Ry

     iteration #  4     ecut=    90.00 Ry     beta=0.70
     Davidson diagonalization with overlap
     ethr =  1.58E-06,  avg # of iterations = 19.0

     negative rho (up, down):  4.004E-05 0.000E+00

     total cpu time spent up to now is        4.9 secs

     total energy              =     -34.17708713 Ry
     Harris-Foulkes estimate   =     -34.17706677 Ry
     estimated scf accuracy    <       0.00000327 Ry

     iteration #  5     ecut=    90.00 Ry     beta=0.70
     Davidson diagonalization with overlap
     ethr =  4.08E-08,  avg # of iterations =  4.0

     total cpu time spent up to now is        5.1 secs

     total energy              =     -34.17708856 Ry
     Harris-Foulkes estimate   =     -34.17708837 Ry
     estimated scf accuracy    <       0.00000006 Ry

     iteration #  6     ecut=    90.00 Ry     beta=0.70
     Davidson diagonalization with overlap
     ethr =  7.68E-10,  avg # of iterations =  2.0

     total cpu time spent up to now is        5.3 secs

     End of self-consistent calculation

          k = 0.0000 0.0000 0.0000 (115313 PWs)   bands (ev):

   -24.8010 -12.9016  -8.7900  -7.0068  -1.0096   0.4013   0.6960   1.1383

     the Fermi energy is    -5.0064 ev

!    total energy              =     -34.17708861 Ry
     Harris-Foulkes estimate   =     -34.17708859 Ry
     estimated scf accuracy    <          4.1E-09 Ry

     The total energy is the sum of the following terms:

     one-electron contribution =     -63.21092329 Ry
     hartree contribution      =      33.04971898 Ry
     xc contribution           =      -8.32240172 Ry
     ewald contribution        =       4.30651741 Ry
     smearing contrib. (-TS)   =       0.00000000 Ry

     convergence has been achieved in   6 iterations

     Forces acting on atoms (Ry/au):

     atom    1 type  1   force =    -0.00515118    0.00038426   -0.02441996
     atom    2 type  1   force =     0.05027266   -0.06203616    0.02905297
     atom    3 type  2   force =    -0.04512148    0.06165190   -0.00463301

     Total force =     0.117052     Total SCF correction =     0.000035

     number of scf cycles    =   2
     number of bfgs steps    =   1

     energy   old            =     -34.1742795127 Ry
     energy   new            =     -34.1770886108 Ry

     CASE: energy  _new < energy  _old

     new trust radius        =       0.0440867043 bohr
     new conv_thr            =       0.0000000028 Ry


ATOMIC_POSITIONS (angstrom)
H        0.407893240  -0.714200642  -0.412173924
H       -0.527655509   0.605219053  -0.414870300
O        0.020061269   0.002321589   0.159523224



     Writing output data file pwscf.save
     Check: negative starting charge=   -0.015920
     NEW-OLD atomic charge density approx. for the potential
     Check: negative starting charge=   -0.015960

     negative rho (up, down):  7.115E-03 0.000E+00

     total cpu time spent up to now is        6.0 secs

     per-process dynamical memory:    45.8 Mb

     Self-consistent Calculation

     iteration #  1     ecut=    90.00 Ry     beta=0.70
     Davidson diagonalization with overlap
     c_bands:  1 eigenvalues not converged
     ethr =  1.00E-06,  avg # of iterations = 20.0

     negative rho (up, down):  1.844E-03 0.000E+00

     total cpu time spent up to now is        6.5 secs

     total energy              =     -34.17653437 Ry
     Harris-Foulkes estimate   =     -34.16968063 Ry
     estimated scf accuracy    <       0.00054151 Ry

     iteration #  2     ecut=    90.00 Ry     beta=0.70
     Davidson diagonalization with overlap
     ethr =  6.77E-06,  avg # of iterations = 15.0

     negative rho (up, down):  6.417E-04 0.000E+00

     total cpu time spent up to now is        6.8 secs

     total energy              =     -34.17720268 Ry
     Harris-Foulkes estimate   =     -34.17669414 Ry
     estimated scf accuracy    <       0.00003846 Ry

     iteration #  3     ecut=    90.00 Ry     beta=0.70
     Davidson diagonalization with overlap
     ethr =  4.81E-07,  avg # of iterations = 14.0

     negative rho (up, down):  9.707E-05 0.000E+00

     total cpu time spent up to now is        7.1 secs

     total energy              =     -34.18130165 Ry
     Harris-Foulkes estimate   =     -34.18129111 Ry
     estimated scf accuracy    <       0.00000346 Ry

     iteration #  4     ecut=    90.00 Ry     beta=0.70
     Davidson diagonalization with overlap
     ethr =  4.32E-08,  avg # of iterations =  4.0

     negative rho (up, down):  6.226E-06 0.000E+00

     total cpu time spent up to now is        7.3 secs

     total energy              =     -34.18130432 Ry
     Harris-Foulkes estimate   =     -34.18130352 Ry
     estimated scf accuracy    <       0.00000194 Ry

     iteration #  5     ecut=    90.00 Ry     beta=0.70
     Davidson diagonalization with overlap
     ethr =  2.42E-08,  avg # of iterations =  3.0

     negative rho (up, down):  2.495E-08 0.000E+00

     total cpu time spent up to now is        7.5 secs

     total energy              =     -34.18130474 Ry
     Harris-Foulkes estimate   =     -34.18130477 Ry
     estimated scf accuracy    <       0.00000002 Ry

     iteration #  6     ecut=    90.00 Ry     beta=0.70
     Davidson diagonalization with overlap
     ethr =  2.80E-10,  avg # of iterations =  2.0

     total cpu time spent up to now is        7.7 secs

     End of self-consistent calculation

          k = 0.0000 0.0000 0.0000 (115313 PWs)   bands (ev):

   -24.8562 -12.8454  -8.9001  -7.0223  -0.9874   0.4149   0.7052   1.1399

     the Fermi energy is    -5.0190 ev

!    total energy              =     -34.18130479 Ry
     Harris-Foulkes estimate   =     -34.18130476 Ry
     estimated scf accuracy    <          7.8E-10 Ry

     The total energy is the sum of the following terms:

     one-electron contribution =     -63.29028098 Ry
     hartree contribution      =      33.08345165 Ry
     xc contribution           =      -8.32759188 Ry
     ewald contribution        =       4.35311642 Ry
     smearing contrib. (-TS)   =       0.00000000 Ry

     convergence has been achieved in   6 iterations

     Forces acting on atoms (Ry/au):

     atom    1 type  1   force =    -0.01828245    0.02910589    0.00500557
     atom    2 type  1   force =     0.02235336   -0.02795275    0.00644519
     atom    3 type  2   force =    -0.00407091   -0.00115314   -0.01145076

     Total force =     0.051750     Total SCF correction =     0.000095

     number of scf cycles    =   3
     number of bfgs steps    =   2

     energy   old            =     -34.1770886108 Ry
     energy   new            =     -34.1813047907 Ry

     CASE: energy  _new < energy  _old

     new trust radius        =       0.0577821707 bohr
     new conv_thr            =       0.0000000029 Ry


ATOMIC_POSITIONS (angstrom)
H        0.392757513  -0.691937963  -0.413848926
H       -0.509186092   0.580900200  -0.413312286
O        0.016727579   0.004377763   0.159640212



     Writing output data file pwscf.save
     Check: negative starting charge=   -0.015960
     NEW-OLD atomic charge density approx. for the potential
     Check: negative starting charge=   -0.015983

     negative rho (up, down):  1.262E-03 0.000E+00

     total cpu time spent up to now is        8.3 secs

     per-process dynamical memory:    45.8 Mb

     Self-consistent Calculation

     iteration #  1     ecut=    90.00 Ry     beta=0.70
     Davidson diagonalization with overlap
     ethr =  1.00E-06,  avg # of iterations =  8.0

     negative rho (up, down):  3.043E-04 0.000E+00

     total cpu time spent up to now is        8.6 secs

     total energy              =     -34.18242793 Ry
     Harris-Foulkes estimate   =     -34.18301626 Ry
     estimated scf accuracy    <       0.00114331 Ry

     iteration #  2     ecut=    90.00 Ry     beta=0.70
     Davidson diagonalization with overlap
     ethr =  1.43E-05,  avg # of iterations =  3.0

     negative rho (up, down):  1.762E-04 0.000E+00

     total cpu time spent up to now is        8.8 secs

     total energy              =     -34.17856896 Ry
     Harris-Foulkes estimate   =     -34.17907418 Ry
     estimated scf accuracy    <       0.00103784 Ry

     iteration #  3     ecut=    90.00 Ry     beta=0.70
     Davidson diagonalization with overlap
     ethr =  1.30E-05,  avg # of iterations =  2.0

     negative rho (up, down):  1.826E-05 0.000E+00

     total cpu time spent up to now is        9.0 secs

     total energy              =     -34.18287699 Ry
     Harris-Foulkes estimate   =     -34.18287574 Ry
     estimated scf accuracy    <       0.00001358 Ry

     iteration #  4     ecut=    90.00 Ry     beta=0.70
     Davidson diagonalization with overlap
     ethr =  1.70E-07,  avg # of iterations =  4.0

     negative rho (up, down):  5.018E-07 0.000E+00

     total cpu time spent up to now is        9.2 secs

     total energy              =     -34.18288111 Ry
     Harris-Foulkes estimate   =     -34.18288037 Ry
     estimated scf accuracy    <       0.00000024 Ry

     iteration #  5     ecut=    90.00 Ry     beta=0.70
     Davidson diagonalization with overlap
     ethr =  2.95E-09,  avg # of iterations =  2.0

     total cpu time spent up to now is        9.4 secs

     total energy              =     -34.18288135 Ry
     Harris-Foulkes estimate   =     -34.18288115 Ry
     estimated scf accuracy    <       0.00000001 Ry

     iteration #  6     ecut=    90.00 Ry     beta=0.70
     Davidson diagonalization with overlap
     ethr =  1.48E-10,  avg # of iterations =  2.0

     total cpu time spent up to now is        9.6 secs

     End of self-consistent calculation

          k = 0.0000 0.0000 0.0000 (115313 PWs)   bands (ev):

   -25.1343 -12.9760  -9.0327  -7.0773  -0.9170   0.4366   0.7629   1.1468

     the Fermi energy is    -5.0833 ev

!    total energy              =     -34.18288138 Ry
     Harris-Foulkes estimate   =     -34.18288136 Ry
     estimated scf accuracy    <          8.0E-10 Ry

     The total energy is the sum of the following terms:

     one-electron contribution =     -63.83361329 Ry
     hartree contribution      =      33.33868450 Ry
     xc contribution           =      -8.36946419 Ry
     ewald contribution        =       4.68151159 Ry
     smearing contrib. (-TS)   =       0.00000000 Ry

     convergence has been achieved in   6 iterations

     Forces acting on atoms (Ry/au):

     atom    1 type  1   force =    -0.00114026    0.00179613   -0.00866101
     atom    2 type  1   force =    -0.00897502    0.00954559   -0.01983460
     atom    3 type  2   force =     0.01011528   -0.01134172    0.02849561

     Total force =     0.041080     Total SCF correction =     0.000091

     number of scf cycles    =   4
     number of bfgs steps    =   3

     energy   old            =     -34.1813047907 Ry
     energy   new            =     -34.1828813771 Ry

     CASE: energy  _new < energy  _old

     new trust radius        =       0.0277822293 bohr
     new conv_thr            =       0.0000000016 Ry


ATOMIC_POSITIONS (angstrom)
H        0.388315869  -0.686097150  -0.420505367
H       -0.506368915   0.576094400  -0.421230841
O        0.018352047   0.003342750   0.174215208



     Writing output data file pwscf.save
     Check: negative starting charge=   -0.015983
     NEW-OLD atomic charge density approx. for the potential
     Check: negative starting charge=   -0.015996

     negative rho (up, down):  4.767E-03 0.000E+00

     total cpu time spent up to now is       10.2 secs

     per-process dynamical memory:    45.8 Mb

     Self-consistent Calculation

     iteration #  1     ecut=    90.00 Ry     beta=0.70
     Davidson diagonalization with overlap
     ethr =  1.00E-06,  avg # of iterations = 19.0

     negative rho (up, down):  1.232E-03 0.000E+00

     total cpu time spent up to now is       10.6 secs

     total energy              =     -34.17921402 Ry
     Harris-Foulkes estimate   =     -34.17489098 Ry
     estimated scf accuracy    <       0.00026864 Ry

     iteration #  2     ecut=    90.00 Ry     beta=0.70
     Davidson diagonalization with overlap
     ethr =  3.36E-06,  avg # of iterations = 16.0

     negative rho (up, down):  7.435E-04 0.000E+00

     total cpu time spent up to now is       11.0 secs

     total energy              =     -34.18347784 Ry
     Harris-Foulkes estimate   =     -34.18346557 Ry
     estimated scf accuracy    <       0.00023330 Ry

     iteration #  3     ecut=    90.00 Ry     beta=0.70
     Davidson diagonalization with overlap
     ethr =  2.92E-06,  avg # of iterations =  4.0

     negative rho (up, down):  7.753E-05 0.000E+00

     total cpu time spent up to now is       11.2 secs

     total energy              =     -34.18354737 Ry
     Harris-Foulkes estimate   =     -34.18353149 Ry
     estimated scf accuracy    <       0.00000468 Ry

     iteration #  4     ecut=    90.00 Ry     beta=0.70
     Davidson diagonalization with overlap
     ethr =  5.85E-08,  avg # of iterations =  4.0

     negative rho (up, down):  2.117E-06 0.000E+00

     total cpu time spent up to now is       11.5 secs

     total energy              =     -34.18355112 Ry
     Harris-Foulkes estimate   =     -34.18354918 Ry
     estimated scf accuracy    <       0.00000008 Ry

     iteration #  5     ecut=    90.00 Ry     beta=0.70
     Davidson diagonalization with overlap
     ethr =  1.03E-09,  avg # of iterations =  3.0

     total cpu time spent up to now is       11.7 secs

     total energy              =     -34.18355124 Ry
     Harris-Foulkes estimate   =     -34.18355117 Ry
     estimated scf accuracy    <          4.2E-09 Ry

     iteration #  6     ecut=    90.00 Ry     beta=0.70
     Davidson diagonalization with overlap
     ethr =  5.31E-11,  avg # of iterations =  2.0

     total cpu time spent up to now is       11.8 secs

     End of self-consistent calculation

          k = 0.0000 0.0000 0.0000 (115313 PWs)   bands (ev):

   -25.0904 -12.7846  -9.1431  -7.0734  -0.9448   0.4267   0.7521   1.1474

     the Fermi energy is    -5.0719 ev

!    total energy              =     -34.18355128 Ry
     Harris-Foulkes estimate   =     -34.18355124 Ry
     estimated scf accuracy    <          1.9E-10 Ry

     The total energy is the sum of the following terms:

     one-electron contribution =     -63.66061211 Ry
     hartree contribution      =      33.25254345 Ry
     xc contribution           =      -8.35542188 Ry
     ewald contribution        =       4.57993926 Ry
     smearing contrib. (-TS)   =       0.00000000 Ry

     convergence has been achieved in   6 iterations

     Forces acting on atoms (Ry/au):

     atom    1 type  1   force =    -0.00001835    0.00522935    0.00110235
     atom    2 type  1   force =     0.00084895    0.00249495   -0.00373071
     atom    3 type  2   force =    -0.00083061   -0.00772431    0.00262835

     Total force =     0.010802     Total SCF correction =     0.000039

     number of scf cycles    =   5
     number of bfgs steps    =   4

     energy   old            =     -34.1828813771 Ry
     energy   new            =     -34.1835512806 Ry

     CASE: energy  _new < energy  _old

     new trust radius        =       0.0093071506 bohr
     new conv_thr            =       0.0000000007 Ry


ATOMIC_POSITIONS (angstrom)
H        0.387432527  -0.681974745  -0.421647000
H       -0.503737924   0.574802733  -0.423720952
O        0.016604397   0.000512012   0.177846952



     Writing output data file pwscf.save
     Check: negative starting charge=   -0.015996
     NEW-OLD atomic charge density approx. for the potential
     Check: negative starting charge=   -0.015999

     negative rho (up, down):  1.466E-03 0.000E+00

     total cpu time spent up to now is       12.4 secs

     per-process dynamical memory:    45.8 Mb

     Self-consistent Calculation

     iteration #  1     ecut=    90.00 Ry     beta=0.70
     Davidson diagonalization with overlap
     ethr =  1.00E-06,  avg # of iterations = 19.0

     negative rho (up, down):  3.686E-04 0.000E+00

     total cpu time spent up to now is       12.8 secs

     total energy              =     -34.17954776 Ry
     Harris-Foulkes estimate   =     -34.17934687 Ry
     estimated scf accuracy    <       0.00001575 Ry

     iteration #  2     ecut=    90.00 Ry     beta=0.70
     Davidson diagonalization with overlap
     ethr =  1.97E-07,  avg # of iterations =  5.0

     negative rho (up, down):  1.211E-04 0.000E+00

     total cpu time spent up to now is       13.7 secs

     total energy              =     -34.18362971 Ry
     Harris-Foulkes estimate   =     -34.18363038 Ry
     estimated scf accuracy    <       0.00000303 Ry

     iteration #  3     ecut=    90.00 Ry     beta=0.70
     Davidson diagonalization with overlap
     ethr =  3.79E-08,  avg # of iterations =  7.0

     negative rho (up, down):  1.460E-05 0.000E+00

     total cpu time spent up to now is       13.9 secs

     total energy              =     -34.18363293 Ry
     Harris-Foulkes estimate   =     -34.18363112 Ry
     estimated scf accuracy    <       0.00000137 Ry

     iteration #  4     ecut=    90.00 Ry     beta=0.70
     Davidson diagonalization with overlap
     ethr =  1.71E-08,  avg # of iterations =  2.0

     negative rho (up, down):  3.259E-08 0.000E+00

     total cpu time spent up to now is       14.1 secs

     total energy              =     -34.18363362 Ry
     Harris-Foulkes estimate   =     -34.18363327 Ry
     estimated scf accuracy    <       0.00000002 Ry

     iteration #  5     ecut=    90.00 Ry     beta=0.70
     Davidson diagonalization with overlap
     ethr =  2.81E-10,  avg # of iterations =  2.0

     total cpu time spent up to now is       14.2 secs

     End of self-consistent calculation

          k = 0.0000 0.0000 0.0000 (115313 PWs)   bands (ev):

   -25.0979 -12.7497  -9.1750  -7.0767  -0.9469   0.4260   0.7533   1.1333

     the Fermi energy is    -5.0844 ev

!    total energy              =     -34.18363367 Ry
     Harris-Foulkes estimate   =     -34.18363364 Ry
     estimated scf accuracy    <          6.5E-10 Ry

     The total energy is the sum of the following terms:

     one-electron contribution =     -63.65643126 Ry
     hartree contribution      =      33.24953100 Ry
     xc contribution           =      -8.35499316 Ry
     ewald contribution        =       4.57825975 Ry
     smearing contrib. (-TS)   =       0.00000000 Ry

     convergence has been achieved in   5 iterations

     Forces acting on atoms (Ry/au):

     atom    1 type  1   force =     0.00300398    0.00167280    0.00083327
     atom    2 type  1   force =     0.00306983    0.00134987    0.00058778
     atom    3 type  2   force =    -0.00607381   -0.00302267   -0.00142105

     Total force =     0.008494     Total SCF correction =     0.000220

     number of scf cycles    =   6
     number of bfgs steps    =   5

     energy   old            =     -34.1835512806 Ry
     energy   new            =     -34.1836336670 Ry

     CASE: energy  _new < energy  _old

     new trust radius        =       0.0171029897 bohr
     new conv_thr            =            1.0E-10 Ry


ATOMIC_POSITIONS (angstrom)
H        0.389255574  -0.676945252  -0.422329979
H       -0.499339771   0.575432091  -0.426382499
O        0.010383197  -0.005146839   0.181191477



     Writing output data file pwscf.save
     Check: negative starting charge=   -0.015999
     NEW-OLD atomic charge density approx. for the potential
     Check: negative starting charge=   -0.016002

     negative rho (up, down):  2.857E-03 0.000E+00

     total cpu time spent up to now is       14.8 secs

     per-process dynamical memory:    45.8 Mb

     Self-consistent Calculation

     iteration #  1     ecut=    90.00 Ry     beta=0.70
     Davidson diagonalization with overlap
     ethr =  1.00E-06,  avg # of iterations = 12.0

     negative rho (up, down):  7.317E-04 0.000E+00

     total cpu time spent up to now is       15.1 secs

     total energy              =     -34.17962247 Ry
     Harris-Foulkes estimate   =     -34.17789215 Ry
     estimated scf accuracy    <       0.00004677 Ry

     iteration #  2     ecut=    90.00 Ry     beta=0.70
     Davidson diagonalization with overlap
     ethr =  5.85E-07,  avg # of iterations = 13.0

     negative rho (up, down):  9.009E-05 0.000E+00

     total cpu time spent up to now is       15.4 secs

     total energy              =     -34.18372980 Ry
     Harris-Foulkes estimate   =     -34.18371173 Ry
     estimated scf accuracy    <       0.00000284 Ry

     iteration #  3     ecut=    90.00 Ry     beta=0.70
     Davidson diagonalization with overlap
     ethr =  3.55E-08,  avg # of iterations =  4.0

     negative rho (up, down):  3.621E-06 0.000E+00

     total cpu time spent up to now is       15.6 secs

     total energy              =     -34.18373270 Ry
     Harris-Foulkes estimate   =     -34.18373084 Ry
     estimated scf accuracy    <       0.00000020 Ry

     iteration #  4     ecut=    90.00 Ry     beta=0.70
     Davidson diagonalization with overlap
     ethr =  2.45E-09,  avg # of iterations =  3.0

     total cpu time spent up to now is       15.8 secs

     total energy              =     -34.18373295 Ry
     Harris-Foulkes estimate   =     -34.18373282 Ry
     estimated scf accuracy    <       0.00000007 Ry

     iteration #  5     ecut=    90.00 Ry     beta=0.70
     Davidson diagonalization with overlap
     ethr =  9.36E-10,  avg # of iterations =  2.0

     total cpu time spent up to now is       16.0 secs

     total energy              =     -34.18373301 Ry
     Harris-Foulkes estimate   =     -34.18373297 Ry
     estimated scf accuracy    <          1.8E-09 Ry

     iteration #  6     ecut=    90.00 Ry     beta=0.70
     Davidson diagonalization with overlap
     ethr =  2.26E-11,  avg # of iterations =  2.0

     total cpu time spent up to now is       16.2 secs

     End of self-consistent calculation

          k = 0.0000 0.0000 0.0000 (115313 PWs)   bands (ev):

   -25.1055 -12.7262  -9.1982  -7.0811  -0.9477   0.4254   0.7546   1.1324

     the Fermi energy is    -5.0869 ev

!    total energy              =     -34.18373301 Ry
     Harris-Foulkes estimate   =     -34.18373302 Ry
     estimated scf accuracy    <          3.8E-11 Ry

     The total energy is the sum of the following terms:

     one-electron contribution =     -63.65934205 Ry
     hartree contribution      =      33.25028154 Ry
     xc contribution           =      -8.35528034 Ry
     ewald contribution        =       4.58060784 Ry
     smearing contrib. (-TS)   =       0.00000000 Ry

     convergence has been achieved in   6 iterations

     Forces acting on atoms (Ry/au):

     atom    1 type  1   force =     0.00512180   -0.00346782    0.00132445
     atom    2 type  1   force =     0.00416091   -0.00127275    0.00536934
     atom    3 type  2   force =    -0.00928271    0.00474058   -0.00669379

     Total force =     0.015531     Total SCF correction =     0.000037

     number of scf cycles    =   7
     number of bfgs steps    =   6

     energy   old            =     -34.1836336670 Ry
     energy   new            =     -34.1837330103 Ry

     CASE: energy  _new < energy  _old

     new trust radius        =       0.0120400813 bohr
     new conv_thr            =            1.0E-10 Ry


ATOMIC_POSITIONS (angstrom)
H        0.392828041  -0.676217944  -0.420992585
H       -0.497507260   0.577894207  -0.426620933
O        0.004978218  -0.008336263   0.180092518



     Writing output data file pwscf.save
     Check: negative starting charge=   -0.016002
     NEW-OLD atomic charge density approx. for the potential
     Check: negative starting charge=   -0.016001

     negative rho (up, down):  1.923E-03 0.000E+00

     total cpu time spent up to now is       16.7 secs

     per-process dynamical memory:    45.8 Mb

     Self-consistent Calculation

     iteration #  1     ecut=    90.00 Ry     beta=0.70
     Davidson diagonalization with overlap
     ethr =  1.00E-06,  avg # of iterations = 16.0

     negative rho (up, down):  4.879E-04 0.000E+00

     total cpu time spent up to now is       17.1 secs

     total energy              =     -34.17970382 Ry
     Harris-Foulkes estimate   =     -34.17910263 Ry
     estimated scf accuracy    <       0.00002421 Ry

     iteration #  2     ecut=    90.00 Ry     beta=0.70
     Davidson diagonalization with overlap
     ethr =  3.03E-07,  avg # of iterations = 13.0

     negative rho (up, down):  1.676E-04 0.000E+00

     total cpu time spent up to now is       17.4 secs

     total energy              =     -34.18379161 Ry
     Harris-Foulkes estimate   =     -34.18378946 Ry
     estimated scf accuracy    <       0.00000518 Ry

     iteration #  3     ecut=    90.00 Ry     beta=0.70
     Davidson diagonalization with overlap
     ethr =  6.48E-08,  avg # of iterations =  3.0

     negative rho (up, down):  1.460E-05 0.000E+00

     total cpu time spent up to now is       17.6 secs

     total energy              =     -34.18379659 Ry
     Harris-Foulkes estimate   =     -34.18379415 Ry
     estimated scf accuracy    <       0.00000243 Ry

     iteration #  4     ecut=    90.00 Ry     beta=0.70
     Davidson diagonalization with overlap
     ethr =  3.04E-08,  avg # of iterations =  2.0

     total cpu time spent up to now is       17.8 secs

     total energy              =     -34.18379725 Ry
     Harris-Foulkes estimate   =     -34.18379716 Ry
     estimated scf accuracy    <       0.00000002 Ry

     iteration #  5     ecut=    90.00 Ry     beta=0.70
     Davidson diagonalization with overlap
     ethr =  1.91E-10,  avg # of iterations =  2.0

     total cpu time spent up to now is       18.0 secs

     total energy              =     -34.18379729 Ry
     Harris-Foulkes estimate   =     -34.18379727 Ry
     estimated scf accuracy    <          1.1E-09 Ry

     iteration #  6     ecut=    90.00 Ry     beta=0.70
     Davidson diagonalization with overlap
     ethr =  1.33E-11,  avg # of iterations =  2.0

     total cpu time spent up to now is       18.3 secs

     total energy              =     -34.18379728 Ry
     Harris-Foulkes estimate   =     -34.18379729 Ry
     estimated scf accuracy    <          1.9E-10 Ry

     iteration #  7     ecut=    90.00 Ry     beta=0.70
     Davidson diagonalization with overlap
     ethr =  2.33E-12,  avg # of iterations =  2.0

     total cpu time spent up to now is       18.5 secs

     End of self-consistent calculation

          k = 0.0000 0.0000 0.0000 (115313 PWs)   bands (ev):

   -25.1074 -12.7496  -9.1824  -7.0810  -0.9445   0.4266   0.7556   1.1360

     the Fermi energy is    -5.0847 ev

!    total energy              =     -34.18379729 Ry
     Harris-Foulkes estimate   =     -34.18379728 Ry
     estimated scf accuracy    <          6.3E-12 Ry

     The total energy is the sum of the following terms:

     one-electron contribution =     -63.67553072 Ry
     hartree contribution      =      33.25859374 Ry
     xc contribution           =      -8.35670315 Ry
     ewald contribution        =       4.58984285 Ry
     smearing contrib. (-TS)   =       0.00000000 Ry

     convergence has been achieved in   7 iterations

     Forces acting on atoms (Ry/au):

     atom    1 type  1   force =     0.00279282   -0.00599735    0.00055654
     atom    2 type  1   force =     0.00147974   -0.00332620    0.00433591
     atom    3 type  2   force =    -0.00427256    0.00932355   -0.00489245

     Total force =     0.014327     Total SCF correction =     0.000005

     number of scf cycles    =   8
     number of bfgs steps    =   7

     energy   old            =     -34.1837330103 Ry
     energy   new            =     -34.1837972865 Ry

     CASE: energy  _new < energy  _old

     new trust radius        =       0.0100771235 bohr
     new conv_thr            =            1.0E-10 Ry


ATOMIC_POSITIONS (angstrom)
H        0.395346259  -0.680284188  -0.418634472
H       -0.499438979   0.579785226  -0.424761936
O        0.004391720  -0.006161039   0.175875409



     Writing output data file pwscf.save
     Check: negative starting charge=   -0.016001
     NEW-OLD atomic charge density approx. for the potential
     Check: negative starting charge=   -0.015997

     negative rho (up, down):  1.410E-03 0.000E+00

     total cpu time spent up to now is       19.1 secs

     per-process dynamical memory:    45.8 Mb

     Self-consistent Calculation

     iteration #  1     ecut=    90.00 Ry     beta=0.70
     Davidson diagonalization with overlap
     c_bands:  1 eigenvalues not converged
     ethr =  1.00E-06,  avg # of iterations = 20.0

     negative rho (up, down):  3.554E-04 0.000E+00

     total cpu time spent up to now is       19.5 secs

     total energy              =     -34.17979138 Ry
     Harris-Foulkes estimate   =     -34.17959878 Ry
     estimated scf accuracy    <       0.00001780 Ry

     iteration #  2     ecut=    90.00 Ry     beta=0.70
     Davidson diagonalization with overlap
     ethr =  2.22E-07,  avg # of iterations =  5.0

     negative rho (up, down):  1.741E-04 0.000E+00

     total cpu time spent up to now is       19.8 secs

     total energy              =     -34.18387742 Ry
     Harris-Foulkes estimate   =     -34.18387736 Ry
     estimated scf accuracy    <       0.00000796 Ry

     iteration #  3     ecut=    90.00 Ry     beta=0.70
     Davidson diagonalization with overlap
     ethr =  9.95E-08,  avg # of iterations =  9.0

     negative rho (up, down):  2.095E-05 0.000E+00

     total cpu time spent up to now is       20.1 secs

     total energy              =     -34.18387883 Ry
     Harris-Foulkes estimate   =     -34.18387993 Ry
     estimated scf accuracy    <       0.00000100 Ry

     iteration #  4     ecut=    90.00 Ry     beta=0.70
     Davidson diagonalization with overlap
     ethr =  1.25E-08,  avg # of iterations =  2.0

     negative rho (up, down):  3.612E-08 0.000E+00

     total cpu time spent up to now is       20.3 secs

     total energy              =     -34.18387847 Ry
     Harris-Foulkes estimate   =     -34.18387910 Ry
     estimated scf accuracy    <       0.00000001 Ry

     iteration #  5     ecut=    90.00 Ry     beta=0.70
     Davidson diagonalization with overlap
     ethr =  1.85E-10,  avg # of iterations =  2.0

     total cpu time spent up to now is       20.5 secs

     total energy              =     -34.18387842 Ry
     Harris-Foulkes estimate   =     -34.18387849 Ry
     estimated scf accuracy    <          5.4E-10 Ry

     iteration #  6     ecut=    90.00 Ry     beta=0.70
     Davidson diagonalization with overlap
     ethr =  6.75E-12,  avg # of iterations =  2.0

     total cpu time spent up to now is       20.6 secs

     End of self-consistent calculation

          k = 0.0000 0.0000 0.0000 (115313 PWs)   bands (ev):

   -25.1013 -12.7972  -9.1425  -7.0783  -0.9403   0.4283   0.7553   1.1367

     the Fermi energy is    -5.0826 ev

!    total energy              =     -34.18387841 Ry
     Harris-Foulkes estimate   =     -34.18387842 Ry
     estimated scf accuracy    <          7.1E-11 Ry

     The total energy is the sum of the following terms:

     one-electron contribution =     -63.69080957 Ry
     hartree contribution      =      33.26723388 Ry
     xc contribution           =      -8.35821055 Ry
     ewald contribution        =       4.59790783 Ry
     smearing contrib. (-TS)   =       0.00000000 Ry

     convergence has been achieved in   6 iterations

     Forces acting on atoms (Ry/au):

     atom    1 type  1   force =     0.00086424   -0.00232076   -0.00010997
     atom    2 type  1   force =     0.00002308   -0.00147370   -0.00189496
     atom    3 type  2   force =    -0.00088733    0.00379447    0.00200492

     Total force =     0.005578     Total SCF correction =     0.000009

     number of scf cycles    =   9
     number of bfgs steps    =   8

     energy   old            =     -34.1837972865 Ry
     energy   new            =     -34.1838784075 Ry

     CASE: energy  _new < energy  _old

     new trust radius        =       0.0033551639 bohr
     new conv_thr            =            1.0E-10 Ry


ATOMIC_POSITIONS (angstrom)
H        0.395491143  -0.681103344  -0.418178376
H       -0.499481939   0.578907470  -0.425730298
O        0.004289796  -0.004464126   0.176387674



     Writing output data file pwscf.save
     Check: negative starting charge=   -0.015997
     NEW-OLD atomic charge density approx. for the potential
     Check: negative starting charge=   -0.015998

     negative rho (up, down):  4.573E-04 0.000E+00

     total cpu time spent up to now is       21.3 secs

     per-process dynamical memory:    45.8 Mb

     Self-consistent Calculation

     iteration #  1     ecut=    90.00 Ry     beta=0.70
     Davidson diagonalization with overlap
     ethr =  1.00E-06,  avg # of iterations =  3.0

     Threshold (ethr) on eigenvalues was too large:
     Diagonalizing with lowered threshold

     Davidson diagonalization with overlap
     ethr =  4.44E-08,  avg # of iterations =  1.0

     negative rho (up, down):  1.063E-04 0.000E+00

     total cpu time spent up to now is       21.8 secs

     total energy              =     -34.18388823 Ry
     Harris-Foulkes estimate   =     -34.18388711 Ry
     estimated scf accuracy    <       0.00000347 Ry

     iteration #  2     ecut=    90.00 Ry     beta=0.70
     Davidson diagonalization with overlap
     ethr =  4.34E-08,  avg # of iterations =  3.0

     negative rho (up, down):  4.502E-05 0.000E+00

     total cpu time spent up to now is       22.0 secs

     total energy              =     -34.18389006 Ry
     Harris-Foulkes estimate   =     -34.18388966 Ry
     estimated scf accuracy    <       0.00000116 Ry

     iteration #  3     ecut=    90.00 Ry     beta=0.70
     Davidson diagonalization with overlap
     ethr =  1.45E-08,  avg # of iterations =  2.0

     negative rho (up, down):  8.687E-06 0.000E+00

     total cpu time spent up to now is       22.1 secs

     total energy              =     -34.18389102 Ry
     Harris-Foulkes estimate   =     -34.18389047 Ry
     estimated scf accuracy    <       0.00000020 Ry

     iteration #  4     ecut=    90.00 Ry     beta=0.70
     Davidson diagonalization with overlap
     ethr =  2.51E-09,  avg # of iterations =  2.0

     total cpu time spent up to now is       22.3 secs

     total energy              =     -34.18389119 Ry
     Harris-Foulkes estimate   =     -34.18389108 Ry
     estimated scf accuracy    <          4.2E-09 Ry

     iteration #  5     ecut=    90.00 Ry     beta=0.70
     Davidson diagonalization with overlap
     ethr =  5.30E-11,  avg # of iterations =  2.0

     total cpu time spent up to now is       22.5 secs

     total energy              =     -34.18389124 Ry
     Harris-Foulkes estimate   =     -34.18389120 Ry
     estimated scf accuracy    <          2.0E-10 Ry

     iteration #  6     ecut=    90.00 Ry     beta=0.70
     Davidson diagonalization with overlap
     ethr =  2.55E-12,  avg # of iterations =  2.0

     total cpu time spent up to now is       22.7 secs

     End of self-consistent calculation

          k = 0.0000 0.0000 0.0000 (115313 PWs)   bands (ev):

   -25.0961 -12.7879  -9.1456  -7.0776  -0.9422   0.4276   0.7540   1.1364

     the Fermi energy is    -5.0816 ev

!    total energy              =     -34.18389123 Ry
     Harris-Foulkes estimate   =     -34.18389124 Ry
     estimated scf accuracy    <          3.0E-11 Ry

     The total energy is the sum of the following terms:

     one-electron contribution =     -63.67749439 Ry
     hartree contribution      =      33.26081042 Ry
     xc contribution           =      -8.35718215 Ry
     ewald contribution        =       4.58997488 Ry
     smearing contrib. (-TS)   =       0.00000000 Ry

     convergence has been achieved in   6 iterations

     Forces acting on atoms (Ry/au):

     atom    1 type  1   force =    -0.00013754    0.00079226    0.00242693
     atom    2 type  1   force =    -0.00044325    0.00023123   -0.00233220
     atom    3 type  2   force =     0.00058079   -0.00102349   -0.00009473

     Total force =     0.003690     Total SCF correction =     0.000009

     number of scf cycles    =  10
     number of bfgs steps    =   9

     energy   old            =     -34.1838784075 Ry
     energy   new            =     -34.1838912333 Ry

     CASE: energy  _new < energy  _old

     new trust radius        =       0.0030360764 bohr
     new conv_thr            =            1.0E-10 Ry


ATOMIC_POSITIONS (angstrom)
H        0.395957654  -0.681439641  -0.416678207
H       -0.499533966   0.578680097  -0.427187052
O        0.003875311  -0.003900456   0.176344259



     Writing output data file pwscf.save
     Check: negative starting charge=   -0.015998
     NEW-OLD atomic charge density approx. for the potential
     Check: negative starting charge=   -0.015998

     negative rho (up, down):  1.545E-04 0.000E+00

     total cpu time spent up to now is       23.3 secs

     per-process dynamical memory:    45.8 Mb

     Self-consistent Calculation

     iteration #  1     ecut=    90.00 Ry     beta=0.70
     Davidson diagonalization with overlap
     ethr =  1.00E-06,  avg # of iterations =  3.0

     Threshold (ethr) on eigenvalues was too large:
     Diagonalizing with lowered threshold

     Davidson diagonalization with overlap
     ethr =  7.58E-09,  avg # of iterations =  2.0

     negative rho (up, down):  3.025E-05 0.000E+00

     total cpu time spent up to now is       23.9 secs

     total energy              =     -34.18390152 Ry
     Harris-Foulkes estimate   =     -34.18390067 Ry
     estimated scf accuracy    <       0.00000074 Ry

     iteration #  2     ecut=    90.00 Ry     beta=0.70
     Davidson diagonalization with overlap
     ethr =  9.26E-09,  avg # of iterations =  2.0

     negative rho (up, down):  3.190E-06 0.000E+00

     total cpu time spent up to now is       24.1 secs

     total energy              =     -34.18390161 Ry
     Harris-Foulkes estimate   =     -34.18390164 Ry
     estimated scf accuracy    <       0.00000007 Ry

     iteration #  3     ecut=    90.00 Ry     beta=0.70
     Davidson diagonalization with overlap
     ethr =  8.51E-10,  avg # of iterations =  2.0

     negative rho (up, down):  1.523E-07 0.000E+00

     total cpu time spent up to now is       24.2 secs

     total energy              =     -34.18390169 Ry
     Harris-Foulkes estimate   =     -34.18390165 Ry
     estimated scf accuracy    <       0.00000003 Ry

     iteration #  4     ecut=    90.00 Ry     beta=0.70
     Davidson diagonalization with overlap
     ethr =  4.26E-10,  avg # of iterations =  2.0

     total cpu time spent up to now is       24.4 secs

     total energy              =     -34.18390167 Ry
     Harris-Foulkes estimate   =     -34.18390170 Ry
     estimated scf accuracy    <          2.0E-09 Ry

     iteration #  5     ecut=    90.00 Ry     beta=0.70
     Davidson diagonalization with overlap
     ethr =  2.47E-11,  avg # of iterations =  2.0

     total cpu time spent up to now is       24.6 secs

     End of self-consistent calculation

          k = 0.0000 0.0000 0.0000 (115313 PWs)   bands (ev):

   -25.0942 -12.7878  -9.1444  -7.0772  -0.9425   0.4274   0.7536   1.1362

     the Fermi energy is    -5.0813 ev

!    total energy              =     -34.18390167 Ry
     Harris-Foulkes estimate   =     -34.18390167 Ry
     estimated scf accuracy    <          2.6E-11 Ry

     The total energy is the sum of the following terms:

     one-electron contribution =     -63.67448909 Ry
     hartree contribution      =      33.25941476 Ry
     xc contribution           =      -8.35696316 Ry
     ewald contribution        =       4.58813582 Ry
     smearing contrib. (-TS)   =       0.00000000 Ry

     convergence has been achieved in   5 iterations

     Forces acting on atoms (Ry/au):

     atom    1 type  1   force =    -0.00037255    0.00110371    0.00239449
     atom    2 type  1   force =    -0.00035893    0.00013909   -0.00214663
     atom    3 type  2   force =     0.00073148   -0.00124279   -0.00024786

     Total force =     0.003740     Total SCF correction =     0.000018

     number of scf cycles    =  11
     number of bfgs steps    =  10

     energy   old            =     -34.1838912333 Ry
     energy   new            =     -34.1839016675 Ry

     CASE: energy  _new < energy  _old


     WARNING: bfgs curvature condition failed, Theta= 0.908
     new trust radius        =       0.0033396841 bohr
     new conv_thr            =            1.0E-10 Ry


ATOMIC_POSITIONS (angstrom)
H        0.396325449  -0.681621345  -0.414971642
H       -0.499505638   0.578269128  -0.428905656
O        0.003479189  -0.003307783   0.176356298



     Writing output data file pwscf.save
     Check: negative starting charge=   -0.015998
     NEW-OLD atomic charge density approx. for the potential
     Check: negative starting charge=   -0.015998

     negative rho (up, down):  1.580E-04 0.000E+00

     total cpu time spent up to now is       25.2 secs

     per-process dynamical memory:    45.8 Mb

     Self-consistent Calculation

     iteration #  1     ecut=    90.00 Ry     beta=0.70
     Davidson diagonalization with overlap
     ethr =  1.00E-06,  avg # of iterations =  3.0

     Threshold (ethr) on eigenvalues was too large:
     Diagonalizing with lowered threshold

     Davidson diagonalization with overlap
     ethr =  8.78E-09,  avg # of iterations =  2.0

     negative rho (up, down):  3.109E-05 0.000E+00

     total cpu time spent up to now is       25.6 secs

     total energy              =     -34.18391268 Ry
     Harris-Foulkes estimate   =     -34.18391144 Ry
     estimated scf accuracy    <       0.00000085 Ry

     iteration #  2     ecut=    90.00 Ry     beta=0.70
     Davidson diagonalization with overlap
     ethr =  1.06E-08,  avg # of iterations =  2.0

     negative rho (up, down):  1.352E-06 0.000E+00

     total cpu time spent up to now is       25.8 secs

     total energy              =     -34.18391288 Ry
     Harris-Foulkes estimate   =     -34.18391279 Ry
     estimated scf accuracy    <       0.00000005 Ry

     iteration #  3     ecut=    90.00 Ry     beta=0.70
     Davidson diagonalization with overlap
     ethr =  6.86E-10,  avg # of iterations =  2.0

     negative rho (up, down):  1.674E-08 0.000E+00

     total cpu time spent up to now is       26.0 secs

     total energy              =     -34.18391293 Ry
     Harris-Foulkes estimate   =     -34.18391290 Ry
     estimated scf accuracy    <          7.1E-09 Ry

     iteration #  4     ecut=    90.00 Ry     beta=0.70
     Davidson diagonalization with overlap
     ethr =  8.89E-11,  avg # of iterations =  2.0

     total cpu time spent up to now is       26.2 secs

     total energy              =     -34.18391293 Ry
     Harris-Foulkes estimate   =     -34.18391294 Ry
     estimated scf accuracy    <          2.4E-09 Ry

     iteration #  5     ecut=    90.00 Ry     beta=0.70
     Davidson diagonalization with overlap
     ethr =  2.94E-11,  avg # of iterations =  2.0

     total cpu time spent up to now is       26.4 secs

     End of self-consistent calculation

          k = 0.0000 0.0000 0.0000 (115313 PWs)   bands (ev):

   -25.0937 -12.7875  -9.1444  -7.0771  -0.9426   0.4274   0.7535   1.1361

     the Fermi energy is    -5.0812 ev

!    total energy              =     -34.18391293 Ry
     Harris-Foulkes estimate   =     -34.18391293 Ry
     estimated scf accuracy    <          2.3E-11 Ry

     The total energy is the sum of the following terms:

     one-electron contribution =     -63.67365238 Ry
     hartree contribution      =      33.25900644 Ry
     xc contribution           =      -8.35690368 Ry
     ewald contribution        =       4.58763669 Ry
     smearing contrib. (-TS)   =       0.00000000 Ry

     convergence has been achieved in   5 iterations

     Forces acting on atoms (Ry/au):

     atom    1 type  1   force =    -0.00040118    0.00111292    0.00215771
     atom    2 type  1   force =    -0.00026725    0.00008874   -0.00186273
     atom    3 type  2   force =     0.00066843   -0.00120165   -0.00029499

     Total force =     0.003403     Total SCF correction =     0.000016

     number of scf cycles    =  12
     number of bfgs steps    =  11

     energy   old            =     -34.1839016675 Ry
     energy   new            =     -34.1839129256 Ry

     CASE: energy  _new < energy  _old

     new trust radius        =       0.0050095261 bohr
     new conv_thr            =            1.0E-10 Ry


ATOMIC_POSITIONS (angstrom)
H        0.396798054  -0.681756971  -0.412463902
H       -0.499383167   0.577584133  -0.431463623
O        0.002884113  -0.002487162   0.176406525



     Writing output data file pwscf.save
     Check: negative starting charge=   -0.015998
     NEW-OLD atomic charge density approx. for the potential
     Check: negative starting charge=   -0.015998

     negative rho (up, down):  2.433E-04 0.000E+00

     total cpu time spent up to now is       27.1 secs

     per-process dynamical memory:    45.8 Mb

     Self-consistent Calculation

     iteration #  1     ecut=    90.00 Ry     beta=0.70
     Davidson diagonalization with overlap
     ethr =  1.00E-06,  avg # of iterations =  3.0

     Threshold (ethr) on eigenvalues was too large:
     Diagonalizing with lowered threshold

     Davidson diagonalization with overlap
     ethr =  2.20E-08,  avg # of iterations =  1.0

     negative rho (up, down):  5.195E-05 0.000E+00

     total cpu time spent up to now is       27.5 secs

     total energy              =     -34.18392639 Ry
     Harris-Foulkes estimate   =     -34.18392456 Ry
     estimated scf accuracy    <       0.00000182 Ry

     iteration #  2     ecut=    90.00 Ry     beta=0.70
     Davidson diagonalization with overlap
     ethr =  2.27E-08,  avg # of iterations =  2.0

     negative rho (up, down):  2.466E-06 0.000E+00

     total cpu time spent up to now is       27.7 secs

     total energy              =     -34.18392693 Ry
     Harris-Foulkes estimate   =     -34.18392658 Ry
     estimated scf accuracy    <       0.00000011 Ry

     iteration #  3     ecut=    90.00 Ry     beta=0.70
     Davidson diagonalization with overlap
     ethr =  1.34E-09,  avg # of iterations =  3.0

     total cpu time spent up to now is       27.9 secs

     total energy              =     -34.18392695 Ry
     Harris-Foulkes estimate   =     -34.18392696 Ry
     estimated scf accuracy    <          4.2E-09 Ry

     iteration #  4     ecut=    90.00 Ry     beta=0.70
     Davidson diagonalization with overlap
     ethr =  5.24E-11,  avg # of iterations =  2.0

     total cpu time spent up to now is       28.1 secs

     total energy              =     -34.18392694 Ry
     Harris-Foulkes estimate   =     -34.18392695 Ry
     estimated scf accuracy    <          2.9E-10 Ry

     iteration #  5     ecut=    90.00 Ry     beta=0.70
     Davidson diagonalization with overlap
     ethr =  3.61E-12,  avg # of iterations =  2.0

     total cpu time spent up to now is       28.2 secs

     End of self-consistent calculation

          k = 0.0000 0.0000 0.0000 (115313 PWs)   bands (ev):

   -25.0941 -12.7871  -9.1452  -7.0772  -0.9426   0.4274   0.7536   1.1359

     the Fermi energy is    -5.0815 ev

!    total energy              =     -34.18392693 Ry
     Harris-Foulkes estimate   =     -34.18392694 Ry
     estimated scf accuracy    <          7.2E-11 Ry

     The total energy is the sum of the following terms:

     one-electron contribution =     -63.67417293 Ry
     hartree contribution      =      33.25927648 Ry
     xc contribution           =      -8.35695806 Ry
     ewald contribution        =       4.58792759 Ry
     smearing contrib. (-TS)   =       0.00000000 Ry

     convergence has been achieved in   5 iterations

     Forces acting on atoms (Ry/au):

     atom    1 type  1   force =    -0.00035761    0.00092168    0.00168783
     atom    2 type  1   force =    -0.00019871    0.00004963   -0.00145266
     atom    3 type  2   force =     0.00055632   -0.00097131   -0.00023517

     Total force =     0.002699     Total SCF correction =     0.000010

     number of scf cycles    =  13
     number of bfgs steps    =  12

     energy   old            =     -34.1839129256 Ry
     energy   new            =     -34.1839269296 Ry

     CASE: energy  _new < energy  _old

     new trust radius        =       0.0075142892 bohr
     new conv_thr            =            1.0E-10 Ry


ATOMIC_POSITIONS (angstrom)
H        0.397430445  -0.681885468  -0.408758702
H       -0.499167144   0.576502436  -0.435283956
O        0.002035699  -0.001276968   0.176521658



     Writing output data file pwscf.save
     Check: negative starting charge=   -0.015998
     NEW-OLD atomic charge density approx. for the potential
     Check: negative starting charge=   -0.015999

     negative rho (up, down):  3.810E-04 0.000E+00

     total cpu time spent up to now is       28.8 secs

     per-process dynamical memory:    45.8 Mb

     Self-consistent Calculation

     iteration #  1     ecut=    90.00 Ry     beta=0.70
     Davidson diagonalization with overlap
     ethr =  1.00E-06,  avg # of iterations =  3.0

     Threshold (ethr) on eigenvalues was too large:
     Diagonalizing with lowered threshold

     Davidson diagonalization with overlap
     ethr =  4.85E-08,  avg # of iterations =  1.0

     negative rho (up, down):  8.672E-05 0.000E+00

     total cpu time spent up to now is       29.3 secs

     total energy              =     -34.18393989 Ry
     Harris-Foulkes estimate   =     -34.18393738 Ry
     estimated scf accuracy    <       0.00000399 Ry

     iteration #  2     ecut=    90.00 Ry     beta=0.70
     Davidson diagonalization with overlap
     ethr =  4.99E-08,  avg # of iterations =  2.0

     negative rho (up, down):  4.653E-06 0.000E+00

     total cpu time spent up to now is       29.5 secs

     total energy              =     -34.18394122 Ry
     Harris-Foulkes estimate   =     -34.18394027 Ry
     estimated scf accuracy    <       0.00000024 Ry

     iteration #  3     ecut=    90.00 Ry     beta=0.70
     Davidson diagonalization with overlap
     ethr =  2.94E-09,  avg # of iterations =  3.0

     total cpu time spent up to now is       29.7 secs

     total energy              =     -34.18394139 Ry
     Harris-Foulkes estimate   =     -34.18394127 Ry
     estimated scf accuracy    <          7.6E-09 Ry

     iteration #  4     ecut=    90.00 Ry     beta=0.70
     Davidson diagonalization with overlap
     ethr =  9.47E-11,  avg # of iterations =  2.0

     total cpu time spent up to now is       29.9 secs

     total energy              =     -34.18394141 Ry
     Harris-Foulkes estimate   =     -34.18394140 Ry
     estimated scf accuracy    <          3.2E-10 Ry

     iteration #  5     ecut=    90.00 Ry     beta=0.70
     Davidson diagonalization with overlap
     ethr =  3.99E-12,  avg # of iterations =  2.0

     total cpu time spent up to now is       30.0 secs

     End of self-consistent calculation

          k = 0.0000 0.0000 0.0000 (115313 PWs)   bands (ev):

   -25.0949 -12.7858  -9.1469  -7.0774  -0.9425   0.4274   0.7538   1.1357

     the Fermi energy is    -5.0818 ev

!    total energy              =     -34.18394138 Ry
     Harris-Foulkes estimate   =     -34.18394141 Ry
     estimated scf accuracy    <          8.4E-11 Ry

     The total energy is the sum of the following terms:

     one-electron contribution =     -63.67513930 Ry
     hartree contribution      =      33.25963470 Ry
     xc contribution           =      -8.35702274 Ry
     ewald contribution        =       4.58858595 Ry
     smearing contrib. (-TS)   =       0.00000000 Ry

     convergence has been achieved in   5 iterations

     Forces acting on atoms (Ry/au):

     atom    1 type  1   force =    -0.00020485    0.00052321    0.00091496
     atom    2 type  1   force =    -0.00007722   -0.00001006   -0.00083641
     atom    3 type  2   force =     0.00028207   -0.00051315   -0.00007855

     Total force =     0.001486     Total SCF correction =     0.000017

     bfgs converged in  14 scf cycles and  13 bfgs steps
     (criteria: energy <  1.0E-04, force <  1.0E-03)

     End of BFGS Geometry Optimization

     Final energy   =     -34.1839413845 Ry
Begin final coordinates

ATOMIC_POSITIONS (angstrom)
H        0.397430445  -0.681885468  -0.408758702
H       -0.499167144   0.576502436  -0.435283956
O        0.002035699  -0.001276968   0.176521658
End final coordinates



     Writing output data file pwscf.save
 
     init_run     :      0.51s CPU      0.55s WALL (       1 calls)
     electrons    :     19.48s CPU     23.24s WALL (      14 calls)
     update_pot   :      3.40s CPU      4.15s WALL (      13 calls)
     forces       :      0.94s CPU      0.96s WALL (      14 calls)

     Called by init_run:
     wfcinit      :      0.02s CPU      0.04s WALL (       1 calls)
     potinit      :      0.11s CPU      0.12s WALL (       1 calls)

     Called by electrons:
     c_bands      :      8.66s CPU      8.95s WALL (      88 calls)
     sum_band     :      1.89s CPU      1.96s WALL (      88 calls)
     v_of_rho     :      5.07s CPU      5.37s WALL (      97 calls)
     mix_rho      :      2.10s CPU      3.61s WALL (      88 calls)

     Called by c_bands:
     init_us_2    :      0.05s CPU      0.06s WALL (     177 calls)
     cegterg      :      8.61s CPU      8.87s WALL (      88 calls)

     Called by sum_band:

     Called by *egterg:
     h_psi        :      7.46s CPU      7.71s WALL (     522 calls)
     g_psi        :      0.07s CPU      0.07s WALL (     433 calls)
     cdiaghg      :      0.12s CPU      0.12s WALL (     503 calls)

     Called by h_psi:
     h_psi:pot    :      7.38s CPU      7.63s WALL (     522 calls)
     h_psi:calbec :      0.10s CPU      0.10s WALL (     522 calls)
     vloc_psi     :      7.23s CPU      7.47s WALL (     522 calls)
     add_vuspsi   :      0.05s CPU      0.05s WALL (     522 calls)

     General routines
     calbec       :      0.10s CPU      0.11s WALL (     578 calls)
     fft          :      3.82s CPU      4.19s WALL (    1104 calls)
     fftw         :      7.30s CPU      7.56s WALL (    5588 calls)
     davcio       :      0.20s CPU      1.35s WALL (     549 calls)
 
     Parallel routines
     fft_scatter  :      4.29s CPU      4.87s WALL (    6692 calls)
 
     PWSCF        :    25.08s CPU        30.70s WALL

 
   This run was terminated on:   2:23:15  28Jul2018            

=------------------------------------------------------------------------------=
   JOB DONE.
=------------------------------------------------------------------------------=
