
     Program PWSCF v.6.0 (svn rev. 13079) starts on 28Jul2018 at  2:50:37 

     This program is part of the open-source Quantum ESPRESSO suite
     for quantum simulation of materials; please cite
         "P. Giannozzi et al., J. Phys.:Condens. Matter 21 395502 (2009);
          URL http://www.quantum-espresso.org", 
     in publications or presentations arising from this work. More details at
     http://www.quantum-espresso.org/quote

     Parallel version (MPI), running on    28 processors
     R & G space division:  proc/nbgrp/npool/nimage =      28
     Reading input from ../QMCmins/relax-95.in

     Current dimensions of program PWSCF are:
     Max number of different atomic species (ntypx) = 10
     Max number of k-points (npk) =  40000
     Max angular momentum in pseudopotentials (lmaxx) =  3
     Message from routine iosys:
     pot_extrapolation='second-order' not available, using 'atomic'
     Message from routine iosys:
     wfc_extrapolation='second-order' not available, using 'atomic'

     Subspace diagonalization in iterative solution of the eigenvalue problem:
     a serial algorithm will be used

 
     Parallelization info
     --------------------
     sticks:   dense  smooth     PW     G-vecs:    dense   smooth      PW
     Min         408     408    102                32936    32936    4116
     Max         409     409    103                32943    32943    4121
     Sum       11449   11449   2869               922329   922329  115313
 


     bravais-lattice index     =            1
     lattice parameter (alat)  =      20.0000  a.u.
     unit-cell volume          =    8000.0000 (a.u.)^3
     number of atoms/cell      =            3
     number of atomic types    =            2
     number of electrons       =         8.00
     number of Kohn-Sham states=            8
     kinetic-energy cutoff     =      90.0000  Ry
     charge density cutoff     =     360.0000  Ry
     convergence threshold     =      1.0E-08
     mixing beta               =       0.7000
     number of iterations used =            8  plain     mixing
     Exchange-correlation      = BLYP ( 1  3  1  3 0 0)
     nstep                     =           50


     celldm(1)=  20.000000  celldm(2)=   0.000000  celldm(3)=   0.000000
     celldm(4)=   0.000000  celldm(5)=   0.000000  celldm(6)=   0.000000

     crystal axes: (cart. coord. in units of alat)
               a(1) = (   1.000000   0.000000   0.000000 )  
               a(2) = (   0.000000   1.000000   0.000000 )  
               a(3) = (   0.000000   0.000000   1.000000 )  

     reciprocal axes: (cart. coord. in units 2 pi/alat)
               b(1) = (  1.000000  0.000000  0.000000 )  
               b(2) = (  0.000000  1.000000  0.000000 )  
               b(3) = (  0.000000  0.000000  1.000000 )  


     PseudoPot. # 1 for  H read from file:
     ../H.blyp-hgh.UPF
     MD5 check sum: c576e69559cde411e611be972c763230
     Pseudo is Norm-conserving, Zval =  1.0
     Generated in analytical, separable form
     Using radial grid of  929 points,  0 beta functions with: 

     PseudoPot. # 2 for  O read from file:
     ../O.blyp-hgh.UPF
     MD5 check sum: d0b7156309aa9befef28faac7bc56342
     Pseudo is Norm-conserving, Zval =  6.0
     Generated in analytical, separable form
     Using radial grid of 1095 points,  1 beta functions with: 
                l(1) =   0

     atomic species   valence    mass     pseudopotential
        H              1.00     1.01000      H( 1.00)
        O              6.00    16.00000      O( 1.00)

     No symmetry found



   Cartesian axes

     site n.     atom                  positions (alat units)
         1           H   tau(   1) = (  -0.0836356  -0.0271749   0.0522381  )
         2           H   tau(   2) = (  -0.0223885   0.0505571  -0.0599879  )
         3           O   tau(   3) = (   0.0066927  -0.0014760   0.0060672  )

     number of k points=     1  Marzari-Vanderbilt smearing, width (Ry)=  0.0250
                       cart. coord. in units 2pi/alat
        k(    1) = (   0.0000000   0.0000000   0.0000000), wk =   2.0000000

     Dense  grid:   922329 G-vectors     FFT dimensions: ( 125, 125, 125)

     Estimated max dynamical RAM per process >      31.67Mb

     Estimated total allocated dynamical RAM >     886.64Mb

     Initial potential from superposition of free atoms
     Check: negative starting charge=   -0.015917

     starting charge    7.99998, renormalised to    8.00000

     negative rho (up, down):  1.592E-02 0.000E+00
     Starting wfc are    6 randomized atomic wfcs +    2 random wfc

     total cpu time spent up to now is        0.7 secs

     per-process dynamical memory:    33.5 Mb

     Self-consistent Calculation

     iteration #  1     ecut=    90.00 Ry     beta=0.70
     Davidson diagonalization with overlap
     ethr =  1.00E-02,  avg # of iterations =  7.0

     negative rho (up, down):  4.613E-03 0.000E+00

     total cpu time spent up to now is        1.0 secs

     total energy              =     -34.00723039 Ry
     Harris-Foulkes estimate   =     -34.23992342 Ry
     estimated scf accuracy    <       0.35112075 Ry

     iteration #  2     ecut=    90.00 Ry     beta=0.70
     Davidson diagonalization with overlap
     ethr =  4.39E-03,  avg # of iterations =  2.0

     negative rho (up, down):  2.907E-03 0.000E+00

     total cpu time spent up to now is        1.1 secs

     total energy              =     -34.05440711 Ry
     Harris-Foulkes estimate   =     -34.26792699 Ry
     estimated scf accuracy    <       0.47906290 Ry

     iteration #  3     ecut=    90.00 Ry     beta=0.70
     Davidson diagonalization with overlap
     ethr =  4.39E-03,  avg # of iterations =  2.0

     negative rho (up, down):  1.717E-04 0.000E+00

     total cpu time spent up to now is        1.3 secs

     total energy              =     -34.15708491 Ry
     Harris-Foulkes estimate   =     -34.15779845 Ry
     estimated scf accuracy    <       0.00605496 Ry

     iteration #  4     ecut=    90.00 Ry     beta=0.70
     Davidson diagonalization with overlap
     ethr =  7.57E-05,  avg # of iterations = 15.0

     negative rho (up, down):  3.718E-07 0.000E+00

     total cpu time spent up to now is        1.6 secs

     total energy              =     -34.15875062 Ry
     Harris-Foulkes estimate   =     -34.15889950 Ry
     estimated scf accuracy    <       0.00038262 Ry

     iteration #  5     ecut=    90.00 Ry     beta=0.70
     Davidson diagonalization with overlap
     ethr =  4.78E-06,  avg # of iterations =  6.0

     negative rho (up, down):  3.433E-06 0.000E+00

     total cpu time spent up to now is        1.8 secs

     total energy              =     -34.15876642 Ry
     Harris-Foulkes estimate   =     -34.15877773 Ry
     estimated scf accuracy    <       0.00003648 Ry

     iteration #  6     ecut=    90.00 Ry     beta=0.70
     Davidson diagonalization with overlap
     ethr =  4.56E-07,  avg # of iterations =  2.0

     negative rho (up, down):  7.414E-07 0.000E+00

     total cpu time spent up to now is        2.0 secs

     total energy              =     -34.15877051 Ry
     Harris-Foulkes estimate   =     -34.15877066 Ry
     estimated scf accuracy    <       0.00000055 Ry

     iteration #  7     ecut=    90.00 Ry     beta=0.70
     Davidson diagonalization with overlap
     ethr =  6.90E-09,  avg # of iterations =  2.0

     total cpu time spent up to now is        2.3 secs

     total energy              =     -34.15877022 Ry
     Harris-Foulkes estimate   =     -34.15877068 Ry
     estimated scf accuracy    <       0.00000004 Ry

     iteration #  8     ecut=    90.00 Ry     beta=0.70
     Davidson diagonalization with overlap
     ethr =  4.41E-10,  avg # of iterations =  2.0

     total cpu time spent up to now is        2.4 secs

     End of self-consistent calculation

          k = 0.0000 0.0000 0.0000 (115313 PWs)   bands (ev):

   -24.8250 -12.2486  -9.2311  -7.0215  -1.1947   0.3037   0.6850   1.1234

     the Fermi energy is    -5.0236 ev

!    total energy              =     -34.15877004 Ry
     Harris-Foulkes estimate   =     -34.15877023 Ry
     estimated scf accuracy    <          2.2E-09 Ry

     The total energy is the sum of the following terms:

     one-electron contribution =     -62.79571161 Ry
     hartree contribution      =      32.83454464 Ry
     xc contribution           =      -8.29183107 Ry
     ewald contribution        =       4.09422799 Ry
     smearing contrib. (-TS)   =       0.00000000 Ry

     convergence has been achieved in   8 iterations

     Forces acting on atoms (Ry/au):

     atom    1 type  1   force =     0.13410921    0.03673923   -0.06596814
     atom    2 type  1   force =    -0.02632049    0.05269738   -0.06667099
     atom    3 type  2   force =    -0.10778872   -0.08943661    0.13263913

     Total force =     0.262321     Total SCF correction =     0.000041

     BFGS Geometry Optimization

     number of scf cycles    =   1
     number of bfgs steps    =   0

     energy   new            =     -34.1587700442 Ry

     new trust radius        =       0.1929001205 bohr
     new conv_thr            =       0.0000000100 Ry


ATOMIC_POSITIONS (angstrom)
H       -0.814193464  -0.268165436   0.517955163
H       -0.250878201   0.562959253  -0.670165771
O        0.013793665  -0.062948817   0.134401607



     Writing output data file pwscf.save
     Check: negative starting charge=   -0.015917
     NEW-OLD atomic charge density approx. for the potential
     Check: negative starting charge=   -0.015946

     negative rho (up, down):  2.847E-02 0.000E+00

     total cpu time spent up to now is        3.1 secs

     per-process dynamical memory:    45.8 Mb

     Self-consistent Calculation

     iteration #  1     ecut=    90.00 Ry     beta=0.70
     Davidson diagonalization with overlap
     c_bands:  3 eigenvalues not converged
     ethr =  1.00E-06,  avg # of iterations = 20.0

     negative rho (up, down):  7.415E-03 0.000E+00

     total cpu time spent up to now is        3.6 secs

     total energy              =     -34.15967012 Ry
     Harris-Foulkes estimate   =     -34.15515748 Ry
     estimated scf accuracy    <       0.01590433 Ry

     iteration #  2     ecut=    90.00 Ry     beta=0.70
     Davidson diagonalization with overlap
     ethr =  1.99E-04,  avg # of iterations =  4.0

     negative rho (up, down):  4.061E-03 0.000E+00

     total cpu time spent up to now is        3.8 secs

     total energy              =     -34.16178370 Ry
     Harris-Foulkes estimate   =     -34.16391801 Ry
     estimated scf accuracy    <       0.00845389 Ry

     iteration #  3     ecut=    90.00 Ry     beta=0.70
     Davidson diagonalization with overlap
     ethr =  1.06E-04,  avg # of iterations =  4.0

     negative rho (up, down):  1.361E-03 0.000E+00

     total cpu time spent up to now is        4.0 secs

     total energy              =     -34.16701293 Ry
     Harris-Foulkes estimate   =     -34.16413988 Ry
     estimated scf accuracy    <       0.00062204 Ry

     iteration #  4     ecut=    90.00 Ry     beta=0.70
     Davidson diagonalization with overlap
     ethr =  7.78E-06,  avg # of iterations = 17.0

     negative rho (up, down):  6.122E-05 0.000E+00

     total cpu time spent up to now is        4.4 secs

     total energy              =     -34.16733714 Ry
     Harris-Foulkes estimate   =     -34.16717600 Ry
     estimated scf accuracy    <       0.00001980 Ry

     iteration #  5     ecut=    90.00 Ry     beta=0.70
     Davidson diagonalization with overlap
     c_bands:  1 eigenvalues not converged
     ethr =  2.47E-07,  avg # of iterations = 20.0

     negative rho (up, down):  7.293E-07 0.000E+00

     total cpu time spent up to now is        4.7 secs

     total energy              =     -34.17141918 Ry
     Harris-Foulkes estimate   =     -34.17142036 Ry
     estimated scf accuracy    <       0.00000040 Ry

     iteration #  6     ecut=    90.00 Ry     beta=0.70
     Davidson diagonalization with overlap
     ethr =  4.96E-09,  avg # of iterations =  5.0

     negative rho (up, down):  1.294E-08 0.000E+00

     total cpu time spent up to now is        4.9 secs

     total energy              =     -34.17141904 Ry
     Harris-Foulkes estimate   =     -34.17141926 Ry
     estimated scf accuracy    <       0.00000002 Ry

     iteration #  7     ecut=    90.00 Ry     beta=0.70
     Davidson diagonalization with overlap
     ethr =  2.34E-10,  avg # of iterations =  2.0

     total cpu time spent up to now is        5.1 secs

     End of self-consistent calculation

          k = 0.0000 0.0000 0.0000 (115313 PWs)   bands (ev):

   -25.0404 -12.5934  -9.1861  -7.0619  -1.0314   0.3778   0.7309   1.1286

     the Fermi energy is    -5.0735 ev

!    total energy              =     -34.17141905 Ry
     Harris-Foulkes estimate   =     -34.17141905 Ry
     estimated scf accuracy    <          5.4E-10 Ry

     The total energy is the sum of the following terms:

     one-electron contribution =     -63.41257300 Ry
     hartree contribution      =      33.13252411 Ry
     xc contribution           =      -8.33806323 Ry
     ewald contribution        =       4.44669307 Ry
     smearing contrib. (-TS)   =       0.00000000 Ry

     convergence has been achieved in   7 iterations

     Forces acting on atoms (Ry/au):

     atom    1 type  1   force =    -0.09076635   -0.02307398    0.04219274
     atom    2 type  1   force =     0.02724368   -0.06441761    0.08218386
     atom    3 type  2   force =     0.06352267    0.08749159   -0.12437659

     Total force =     0.222164     Total SCF correction =     0.000042

     number of scf cycles    =   2
     number of bfgs steps    =   1

     energy   old            =     -34.1587700442 Ry
     energy   new            =     -34.1714190516 Ry

     CASE: energy  _new < energy  _old

     new trust radius        =       0.0880831317 bohr
     new conv_thr            =       0.0000000100 Ry


ATOMIC_POSITIONS (angstrom)
H       -0.839666569  -0.274623488   0.529772295
H       -0.243140069   0.544599250  -0.646738402
O        0.031528638  -0.038130762   0.099157107



     Writing output data file pwscf.save
     Check: negative starting charge=   -0.015946
     NEW-OLD atomic charge density approx. for the potential
     Check: negative starting charge=   -0.015975

     negative rho (up, down):  1.594E-02 0.000E+00

     total cpu time spent up to now is        5.6 secs

     per-process dynamical memory:    45.8 Mb

     Self-consistent Calculation

     iteration #  1     ecut=    90.00 Ry     beta=0.70
     Davidson diagonalization with overlap
     c_bands:  1 eigenvalues not converged
     ethr =  1.00E-06,  avg # of iterations = 20.0

     negative rho (up, down):  4.190E-03 0.000E+00

     total cpu time spent up to now is        6.1 secs

     total energy              =     -34.17433526 Ry
     Harris-Foulkes estimate   =     -34.16278114 Ry
     estimated scf accuracy    <       0.00275473 Ry

     iteration #  2     ecut=    90.00 Ry     beta=0.70
     Davidson diagonalization with overlap
     ethr =  3.44E-05,  avg # of iterations =  5.0

     negative rho (up, down):  1.544E-03 0.000E+00

     total cpu time spent up to now is        6.3 secs

     total energy              =     -34.17855728 Ry
     Harris-Foulkes estimate   =     -34.17519482 Ry
     estimated scf accuracy    <       0.00022900 Ry

     iteration #  3     ecut=    90.00 Ry     beta=0.70
     Davidson diagonalization with overlap
     ethr =  2.86E-06,  avg # of iterations = 18.0

     negative rho (up, down):  5.303E-04 0.000E+00

     total cpu time spent up to now is        6.7 secs

     total energy              =     -34.18296588 Ry
     Harris-Foulkes estimate   =     -34.18270569 Ry
     estimated scf accuracy    <       0.00003848 Ry

     iteration #  4     ecut=    90.00 Ry     beta=0.70
     Davidson diagonalization with overlap
     ethr =  4.81E-07,  avg # of iterations = 15.0

     negative rho (up, down):  1.932E-05 0.000E+00

     total cpu time spent up to now is        7.0 secs

     total energy              =     -34.18298569 Ry
     Harris-Foulkes estimate   =     -34.18298232 Ry
     estimated scf accuracy    <       0.00001194 Ry

     iteration #  5     ecut=    90.00 Ry     beta=0.70
     Davidson diagonalization with overlap
     ethr =  1.49E-07,  avg # of iterations = 19.0

     total cpu time spent up to now is        7.3 secs

     total energy              =     -34.18298826 Ry
     Harris-Foulkes estimate   =     -34.18298851 Ry
     estimated scf accuracy    <       0.00000010 Ry

     iteration #  6     ecut=    90.00 Ry     beta=0.70
     Davidson diagonalization with overlap
     ethr =  1.22E-09,  avg # of iterations =  2.0

     total cpu time spent up to now is        7.4 secs

     End of self-consistent calculation

          k = 0.0000 0.0000 0.0000 (115313 PWs)   bands (ev):

   -24.9823 -12.6153  -9.1851  -7.0587  -0.9836   0.4137   0.7199   1.1289

     the Fermi energy is    -5.0588 ev

!    total energy              =     -34.18298836 Ry
     Harris-Foulkes estimate   =     -34.18298831 Ry
     estimated scf accuracy    <          3.7E-09 Ry

     The total energy is the sum of the following terms:

     one-electron contribution =     -63.39245057 Ry
     hartree contribution      =      33.12310019 Ry
     xc contribution           =      -8.33444525 Ry
     ewald contribution        =       4.42080728 Ry
     smearing contrib. (-TS)   =       0.00000000 Ry

     convergence has been achieved in   6 iterations

     Forces acting on atoms (Ry/au):

     atom    1 type  1   force =     0.02928813    0.00771169   -0.01460766
     atom    2 type  1   force =     0.00227889   -0.00460276    0.00538836
     atom    3 type  2   force =    -0.03156703   -0.00310893    0.00921931

     Total force =     0.047720     Total SCF correction =     0.000134

     number of scf cycles    =   3
     number of bfgs steps    =   2

     energy   old            =     -34.1714190516 Ry
     energy   new            =     -34.1829883601 Ry

     CASE: energy  _new < energy  _old

     new trust radius        =       0.0241387858 bohr
     new conv_thr            =       0.0000000032 Ry


ATOMIC_POSITIONS (angstrom)
H       -0.829323452  -0.271848990   0.524469100
H       -0.240920373   0.539650920  -0.640649407
O        0.018965825  -0.035956930   0.098371307



     Writing output data file pwscf.save
     Check: negative starting charge=   -0.015975
     NEW-OLD atomic charge density approx. for the potential
     Check: negative starting charge=   -0.015986

     negative rho (up, down):  4.120E-03 0.000E+00

     total cpu time spent up to now is        8.2 secs

     per-process dynamical memory:    45.8 Mb

     Self-consistent Calculation

     iteration #  1     ecut=    90.00 Ry     beta=0.70
     Davidson diagonalization with overlap
     c_bands:  1 eigenvalues not converged
     ethr =  1.00E-06,  avg # of iterations = 20.0

     negative rho (up, down):  1.069E-03 0.000E+00

     total cpu time spent up to now is        8.7 secs

     total energy              =     -34.17895326 Ry
     Harris-Foulkes estimate   =     -34.17600942 Ry
     estimated scf accuracy    <       0.00079108 Ry

     iteration #  2     ecut=    90.00 Ry     beta=0.70
     Davidson diagonalization with overlap
     ethr =  9.89E-06,  avg # of iterations =  7.0

     negative rho (up, down):  6.630E-04 0.000E+00

     total cpu time spent up to now is        8.9 secs

     total energy              =     -34.17920371 Ry
     Harris-Foulkes estimate   =     -34.17953963 Ry
     estimated scf accuracy    <       0.00085050 Ry

     iteration #  3     ecut=    90.00 Ry     beta=0.70
     Davidson diagonalization with overlap
     ethr =  9.89E-06,  avg # of iterations =  7.0

     negative rho (up, down):  1.244E-04 0.000E+00

     total cpu time spent up to now is        9.2 secs

     total energy              =     -34.18347141 Ry
     Harris-Foulkes estimate   =     -34.18345444 Ry
     estimated scf accuracy    <       0.00000406 Ry

     iteration #  4     ecut=    90.00 Ry     beta=0.70
     Davidson diagonalization with overlap
     c_bands:  1 eigenvalues not converged
     ethr =  5.08E-08,  avg # of iterations = 20.0

     negative rho (up, down):  9.324E-06 0.000E+00

     total cpu time spent up to now is        9.5 secs

     total energy              =     -34.18347128 Ry
     Harris-Foulkes estimate   =     -34.18347352 Ry
     estimated scf accuracy    <       0.00000015 Ry

     iteration #  5     ecut=    90.00 Ry     beta=0.70
     Davidson diagonalization with overlap
     ethr =  1.84E-09,  avg # of iterations =  9.0

     total cpu time spent up to now is        9.7 secs

     total energy              =     -34.18347084 Ry
     Harris-Foulkes estimate   =     -34.18347136 Ry
     estimated scf accuracy    <          5.7E-09 Ry

     iteration #  6     ecut=    90.00 Ry     beta=0.70
     Davidson diagonalization with overlap
     ethr =  7.09E-11,  avg # of iterations =  2.0

     total cpu time spent up to now is        9.8 secs

     End of self-consistent calculation

          k = 0.0000 0.0000 0.0000 (115313 PWs)   bands (ev):

   -25.1521 -12.8300  -9.1571  -7.0866  -0.9278   0.4319   0.7577   1.1327

     the Fermi energy is    -5.0984 ev

!    total energy              =     -34.18347078 Ry
     Harris-Foulkes estimate   =     -34.18347085 Ry
     estimated scf accuracy    <          2.0E-10 Ry

     The total energy is the sum of the following terms:

     one-electron contribution =     -63.79183038 Ry
     hartree contribution      =      33.31500982 Ry
     xc contribution           =      -8.36570007 Ry
     ewald contribution        =       4.65904985 Ry
     smearing contrib. (-TS)   =       0.00000000 Ry

     convergence has been achieved in   6 iterations

     Forces acting on atoms (Ry/au):

     atom    1 type  1   force =    -0.00464277   -0.00070249    0.00091157
     atom    2 type  1   force =    -0.00556338    0.00969912   -0.01294993
     atom    3 type  2   force =     0.01020615   -0.00899664    0.01203836

     Total force =     0.025409     Total SCF correction =     0.000100

     number of scf cycles    =   4
     number of bfgs steps    =   3

     energy   old            =     -34.1829883601 Ry
     energy   new            =     -34.1834707809 Ry

     CASE: energy  _new < energy  _old

     new trust radius        =       0.0109975793 bohr
     new conv_thr            =       0.0000000005 Ry


ATOMIC_POSITIONS (angstrom)
H       -0.830796320  -0.272043545   0.524663109
H       -0.242719443   0.542672199  -0.644738618
O        0.022237763  -0.038783654   0.102266508



     Writing output data file pwscf.save
     Check: negative starting charge=   -0.015986
     NEW-OLD atomic charge density approx. for the potential
     Check: negative starting charge=   -0.015978

     negative rho (up, down):  1.774E-03 0.000E+00

     total cpu time spent up to now is       10.4 secs

     per-process dynamical memory:    45.8 Mb

     Self-consistent Calculation

     iteration #  1     ecut=    90.00 Ry     beta=0.70
     Davidson diagonalization with overlap
     c_bands:  1 eigenvalues not converged
     ethr =  1.00E-06,  avg # of iterations = 20.0

     negative rho (up, down):  4.511E-04 0.000E+00

     total cpu time spent up to now is       10.8 secs

     total energy              =     -34.17950143 Ry
     Harris-Foulkes estimate   =     -34.17915538 Ry
     estimated scf accuracy    <       0.00011623 Ry

     iteration #  2     ecut=    90.00 Ry     beta=0.70
     Davidson diagonalization with overlap
     ethr =  1.45E-06,  avg # of iterations = 12.0

     negative rho (up, down):  2.698E-04 0.000E+00

     total cpu time spent up to now is       11.0 secs

     total energy              =     -34.18360516 Ry
     Harris-Foulkes estimate   =     -34.18365799 Ry
     estimated scf accuracy    <       0.00010893 Ry

     iteration #  3     ecut=    90.00 Ry     beta=0.70
     Davidson diagonalization with overlap
     ethr =  1.36E-06,  avg # of iterations =  2.0

     negative rho (up, down):  4.842E-05 0.000E+00

     total cpu time spent up to now is       11.2 secs

     total energy              =     -34.18363169 Ry
     Harris-Foulkes estimate   =     -34.18362898 Ry
     estimated scf accuracy    <       0.00000119 Ry

     iteration #  4     ecut=    90.00 Ry     beta=0.70
     Davidson diagonalization with overlap
     ethr =  1.49E-08,  avg # of iterations =  3.0

     negative rho (up, down):  2.741E-06 0.000E+00

     total cpu time spent up to now is       11.4 secs

     total energy              =     -34.18363306 Ry
     Harris-Foulkes estimate   =     -34.18363218 Ry
     estimated scf accuracy    <       0.00000003 Ry

     iteration #  5     ecut=    90.00 Ry     beta=0.70
     Davidson diagonalization with overlap
     ethr =  4.14E-10,  avg # of iterations =  2.0

     total cpu time spent up to now is       11.6 secs

     total energy              =     -34.18363327 Ry
     Harris-Foulkes estimate   =     -34.18363308 Ry
     estimated scf accuracy    <          1.5E-09 Ry

     iteration #  6     ecut=    90.00 Ry     beta=0.70
     Davidson diagonalization with overlap
     ethr =  1.87E-11,  avg # of iterations =  2.0

     total cpu time spent up to now is       11.8 secs

     End of self-consistent calculation

          k = 0.0000 0.0000 0.0000 (115313 PWs)   bands (ev):

   -25.0912 -12.7478  -9.1715  -7.0768  -0.9474   0.4255   0.7446   1.1613

     the Fermi energy is    -5.0617 ev

!    total energy              =     -34.18363331 Ry
     Harris-Foulkes estimate   =     -34.18363327 Ry
     estimated scf accuracy    <          6.9E-11 Ry

     The total energy is the sum of the following terms:

     one-electron contribution =     -63.64697370 Ry
     hartree contribution      =      33.24532558 Ry
     xc contribution           =      -8.35431141 Ry
     ewald contribution        =       4.57232622 Ry
     smearing contrib. (-TS)   =       0.00000000 Ry

     convergence has been achieved in   6 iterations

     Forces acting on atoms (Ry/au):

     atom    1 type  1   force =    -0.00175998   -0.00046608    0.00015221
     atom    2 type  1   force =     0.00067591   -0.00253912    0.00259726
     atom    3 type  2   force =     0.00108407    0.00300520   -0.00274947

     Total force =     0.005895     Total SCF correction =     0.000080

     number of scf cycles    =   5
     number of bfgs steps    =   4

     energy   old            =     -34.1834707809 Ry
     energy   new            =     -34.1836333062 Ry

     CASE: energy  _new < energy  _old

     new trust radius        =       0.0020407032 bohr
     new conv_thr            =       0.0000000002 Ry


ATOMIC_POSITIONS (angstrom)
H       -0.831290529  -0.272173318   0.524579202
H       -0.242613033   0.541950701  -0.644115155
O        0.022625562  -0.037932383   0.101726953



     Writing output data file pwscf.save
     Check: negative starting charge=   -0.015978
     NEW-OLD atomic charge density approx. for the potential
     Check: negative starting charge=   -0.015978

     negative rho (up, down):  2.599E-04 0.000E+00

     total cpu time spent up to now is       12.4 secs

     per-process dynamical memory:    45.8 Mb

     Self-consistent Calculation

     iteration #  1     ecut=    90.00 Ry     beta=0.70
     Davidson diagonalization with overlap
     ethr =  1.00E-06,  avg # of iterations =  3.0

     Threshold (ethr) on eigenvalues was too large:
     Diagonalizing with lowered threshold

     Davidson diagonalization with overlap
     ethr =  1.96E-08,  avg # of iterations =  1.0

     negative rho (up, down):  5.582E-05 0.000E+00

     total cpu time spent up to now is       12.9 secs

     total energy              =     -34.18364069 Ry
     Harris-Foulkes estimate   =     -34.18364001 Ry
     estimated scf accuracy    <       0.00000159 Ry

     iteration #  2     ecut=    90.00 Ry     beta=0.70
     Davidson diagonalization with overlap
     ethr =  1.99E-08,  avg # of iterations =  2.0

     negative rho (up, down):  1.513E-05 0.000E+00

     total cpu time spent up to now is       13.1 secs

     total energy              =     -34.18364163 Ry
     Harris-Foulkes estimate   =     -34.18364116 Ry
     estimated scf accuracy    <       0.00000019 Ry

     iteration #  3     ecut=    90.00 Ry     beta=0.70
     Davidson diagonalization with overlap
     ethr =  2.37E-09,  avg # of iterations =  2.0

     negative rho (up, down):  3.030E-06 0.000E+00

     total cpu time spent up to now is       13.3 secs

     total energy              =     -34.18364187 Ry
     Harris-Foulkes estimate   =     -34.18364171 Ry
     estimated scf accuracy    <       0.00000006 Ry

     iteration #  4     ecut=    90.00 Ry     beta=0.70
     Davidson diagonalization with overlap
     ethr =  7.32E-10,  avg # of iterations =  2.0

     total cpu time spent up to now is       13.5 secs

     total energy              =     -34.18364180 Ry
     Harris-Foulkes estimate   =     -34.18364189 Ry
     estimated scf accuracy    <          3.8E-09 Ry

     iteration #  5     ecut=    90.00 Ry     beta=0.70
     Davidson diagonalization with overlap
     ethr =  4.74E-11,  avg # of iterations =  2.0

     total cpu time spent up to now is       13.7 secs

     End of self-consistent calculation

          k = 0.0000 0.0000 0.0000 (115313 PWs)   bands (ev):

   -25.0944 -12.7494  -9.1728  -7.0775  -0.9466   0.4258   0.7454   1.1614

     the Fermi energy is    -5.0624 ev

!    total energy              =     -34.18364181 Ry
     Harris-Foulkes estimate   =     -34.18364180 Ry
     estimated scf accuracy    <          6.0E-11 Ry

     The total energy is the sum of the following terms:

     one-electron contribution =     -63.65321441 Ry
     hartree contribution      =      33.24823996 Ry
     xc contribution           =      -8.35478496 Ry
     ewald contribution        =       4.57611760 Ry
     smearing contrib. (-TS)   =       0.00000000 Ry

     convergence has been achieved in   5 iterations

     Forces acting on atoms (Ry/au):

     atom    1 type  1   force =     0.00028128    0.00010713   -0.00081111
     atom    2 type  1   force =    -0.00013985   -0.00048788    0.00001386
     atom    3 type  2   force =    -0.00014143    0.00038075    0.00079725

     Total force =     0.001344     Total SCF correction =     0.000107

     bfgs converged in   6 scf cycles and   5 bfgs steps
     (criteria: energy <  1.0E-04, force <  1.0E-03)

     End of BFGS Geometry Optimization

     Final energy   =     -34.1836418149 Ry
Begin final coordinates

ATOMIC_POSITIONS (angstrom)
H       -0.831290529  -0.272173318   0.524579202
H       -0.242613033   0.541950701  -0.644115155
O        0.022625562  -0.037932383   0.101726953
End final coordinates



     Writing output data file pwscf.save
 
     init_run     :      0.52s CPU      0.55s WALL (       1 calls)
     electrons    :      9.18s CPU     10.69s WALL (       6 calls)
     update_pot   :      1.22s CPU      1.43s WALL (       5 calls)
     forces       :      0.41s CPU      0.41s WALL (       6 calls)

     Called by init_run:
     wfcinit      :      0.03s CPU      0.04s WALL (       1 calls)
     potinit      :      0.11s CPU      0.11s WALL (       1 calls)

     Called by electrons:
     c_bands      :      4.68s CPU      4.73s WALL (      39 calls)
     sum_band     :      0.80s CPU      0.82s WALL (      39 calls)
     v_of_rho     :      2.27s CPU      2.32s WALL (      44 calls)
     mix_rho      :      0.83s CPU      1.49s WALL (      39 calls)

     Called by c_bands:
     init_us_2    :      0.02s CPU      0.02s WALL (      79 calls)
     cegterg      :      4.66s CPU      4.69s WALL (      39 calls)

     Called by sum_band:

     Called by *egterg:
     h_psi        :      3.95s CPU      3.98s WALL (     347 calls)
     g_psi        :      0.04s CPU      0.04s WALL (     307 calls)
     cdiaghg      :      0.08s CPU      0.08s WALL (     340 calls)

     Called by h_psi:
     h_psi:pot    :      3.91s CPU      3.94s WALL (     347 calls)
     h_psi:calbec :      0.05s CPU      0.05s WALL (     347 calls)
     vloc_psi     :      3.83s CPU      3.86s WALL (     347 calls)
     add_vuspsi   :      0.03s CPU      0.03s WALL (     347 calls)

     General routines
     calbec       :      0.05s CPU      0.05s WALL (     371 calls)
     fft          :      1.58s CPU      1.63s WALL (     497 calls)
     fftw         :      3.75s CPU      3.77s WALL (    2942 calls)
     davcio       :      0.10s CPU      0.66s WALL (     267 calls)
 
     Parallel routines
     fft_scatter  :      1.84s CPU      1.90s WALL (    3439 calls)
 
     PWSCF        :    11.86s CPU        14.11s WALL

 
   This run was terminated on:   2:50:51  28Jul2018            

=------------------------------------------------------------------------------=
   JOB DONE.
=------------------------------------------------------------------------------=
