
     Program PWSCF v.6.0 (svn rev. 13079) starts on 28Jul2018 at  2:50:56 

     This program is part of the open-source Quantum ESPRESSO suite
     for quantum simulation of materials; please cite
         "P. Giannozzi et al., J. Phys.:Condens. Matter 21 395502 (2009);
          URL http://www.quantum-espresso.org", 
     in publications or presentations arising from this work. More details at
     http://www.quantum-espresso.org/quote

     Parallel version (MPI), running on    28 processors
     R & G space division:  proc/nbgrp/npool/nimage =      28
     Reading input from ../QMCmins/relax-96.in

     Current dimensions of program PWSCF are:
     Max number of different atomic species (ntypx) = 10
     Max number of k-points (npk) =  40000
     Max angular momentum in pseudopotentials (lmaxx) =  3
     Message from routine iosys:
     pot_extrapolation='second-order' not available, using 'atomic'
     Message from routine iosys:
     wfc_extrapolation='second-order' not available, using 'atomic'

     Subspace diagonalization in iterative solution of the eigenvalue problem:
     a serial algorithm will be used

 
     Parallelization info
     --------------------
     sticks:   dense  smooth     PW     G-vecs:    dense   smooth      PW
     Min         408     408    102                32936    32936    4116
     Max         409     409    103                32943    32943    4121
     Sum       11449   11449   2869               922329   922329  115313
 


     bravais-lattice index     =            1
     lattice parameter (alat)  =      20.0000  a.u.
     unit-cell volume          =    8000.0000 (a.u.)^3
     number of atoms/cell      =            3
     number of atomic types    =            2
     number of electrons       =         8.00
     number of Kohn-Sham states=            8
     kinetic-energy cutoff     =      90.0000  Ry
     charge density cutoff     =     360.0000  Ry
     convergence threshold     =      1.0E-08
     mixing beta               =       0.7000
     number of iterations used =            8  plain     mixing
     Exchange-correlation      = BLYP ( 1  3  1  3 0 0)
     nstep                     =           50


     celldm(1)=  20.000000  celldm(2)=   0.000000  celldm(3)=   0.000000
     celldm(4)=   0.000000  celldm(5)=   0.000000  celldm(6)=   0.000000

     crystal axes: (cart. coord. in units of alat)
               a(1) = (   1.000000   0.000000   0.000000 )  
               a(2) = (   0.000000   1.000000   0.000000 )  
               a(3) = (   0.000000   0.000000   1.000000 )  

     reciprocal axes: (cart. coord. in units 2 pi/alat)
               b(1) = (  1.000000  0.000000  0.000000 )  
               b(2) = (  0.000000  1.000000  0.000000 )  
               b(3) = (  0.000000  0.000000  1.000000 )  


     PseudoPot. # 1 for  H read from file:
     ../H.blyp-hgh.UPF
     MD5 check sum: c576e69559cde411e611be972c763230
     Pseudo is Norm-conserving, Zval =  1.0
     Generated in analytical, separable form
     Using radial grid of  929 points,  0 beta functions with: 

     PseudoPot. # 2 for  O read from file:
     ../O.blyp-hgh.UPF
     MD5 check sum: d0b7156309aa9befef28faac7bc56342
     Pseudo is Norm-conserving, Zval =  6.0
     Generated in analytical, separable form
     Using radial grid of 1095 points,  1 beta functions with: 
                l(1) =   0

     atomic species   valence    mass     pseudopotential
        H              1.00     1.01000      H( 1.00)
        O              6.00    16.00000      O( 1.00)

     No symmetry found



   Cartesian axes

     site n.     atom                  positions (alat units)
         1           H   tau(   1) = (   0.0791769  -0.0118073   0.0075640  )
         2           H   tau(   2) = (  -0.0241819  -0.0618274  -0.0645506  )
         3           O   tau(   3) = (  -0.0034715   0.0046482   0.0091753  )

     number of k points=     1  Marzari-Vanderbilt smearing, width (Ry)=  0.0250
                       cart. coord. in units 2pi/alat
        k(    1) = (   0.0000000   0.0000000   0.0000000), wk =   2.0000000

     Dense  grid:   922329 G-vectors     FFT dimensions: ( 125, 125, 125)

     Estimated max dynamical RAM per process >      31.67Mb

     Estimated total allocated dynamical RAM >     886.64Mb

     Initial potential from superposition of free atoms
     Check: negative starting charge=   -0.016021

     starting charge    7.99998, renormalised to    8.00000

     negative rho (up, down):  1.602E-02 0.000E+00
     Starting wfc are    6 randomized atomic wfcs +    2 random wfc

     total cpu time spent up to now is        0.8 secs

     per-process dynamical memory:    33.5 Mb

     Self-consistent Calculation

     iteration #  1     ecut=    90.00 Ry     beta=0.70
     Davidson diagonalization with overlap
     ethr =  1.00E-02,  avg # of iterations =  8.0

     negative rho (up, down):  4.672E-03 0.000E+00

     total cpu time spent up to now is        1.1 secs

     total energy              =     -33.99604268 Ry
     Harris-Foulkes estimate   =     -34.24184799 Ry
     estimated scf accuracy    <       0.36813674 Ry

     iteration #  2     ecut=    90.00 Ry     beta=0.70
     Davidson diagonalization with overlap
     ethr =  4.60E-03,  avg # of iterations =  2.0

     negative rho (up, down):  2.820E-03 0.000E+00

     total cpu time spent up to now is        1.3 secs

     total energy              =     -34.05082043 Ry
     Harris-Foulkes estimate   =     -34.24975450 Ry
     estimated scf accuracy    <       0.43343573 Ry

     iteration #  3     ecut=    90.00 Ry     beta=0.70
     Davidson diagonalization with overlap
     ethr =  4.60E-03,  avg # of iterations =  2.0

     negative rho (up, down):  1.795E-04 0.000E+00

     total cpu time spent up to now is        1.5 secs

     total energy              =     -34.14685090 Ry
     Harris-Foulkes estimate   =     -34.14798718 Ry
     estimated scf accuracy    <       0.00647346 Ry

     iteration #  4     ecut=    90.00 Ry     beta=0.70
     Davidson diagonalization with overlap
     ethr =  8.09E-05,  avg # of iterations =  6.0

     negative rho (up, down):  9.698E-06 0.000E+00

     total cpu time spent up to now is        1.8 secs

     total energy              =     -34.14869551 Ry
     Harris-Foulkes estimate   =     -34.14886483 Ry
     estimated scf accuracy    <       0.00042395 Ry

     iteration #  5     ecut=    90.00 Ry     beta=0.70
     Davidson diagonalization with overlap
     ethr =  5.30E-06,  avg # of iterations = 12.0

     negative rho (up, down):  3.721E-08 0.000E+00

     total cpu time spent up to now is        2.0 secs

     total energy              =     -34.14872313 Ry
     Harris-Foulkes estimate   =     -34.14873097 Ry
     estimated scf accuracy    <       0.00002725 Ry

     iteration #  6     ecut=    90.00 Ry     beta=0.70
     Davidson diagonalization with overlap
     ethr =  3.41E-07,  avg # of iterations =  2.0

     negative rho (up, down):  5.879E-07 0.000E+00

     total cpu time spent up to now is        2.2 secs

     total energy              =     -34.14872623 Ry
     Harris-Foulkes estimate   =     -34.14872602 Ry
     estimated scf accuracy    <       0.00000149 Ry

     iteration #  7     ecut=    90.00 Ry     beta=0.70
     Davidson diagonalization with overlap
     ethr =  1.86E-08,  avg # of iterations =  2.0

     total cpu time spent up to now is        2.4 secs

     total energy              =     -34.14872616 Ry
     Harris-Foulkes estimate   =     -34.14872640 Ry
     estimated scf accuracy    <       0.00000003 Ry

     iteration #  8     ecut=    90.00 Ry     beta=0.70
     Davidson diagonalization with overlap
     ethr =  4.23E-10,  avg # of iterations =  3.0

     total cpu time spent up to now is        2.6 secs

     End of self-consistent calculation

          k = 0.0000 0.0000 0.0000 (115313 PWs)   bands (ev):

   -25.4428 -12.2220  -9.6737  -7.1371  -1.0889   0.3426   0.7886   1.1125

     the Fermi energy is    -5.1862 ev

!    total energy              =     -34.14872604 Ry
     Harris-Foulkes estimate   =     -34.14872618 Ry
     estimated scf accuracy    <          4.2E-09 Ry

     The total energy is the sum of the following terms:

     one-electron contribution =     -63.80376992 Ry
     hartree contribution      =      33.30411808 Ry
     xc contribution           =      -8.36824521 Ry
     ewald contribution        =       4.71917101 Ry
     smearing contrib. (-TS)   =       0.00000000 Ry

     convergence has been achieved in   8 iterations

     Forces acting on atoms (Ry/au):

     atom    1 type  1   force =     0.23670703   -0.02256654    0.02058348
     atom    2 type  1   force =    -0.00385661    0.08348535    0.08641537
     atom    3 type  2   force =    -0.23285041   -0.06091881   -0.10699885

     Total force =     0.375226     Total SCF correction =     0.000088

     BFGS Geometry Optimization

     number of scf cycles    =   1
     number of bfgs steps    =   0

     energy   new            =     -34.1487260367 Ry

     new trust radius        =       0.2633992587 bohr
     new conv_thr            =       0.0000000100 Ry


ATOMIC_POSITIONS (angstrom)
H        0.963231964  -0.136904699   0.090946309
H       -0.257970832  -0.610174455  -0.637444958
O       -0.159960132   0.016957154   0.040485649



     Writing output data file pwscf.save
     Check: negative starting charge=   -0.016021
     NEW-OLD atomic charge density approx. for the potential
     Check: negative starting charge=   -0.015980

     negative rho (up, down):  2.873E-02 0.000E+00

     total cpu time spent up to now is        3.2 secs

     per-process dynamical memory:    45.8 Mb

     Self-consistent Calculation

     iteration #  1     ecut=    90.00 Ry     beta=0.70
     Davidson diagonalization with overlap
     c_bands:  2 eigenvalues not converged
     ethr =  1.00E-06,  avg # of iterations = 20.0

     negative rho (up, down):  4.766E-03 0.000E+00

     total cpu time spent up to now is        3.6 secs

     total energy              =      51.12187929 Ry
     Harris-Foulkes estimate   =    -304.87876242 Ry
     estimated scf accuracy    <       7.11474707 Ry

     iteration #  2     ecut=    90.00 Ry     beta=0.70
     Davidson diagonalization with overlap
     ethr =  1.00E-02,  avg # of iterations =  4.0

     total cpu time spent up to now is        3.9 secs

     total energy              =     -32.20085679 Ry
     Harris-Foulkes estimate   =     -38.48024374 Ry
     estimated scf accuracy    <      13.98892557 Ry

     iteration #  3     ecut=    90.00 Ry     beta=0.70
     Davidson diagonalization with overlap
     ethr =  1.00E-02,  avg # of iterations =  3.0

     total cpu time spent up to now is        4.1 secs

     total energy              =     -34.47455057 Ry
     Harris-Foulkes estimate   =     -35.13546898 Ry
     estimated scf accuracy    <       1.98478613 Ry

     iteration #  4     ecut=    90.00 Ry     beta=0.70
     Davidson diagonalization with overlap
     ethr =  1.00E-02,  avg # of iterations =  1.0

     total cpu time spent up to now is        4.3 secs

     total energy              =     -34.39163763 Ry
     Harris-Foulkes estimate   =     -34.52433131 Ry
     estimated scf accuracy    <       0.99581871 Ry

     iteration #  5     ecut=    90.00 Ry     beta=0.70
     Davidson diagonalization with overlap
     ethr =  1.00E-02,  avg # of iterations =  1.0

     negative rho (up, down):  8.614E-02 0.000E+00

     total cpu time spent up to now is        4.5 secs

     total energy              =     -34.06906201 Ry
     Harris-Foulkes estimate   =     -34.39298697 Ry
     estimated scf accuracy    <       0.77758169 Ry

     iteration #  6     ecut=    90.00 Ry     beta=0.70
     Davidson diagonalization with overlap
     ethr =  9.72E-03,  avg # of iterations =  1.0

     negative rho (up, down):  6.050E-02 0.000E+00

     total cpu time spent up to now is        4.7 secs

     total energy              =     -34.09179336 Ry
     Harris-Foulkes estimate   =     -34.08919933 Ry
     estimated scf accuracy    <       0.12918444 Ry

     iteration #  7     ecut=    90.00 Ry     beta=0.70
     Davidson diagonalization with overlap
     ethr =  1.61E-03,  avg # of iterations =  1.0

     negative rho (up, down):  4.240E-02 0.000E+00

     total cpu time spent up to now is        4.9 secs

     total energy              =     -34.09280978 Ry
     Harris-Foulkes estimate   =     -34.09326403 Ry
     estimated scf accuracy    <       0.12554155 Ry

     iteration #  8     ecut=    90.00 Ry     beta=0.70
     Davidson diagonalization with overlap
     ethr =  1.57E-03,  avg # of iterations =  1.0

     total cpu time spent up to now is        5.1 secs

     total energy              =     -34.10807443 Ry
     Harris-Foulkes estimate   =     -34.09334754 Ry
     estimated scf accuracy    <       0.08715951 Ry

     iteration #  9     ecut=    90.00 Ry     beta=0.70
     Davidson diagonalization with overlap
     ethr =  1.09E-03,  avg # of iterations =  1.0

     negative rho (up, down):  7.436E-03 0.000E+00

     total cpu time spent up to now is        5.3 secs

     total energy              =     -34.13439901 Ry
     Harris-Foulkes estimate   =     -34.10933805 Ry
     estimated scf accuracy    <       0.03446406 Ry

     iteration # 10     ecut=    90.00 Ry     beta=0.70
     Davidson diagonalization with overlap
     ethr =  4.31E-04,  avg # of iterations =  2.0

     total cpu time spent up to now is        5.6 secs

     total energy              =     -34.14398885 Ry
     Harris-Foulkes estimate   =     -34.14157068 Ry
     estimated scf accuracy    <       0.00135433 Ry

     iteration # 11     ecut=    90.00 Ry     beta=0.70
     Davidson diagonalization with overlap
     ethr =  1.69E-05,  avg # of iterations =  7.0

     negative rho (up, down):  6.737E-04 0.000E+00

     total cpu time spent up to now is        5.9 secs

     total energy              =     -34.14417712 Ry
     Harris-Foulkes estimate   =     -34.14421332 Ry
     estimated scf accuracy    <       0.00010740 Ry

     iteration # 12     ecut=    90.00 Ry     beta=0.70
     Davidson diagonalization with overlap
     c_bands:  1 eigenvalues not converged
     ethr =  1.34E-06,  avg # of iterations = 20.0

     negative rho (up, down):  2.380E-04 0.000E+00

     total cpu time spent up to now is        6.2 secs

     total energy              =     -34.14417625 Ry
     Harris-Foulkes estimate   =     -34.14418664 Ry
     estimated scf accuracy    <       0.00003508 Ry

     iteration # 13     ecut=    90.00 Ry     beta=0.70
     Davidson diagonalization with overlap
     ethr =  4.38E-07,  avg # of iterations = 15.0

     negative rho (up, down):  6.377E-06 0.000E+00

     total cpu time spent up to now is        6.5 secs

     total energy              =     -34.14416979 Ry
     Harris-Foulkes estimate   =     -34.14418204 Ry
     estimated scf accuracy    <       0.00003385 Ry

     iteration # 14     ecut=    90.00 Ry     beta=0.70
     Davidson diagonalization with overlap
     ethr =  4.23E-07,  avg # of iterations =  4.0

     negative rho (up, down):  1.629E-06 0.000E+00

     total cpu time spent up to now is        6.7 secs

     total energy              =     -34.14417260 Ry
     Harris-Foulkes estimate   =     -34.14417359 Ry
     estimated scf accuracy    <       0.00001181 Ry

     iteration # 15     ecut=    90.00 Ry     beta=0.70
     Davidson diagonalization with overlap
     ethr =  1.48E-07,  avg # of iterations =  1.0

     negative rho (up, down):  7.627E-06 0.000E+00

     total cpu time spent up to now is        6.9 secs

     total energy              =     -34.14417156 Ry
     Harris-Foulkes estimate   =     -34.14417272 Ry
     estimated scf accuracy    <       0.00000926 Ry

     iteration # 16     ecut=    90.00 Ry     beta=0.70
     Davidson diagonalization with overlap
     ethr =  1.16E-07,  avg # of iterations =  1.0

     total cpu time spent up to now is        7.1 secs

     total energy              =     -34.14417031 Ry
     Harris-Foulkes estimate   =     -34.14417208 Ry
     estimated scf accuracy    <       0.00000713 Ry

     iteration # 17     ecut=    90.00 Ry     beta=0.70
     Davidson diagonalization with overlap
     ethr =  8.91E-08,  avg # of iterations =  1.0

     total cpu time spent up to now is        7.3 secs

     total energy              =     -34.14416992 Ry
     Harris-Foulkes estimate   =     -34.14417053 Ry
     estimated scf accuracy    <       0.00000154 Ry

     iteration # 18     ecut=    90.00 Ry     beta=0.70
     Davidson diagonalization with overlap
     ethr =  1.93E-08,  avg # of iterations =  2.0

     total cpu time spent up to now is        7.5 secs

     total energy              =     -34.14417014 Ry
     Harris-Foulkes estimate   =     -34.14417013 Ry
     estimated scf accuracy    <       0.00000003 Ry

     iteration # 19     ecut=    90.00 Ry     beta=0.70
     Davidson diagonalization with overlap
     ethr =  4.34E-10,  avg # of iterations =  2.0

     total cpu time spent up to now is        7.7 secs

     End of self-consistent calculation

          k = 0.0000 0.0000 0.0000 (115313 PWs)   bands (ev):

   -24.9604 -11.8066  -9.6306  -7.0601  -1.3147   0.2590   0.6954   1.1033

     the Fermi energy is    -5.0725 ev

!    total energy              =     -34.14417015 Ry
     Harris-Foulkes estimate   =     -34.14417015 Ry
     estimated scf accuracy    <          1.9E-09 Ry

     The total energy is the sum of the following terms:

     one-electron contribution =     -62.73931695 Ry
     hartree contribution      =      32.79326635 Ry
     xc contribution           =      -8.28688800 Ry
     ewald contribution        =       4.08876845 Ry
     smearing contrib. (-TS)   =       0.00000000 Ry

     convergence has been achieved in  19 iterations

     Forces acting on atoms (Ry/au):

     atom    1 type  1   force =    -0.15725082    0.03709652    0.01014276
     atom    2 type  1   force =    -0.04221113   -0.08315961   -0.09464710
     atom    3 type  2   force =     0.19946195    0.04606309    0.08450434

     Total force =     0.304812     Total SCF correction =     0.000089

     number of scf cycles    =   2
     number of bfgs steps    =   1

     energy   old            =     -34.1487260367 Ry
     energy   new            =     -34.1441701503 Ry

     CASE: energy  _new > energy  _old

     new trust radius        =       0.1275716175 bohr
     new conv_thr            =       0.0000000100 Ry


ATOMIC_POSITIONS (angstrom)
H        0.898638899  -0.130746698   0.085329450
H       -0.256918432  -0.632956097  -0.661026148
O       -0.096419467   0.033580795   0.069683698



     Writing output data file pwscf.save
     Check: negative starting charge=   -0.015980
     NEW-OLD atomic charge density approx. for the potential
     Check: negative starting charge=   -0.016045

     negative rho (up, down):  2.318E-02 0.000E+00

     total cpu time spent up to now is        8.4 secs

     per-process dynamical memory:    45.8 Mb

     Self-consistent Calculation

     iteration #  1     ecut=    90.00 Ry     beta=0.70
     Davidson diagonalization with overlap
     c_bands:  1 eigenvalues not converged
     ethr =  1.00E-06,  avg # of iterations = 20.0

     negative rho (up, down):  6.087E-03 0.000E+00

     total cpu time spent up to now is        9.0 secs

     total energy              =     -34.16144667 Ry
     Harris-Foulkes estimate   =     -34.18790986 Ry
     estimated scf accuracy    <       0.00737461 Ry

     iteration #  2     ecut=    90.00 Ry     beta=0.70
     Davidson diagonalization with overlap
     ethr =  9.22E-05,  avg # of iterations =  5.0

     negative rho (up, down):  3.563E-03 0.000E+00

     total cpu time spent up to now is        9.3 secs

     total energy              =     -34.16927647 Ry
     Harris-Foulkes estimate   =     -34.16848751 Ry
     estimated scf accuracy    <       0.00542607 Ry

     iteration #  3     ecut=    90.00 Ry     beta=0.70
     Davidson diagonalization with overlap
     ethr =  6.78E-05,  avg # of iterations =  3.0

     negative rho (up, down):  1.327E-03 0.000E+00

     total cpu time spent up to now is        9.5 secs

     total energy              =     -34.17308539 Ry
     Harris-Foulkes estimate   =     -34.17060161 Ry
     estimated scf accuracy    <       0.00029491 Ry

     iteration #  4     ecut=    90.00 Ry     beta=0.70
     Davidson diagonalization with overlap
     ethr =  3.69E-06,  avg # of iterations = 19.0

     negative rho (up, down):  1.567E-05 0.000E+00

     total cpu time spent up to now is        9.8 secs

     total energy              =     -34.17740136 Ry
     Harris-Foulkes estimate   =     -34.17724013 Ry
     estimated scf accuracy    <       0.00001775 Ry

     iteration #  5     ecut=    90.00 Ry     beta=0.70
     Davidson diagonalization with overlap
     ethr =  2.22E-07,  avg # of iterations = 14.0

     negative rho (up, down):  1.926E-07 0.000E+00

     total cpu time spent up to now is       10.1 secs

     total energy              =     -34.17740616 Ry
     Harris-Foulkes estimate   =     -34.17740645 Ry
     estimated scf accuracy    <       0.00000028 Ry

     iteration #  6     ecut=    90.00 Ry     beta=0.70
     Davidson diagonalization with overlap
     ethr =  3.50E-09,  avg # of iterations =  2.0

     negative rho (up, down):  1.337E-08 0.000E+00

     total cpu time spent up to now is       10.3 secs

     total energy              =     -34.17740622 Ry
     Harris-Foulkes estimate   =     -34.17740622 Ry
     estimated scf accuracy    <       0.00000001 Ry

     iteration #  7     ecut=    90.00 Ry     beta=0.70
     Davidson diagonalization with overlap
     ethr =  1.87E-10,  avg # of iterations =  2.0

     total cpu time spent up to now is       10.5 secs

     End of self-consistent calculation

          k = 0.0000 0.0000 0.0000 (115313 PWs)   bands (ev):

   -25.0215 -12.0461  -9.6437  -7.0836  -1.0528   0.3893   0.7078   1.1101

     the Fermi energy is    -5.0827 ev

!    total energy              =     -34.17740629 Ry
     Harris-Foulkes estimate   =     -34.17740622 Ry
     estimated scf accuracy    <          9.5E-10 Ry

     The total energy is the sum of the following terms:

     one-electron contribution =     -63.16736764 Ry
     hartree contribution      =      33.00035366 Ry
     xc contribution           =      -8.31367143 Ry
     ewald contribution        =       4.30327912 Ry
     smearing contrib. (-TS)   =       0.00000000 Ry

     convergence has been achieved in   7 iterations

     Forces acting on atoms (Ry/au):

     atom    1 type  1   force =    -0.03308687    0.02436763    0.02049609
     atom    2 type  1   force =    -0.02301433    0.02255563    0.02037451
     atom    3 type  2   force =     0.05610120   -0.04692326   -0.04087060

     Total force =     0.102867     Total SCF correction =     0.000073

     number of scf cycles    =   3
     number of bfgs steps    =   1

     energy   old            =     -34.1487260367 Ry
     energy   new            =     -34.1774062949 Ry

     CASE: energy  _new < energy  _old

     new trust radius        =       0.0755486437 bohr
     new conv_thr            =       0.0000000056 Ry


ATOMIC_POSITIONS (angstrom)
H        0.894248263  -0.119851055   0.096491494
H       -0.268479720  -0.617601119  -0.646600479
O       -0.080467542   0.007330175   0.044095984



     Writing output data file pwscf.save
     Check: negative starting charge=   -0.016045
     NEW-OLD atomic charge density approx. for the potential
     Check: negative starting charge=   -0.016043

     negative rho (up, down):  1.386E-02 0.000E+00

     total cpu time spent up to now is       11.1 secs

     per-process dynamical memory:    45.8 Mb

     Self-consistent Calculation

     iteration #  1     ecut=    90.00 Ry     beta=0.70
     Davidson diagonalization with overlap
     c_bands:  1 eigenvalues not converged
     ethr =  1.00E-06,  avg # of iterations = 20.0

     negative rho (up, down):  3.679E-03 0.000E+00

     total cpu time spent up to now is       11.6 secs

     total energy              =     -34.16879956 Ry
     Harris-Foulkes estimate   =     -34.17575934 Ry
     estimated scf accuracy    <       0.00533095 Ry

     iteration #  2     ecut=    90.00 Ry     beta=0.70
     Davidson diagonalization with overlap
     ethr =  6.66E-05,  avg # of iterations =  4.0

     negative rho (up, down):  2.383E-03 0.000E+00

     total cpu time spent up to now is       11.9 secs

     total energy              =     -34.17371550 Ry
     Harris-Foulkes estimate   =     -34.17516401 Ry
     estimated scf accuracy    <       0.00726894 Ry

     iteration #  3     ecut=    90.00 Ry     beta=0.70
     Davidson diagonalization with overlap
     ethr =  6.66E-05,  avg # of iterations =  4.0

     negative rho (up, down):  5.948E-04 0.000E+00

     total cpu time spent up to now is       12.1 secs

     total energy              =     -34.17613449 Ry
     Harris-Foulkes estimate   =     -34.17500637 Ry
     estimated scf accuracy    <       0.00003848 Ry

     iteration #  4     ecut=    90.00 Ry     beta=0.70
     Davidson diagonalization with overlap
     ethr =  4.81E-07,  avg # of iterations = 16.0

     negative rho (up, down):  5.879E-05 0.000E+00

     total cpu time spent up to now is       12.4 secs

     total energy              =     -34.18024786 Ry
     Harris-Foulkes estimate   =     -34.18023317 Ry
     estimated scf accuracy    <       0.00000200 Ry

     iteration #  5     ecut=    90.00 Ry     beta=0.70
     Davidson diagonalization with overlap
     ethr =  2.50E-08,  avg # of iterations = 10.0

     total cpu time spent up to now is       12.7 secs

     total energy              =     -34.18024631 Ry
     Harris-Foulkes estimate   =     -34.18024845 Ry
     estimated scf accuracy    <       0.00000011 Ry

     iteration #  6     ecut=    90.00 Ry     beta=0.70
     Davidson diagonalization with overlap
     ethr =  1.33E-09,  avg # of iterations =  2.0

     total cpu time spent up to now is       12.8 secs

     End of self-consistent calculation

          k = 0.0000 0.0000 0.0000 (115313 PWs)   bands (ev):

   -25.3479 -12.6315  -9.4411  -7.1286  -0.9250   0.4286   0.7855   1.1189

     the Fermi energy is    -5.1577 ev

!    total energy              =     -34.18024626 Ry
     Harris-Foulkes estimate   =     -34.18024635 Ry
     estimated scf accuracy    <          2.5E-09 Ry

     The total energy is the sum of the following terms:

     one-electron contribution =     -64.01090777 Ry
     hartree contribution      =      33.41118615 Ry
     xc contribution           =      -8.38133642 Ry
     ewald contribution        =       4.80081177 Ry
     smearing contrib. (-TS)   =       0.00000000 Ry

     convergence has been achieved in   6 iterations

     Forces acting on atoms (Ry/au):

     atom    1 type  1   force =    -0.00091398    0.01158668    0.01268239
     atom    2 type  1   force =    -0.03138955   -0.04205130   -0.04959593
     atom    3 type  2   force =     0.03230353    0.03046462    0.03691355

     Total force =     0.094040     Total SCF correction =     0.000121

     number of scf cycles    =   4
     number of bfgs steps    =   2

     energy   old            =     -34.1774062949 Ry
     energy   new            =     -34.1802462603 Ry

     CASE: energy  _new < energy  _old

     new trust radius        =       0.0416663423 bohr
     new conv_thr            =       0.0000000028 Ry


ATOMIC_POSITIONS (angstrom)
H        0.897670659  -0.113064998   0.104659819
H       -0.283404825  -0.627472519  -0.659482628
O       -0.068964834   0.010415517   0.048809809



     Writing output data file pwscf.save
     Check: negative starting charge=   -0.016043
     NEW-OLD atomic charge density approx. for the potential
     Check: negative starting charge=   -0.016014

     negative rho (up, down):  4.160E-03 0.000E+00

     total cpu time spent up to now is       13.5 secs

     per-process dynamical memory:    45.8 Mb

     Self-consistent Calculation

     iteration #  1     ecut=    90.00 Ry     beta=0.70
     Davidson diagonalization with overlap
     c_bands:  1 eigenvalues not converged
     ethr =  1.00E-06,  avg # of iterations = 20.0

     negative rho (up, down):  1.087E-03 0.000E+00

     total cpu time spent up to now is       13.9 secs

     total energy              =     -34.17862143 Ry
     Harris-Foulkes estimate   =     -34.17527840 Ry
     estimated scf accuracy    <       0.00042226 Ry

     iteration #  2     ecut=    90.00 Ry     beta=0.70
     Davidson diagonalization with overlap
     c_bands:  1 eigenvalues not converged
     ethr =  5.28E-06,  avg # of iterations = 20.0

     negative rho (up, down):  5.603E-04 0.000E+00

     total cpu time spent up to now is       14.2 secs

     total energy              =     -34.18283932 Ry
     Harris-Foulkes estimate   =     -34.18287202 Ry
     estimated scf accuracy    <       0.00017152 Ry

     iteration #  3     ecut=    90.00 Ry     beta=0.70
     Davidson diagonalization with overlap
     ethr =  2.14E-06,  avg # of iterations = 10.0

     negative rho (up, down):  1.608E-04 0.000E+00

     total cpu time spent up to now is       14.5 secs

     total energy              =     -34.18289432 Ry
     Harris-Foulkes estimate   =     -34.18289480 Ry
     estimated scf accuracy    <       0.00002193 Ry

     iteration #  4     ecut=    90.00 Ry     beta=0.70
     Davidson diagonalization with overlap
     ethr =  2.74E-07,  avg # of iterations =  4.0

     negative rho (up, down):  3.582E-06 0.000E+00

     total cpu time spent up to now is       14.7 secs

     total energy              =     -34.18289911 Ry
     Harris-Foulkes estimate   =     -34.18289909 Ry
     estimated scf accuracy    <       0.00000034 Ry

     iteration #  5     ecut=    90.00 Ry     beta=0.70
     Davidson diagonalization with overlap
     ethr =  4.25E-09,  avg # of iterations =  3.0

     negative rho (up, down):  1.313E-08 0.000E+00

     total cpu time spent up to now is       14.9 secs

     total energy              =     -34.18289917 Ry
     Harris-Foulkes estimate   =     -34.18289926 Ry
     estimated scf accuracy    <       0.00000001 Ry

     iteration #  6     ecut=    90.00 Ry     beta=0.70
     Davidson diagonalization with overlap
     ethr =  1.64E-10,  avg # of iterations =  2.0

     total cpu time spent up to now is       15.0 secs

     End of self-consistent calculation

          k = 0.0000 0.0000 0.0000 (115313 PWs)   bands (ev):

   -25.2071 -12.6282  -9.3484  -7.1028  -0.9419   0.4257   0.7609   1.1200

     the Fermi energy is    -5.1216 ev

!    total energy              =     -34.18289919 Ry
     Harris-Foulkes estimate   =     -34.18289918 Ry
     estimated scf accuracy    <          5.4E-10 Ry

     The total energy is the sum of the following terms:

     one-electron contribution =     -63.78125687 Ry
     hartree contribution      =      33.30405152 Ry
     xc contribution           =      -8.36374387 Ry
     ewald contribution        =       4.65805003 Ry
     smearing contrib. (-TS)   =       0.00000000 Ry

     convergence has been achieved in   6 iterations

     Forces acting on atoms (Ry/au):

     atom    1 type  1   force =     0.01261602    0.00564203    0.00930697
     atom    2 type  1   force =    -0.01366461   -0.00464811   -0.00672204
     atom    3 type  2   force =     0.00104859   -0.00099392   -0.00258493

     Total force =     0.023236     Total SCF correction =     0.000126

     number of scf cycles    =   5
     number of bfgs steps    =   3

     energy   old            =     -34.1802462603 Ry
     energy   new            =     -34.1828991927 Ry

     CASE: energy  _new < energy  _old

     new trust radius        =       0.0288830817 bohr
     new conv_thr            =       0.0000000014 Ry


ATOMIC_POSITIONS (angstrom)
H        0.905261174  -0.106188686   0.114148122
H       -0.297337500  -0.630701679  -0.664873542
O       -0.062622674   0.006768365   0.044712420



     Writing output data file pwscf.save
     Check: negative starting charge=   -0.016014
     NEW-OLD atomic charge density approx. for the potential
     Check: negative starting charge=   -0.015999

     negative rho (up, down):  2.648E-03 0.000E+00

     total cpu time spent up to now is       15.6 secs

     per-process dynamical memory:    45.8 Mb

     Self-consistent Calculation

     iteration #  1     ecut=    90.00 Ry     beta=0.70
     Davidson diagonalization with overlap
     c_bands:  1 eigenvalues not converged
     ethr =  1.00E-06,  avg # of iterations = 20.0

     negative rho (up, down):  6.823E-04 0.000E+00

     total cpu time spent up to now is       16.2 secs

     total energy              =     -34.17940470 Ry
     Harris-Foulkes estimate   =     -34.17798151 Ry
     estimated scf accuracy    <       0.00006511 Ry

     iteration #  2     ecut=    90.00 Ry     beta=0.70
     Davidson diagonalization with overlap
     ethr =  8.14E-07,  avg # of iterations = 11.0

     negative rho (up, down):  1.459E-04 0.000E+00

     total cpu time spent up to now is       16.4 secs

     total energy              =     -34.18350911 Ry
     Harris-Foulkes estimate   =     -34.18349418 Ry
     estimated scf accuracy    <       0.00000650 Ry

     iteration #  3     ecut=    90.00 Ry     beta=0.70
     Davidson diagonalization with overlap
     ethr =  8.13E-08,  avg # of iterations =  3.0

     negative rho (up, down):  1.920E-05 0.000E+00

     total cpu time spent up to now is       16.6 secs

     total energy              =     -34.18350865 Ry
     Harris-Foulkes estimate   =     -34.18351220 Ry
     estimated scf accuracy    <       0.00000416 Ry

     iteration #  4     ecut=    90.00 Ry     beta=0.70
     Davidson diagonalization with overlap
     ethr =  5.21E-08,  avg # of iterations =  3.0

     negative rho (up, down):  4.754E-08 0.000E+00

     total cpu time spent up to now is       16.8 secs

     total energy              =     -34.18350906 Ry
     Harris-Foulkes estimate   =     -34.18350967 Ry
     estimated scf accuracy    <       0.00000010 Ry

     iteration #  5     ecut=    90.00 Ry     beta=0.70
     Davidson diagonalization with overlap
     ethr =  1.29E-09,  avg # of iterations =  2.0

     total cpu time spent up to now is       17.0 secs

     total energy              =     -34.18350903 Ry
     Harris-Foulkes estimate   =     -34.18350910 Ry
     estimated scf accuracy    <          1.6E-09 Ry

     iteration #  6     ecut=    90.00 Ry     beta=0.70
     Davidson diagonalization with overlap
     ethr =  2.05E-11,  avg # of iterations =  3.0

     total cpu time spent up to now is       17.2 secs

     End of self-consistent calculation

          k = 0.0000 0.0000 0.0000 (115313 PWs)   bands (ev):

   -25.1335 -12.7064  -9.2355  -7.0864  -0.9447   0.4258   0.7488   1.1759

     the Fermi energy is    -5.0613 ev

!    total energy              =     -34.18350904 Ry
     Harris-Foulkes estimate   =     -34.18350903 Ry
     estimated scf accuracy    <          2.1E-10 Ry

     The total energy is the sum of the following terms:

     one-electron contribution =     -63.69783889 Ry
     hartree contribution      =      33.26759336 Ry
     xc contribution           =      -8.35792054 Ry
     ewald contribution        =       4.60465703 Ry
     smearing contrib. (-TS)   =       0.00000000 Ry

     convergence has been achieved in   6 iterations

     Forces acting on atoms (Ry/au):

     atom    1 type  1   force =     0.00831444    0.00142491    0.00382616
     atom    2 type  1   force =    -0.00400491    0.00190872    0.00169910
     atom    3 type  2   force =    -0.00430954   -0.00333363   -0.00552526

     Total force =     0.012984     Total SCF correction =     0.000028

     number of scf cycles    =   6
     number of bfgs steps    =   4

     energy   old            =     -34.1828991927 Ry
     energy   new            =     -34.1835090391 Ry

     CASE: energy  _new < energy  _old

     new trust radius        =       0.0161619316 bohr
     new conv_thr            =       0.0000000006 Ry


ATOMIC_POSITIONS (angstrom)
H        0.910653324  -0.102581187   0.119720947
H       -0.304879180  -0.631567110  -0.666718557
O       -0.060473145   0.004026297   0.040984610



     Writing output data file pwscf.save
     Check: negative starting charge=   -0.015999
     NEW-OLD atomic charge density approx. for the potential
     Check: negative starting charge=   -0.015992

     negative rho (up, down):  1.532E-03 0.000E+00

     total cpu time spent up to now is       17.7 secs

     per-process dynamical memory:    45.8 Mb

     Self-consistent Calculation

     iteration #  1     ecut=    90.00 Ry     beta=0.70
     Davidson diagonalization with overlap
     ethr =  1.00E-06,  avg # of iterations =  8.0

     negative rho (up, down):  3.878E-04 0.000E+00

     total cpu time spent up to now is       18.1 secs

     total energy              =     -34.17954548 Ry
     Harris-Foulkes estimate   =     -34.17929992 Ry
     estimated scf accuracy    <       0.00002096 Ry

     iteration #  2     ecut=    90.00 Ry     beta=0.70
     Davidson diagonalization with overlap
     ethr =  2.62E-07,  avg # of iterations =  5.0

     negative rho (up, down):  4.135E-05 0.000E+00

     total cpu time spent up to now is       18.3 secs

     total energy              =     -34.18363006 Ry
     Harris-Foulkes estimate   =     -34.18362688 Ry
     estimated scf accuracy    <       0.00000133 Ry

     iteration #  3     ecut=    90.00 Ry     beta=0.70
     Davidson diagonalization with overlap
     ethr =  1.67E-08,  avg # of iterations =  3.0

     negative rho (up, down):  4.798E-06 0.000E+00

     total cpu time spent up to now is       18.5 secs

     total energy              =     -34.18362975 Ry
     Harris-Foulkes estimate   =     -34.18363042 Ry
     estimated scf accuracy    <       0.00000026 Ry

     iteration #  4     ecut=    90.00 Ry     beta=0.70
     Davidson diagonalization with overlap
     ethr =  3.30E-09,  avg # of iterations =  2.0

     total cpu time spent up to now is       18.8 secs

     total energy              =     -34.18362968 Ry
     Harris-Foulkes estimate   =     -34.18362985 Ry
     estimated scf accuracy    <       0.00000006 Ry

     iteration #  5     ecut=    90.00 Ry     beta=0.70
     Davidson diagonalization with overlap
     ethr =  7.44E-10,  avg # of iterations =  2.0

     total cpu time spent up to now is       18.9 secs

     End of self-consistent calculation

          k = 0.0000 0.0000 0.0000 (115313 PWs)   bands (ev):

   -25.0951 -12.7522  -9.1715  -7.0774  -0.9462   0.4260   0.7420   1.1750

     the Fermi energy is    -5.0524 ev

!    total energy              =     -34.18362957 Ry
     Harris-Foulkes estimate   =     -34.18362969 Ry
     estimated scf accuracy    <          3.2E-10 Ry

     The total energy is the sum of the following terms:

     one-electron contribution =     -63.65631870 Ry
     hartree contribution      =      33.24975501 Ry
     xc contribution           =      -8.35502884 Ry
     ewald contribution        =       4.57796295 Ry
     smearing contrib. (-TS)   =       0.00000000 Ry

     convergence has been achieved in   5 iterations

     Forces acting on atoms (Ry/au):

     atom    1 type  1   force =     0.00084174   -0.00040322    0.00030028
     atom    2 type  1   force =     0.00004508    0.00144091    0.00179987
     atom    3 type  2   force =    -0.00088682   -0.00103769   -0.00210015

     Total force =     0.003543     Total SCF correction =     0.000086

     number of scf cycles    =   7
     number of bfgs steps    =   5

     energy   old            =     -34.1835090391 Ry
     energy   new            =     -34.1836295709 Ry

     CASE: energy  _new < energy  _old

     new trust radius        =       0.0014346986 bohr
     new conv_thr            =       0.0000000001 Ry


ATOMIC_POSITIONS (angstrom)
H        0.911019050  -0.102607476   0.120102909
H       -0.305329882  -0.631324274  -0.666377825
O       -0.060388168   0.003809750   0.040261917



     Writing output data file pwscf.save
     Check: negative starting charge=   -0.015992
     NEW-OLD atomic charge density approx. for the potential
     Check: negative starting charge=   -0.015991

     negative rho (up, down):  1.648E-04 0.000E+00

     total cpu time spent up to now is       19.5 secs

     per-process dynamical memory:    45.8 Mb

     Self-consistent Calculation

     iteration #  1     ecut=    90.00 Ry     beta=0.70
     Davidson diagonalization with overlap
     ethr =  1.00E-06,  avg # of iterations =  3.0

     Threshold (ethr) on eigenvalues was too large:
     Diagonalizing with lowered threshold

     Davidson diagonalization with overlap
     ethr =  9.45E-09,  avg # of iterations =  2.0

     negative rho (up, down):  3.262E-05 0.000E+00

     total cpu time spent up to now is       19.9 secs

     total energy              =     -34.18363310 Ry
     Harris-Foulkes estimate   =     -34.18363348 Ry
     estimated scf accuracy    <       0.00000068 Ry

     iteration #  2     ecut=    90.00 Ry     beta=0.70
     Davidson diagonalization with overlap
     ethr =  8.53E-09,  avg # of iterations =  2.0

     negative rho (up, down):  1.338E-05 0.000E+00

     total cpu time spent up to now is       20.1 secs

     total energy              =     -34.18363332 Ry
     Harris-Foulkes estimate   =     -34.18363343 Ry
     estimated scf accuracy    <       0.00000034 Ry

     iteration #  3     ecut=    90.00 Ry     beta=0.70
     Davidson diagonalization with overlap
     ethr =  4.28E-09,  avg # of iterations =  2.0

     negative rho (up, down):  7.623E-07 0.000E+00

     total cpu time spent up to now is       20.3 secs

     total energy              =     -34.18363331 Ry
     Harris-Foulkes estimate   =     -34.18363343 Ry
     estimated scf accuracy    <       0.00000003 Ry

     iteration #  4     ecut=    90.00 Ry     beta=0.70
     Davidson diagonalization with overlap
     ethr =  3.75E-10,  avg # of iterations =  2.0

     total cpu time spent up to now is       20.4 secs

     total energy              =     -34.18363330 Ry
     Harris-Foulkes estimate   =     -34.18363332 Ry
     estimated scf accuracy    <          5.1E-10 Ry

     iteration #  5     ecut=    90.00 Ry     beta=0.70
     Davidson diagonalization with overlap
     ethr =  6.31E-12,  avg # of iterations =  3.0

     total cpu time spent up to now is       20.6 secs

     End of self-consistent calculation

          k = 0.0000 0.0000 0.0000 (115313 PWs)   bands (ev):

   -25.0965 -12.7595  -9.1671  -7.0775  -0.9451   0.4263   0.7425   1.1749

     the Fermi energy is    -5.0528 ev

!    total energy              =     -34.18363334 Ry
     Harris-Foulkes estimate   =     -34.18363330 Ry
     estimated scf accuracy    <          4.3E-11 Ry

     The total energy is the sum of the following terms:

     one-electron contribution =     -63.66250174 Ry
     hartree contribution      =      33.25287604 Ry
     xc contribution           =      -8.35554210 Ry
     ewald contribution        =       4.58153447 Ry
     smearing contrib. (-TS)   =       0.00000000 Ry

     convergence has been achieved in   5 iterations

     Forces acting on atoms (Ry/au):

     atom    1 type  1   force =     0.00004419   -0.00047865    0.00004147
     atom    2 type  1   force =    -0.00013579    0.00031239    0.00056405
     atom    3 type  2   force =     0.00009160    0.00016627   -0.00060552

     Total force =     0.001034     Total SCF correction =     0.000088

     bfgs converged in   8 scf cycles and   6 bfgs steps
     (criteria: energy <  1.0E-04, force <  1.0E-03)

     End of BFGS Geometry Optimization

     Final energy   =     -34.1836333362 Ry
Begin final coordinates

ATOMIC_POSITIONS (angstrom)
H        0.911019050  -0.102607476   0.120102909
H       -0.305329882  -0.631324274  -0.666377825
O       -0.060388168   0.003809750   0.040261917
End final coordinates



     Writing output data file pwscf.save
 
     init_run     :      0.53s CPU      0.62s WALL (       1 calls)
     electrons    :     14.00s CPU     16.60s WALL (       8 calls)
     update_pot   :      1.80s CPU      2.21s WALL (       7 calls)
     forces       :      0.53s CPU      0.54s WALL (       8 calls)

     Called by init_run:
     wfcinit      :      0.03s CPU      0.04s WALL (       1 calls)
     potinit      :      0.11s CPU      0.12s WALL (       1 calls)

     Called by electrons:
     c_bands      :      6.69s CPU      6.91s WALL (      63 calls)
     sum_band     :      1.29s CPU      1.33s WALL (      63 calls)
     v_of_rho     :      3.71s CPU      3.93s WALL (      70 calls)
     mix_rho      :      1.59s CPU      2.88s WALL (      63 calls)

     Called by c_bands:
     init_us_2    :      0.03s CPU      0.04s WALL (     127 calls)
     cegterg      :      6.65s CPU      6.85s WALL (      63 calls)

     Called by sum_band:

     Called by *egterg:
     h_psi        :      5.66s CPU      5.78s WALL (     445 calls)
     g_psi        :      0.05s CPU      0.05s WALL (     381 calls)
     cdiaghg      :      0.11s CPU      0.11s WALL (     436 calls)

     Called by h_psi:
     h_psi:pot    :      5.61s CPU      5.72s WALL (     445 calls)
     h_psi:calbec :      0.10s CPU      0.17s WALL (     445 calls)
     vloc_psi     :      5.46s CPU      5.51s WALL (     445 calls)
     add_vuspsi   :      0.04s CPU      0.04s WALL (     445 calls)

     General routines
     calbec       :      0.10s CPU      0.17s WALL (     477 calls)
     fft          :      2.63s CPU      2.84s WALL (     787 calls)
     fftw         :      5.43s CPU      5.49s WALL (    4300 calls)
     davcio       :      0.21s CPU      1.29s WALL (     581 calls)
 
     Parallel routines
     fft_scatter  :      2.92s CPU      3.16s WALL (    5087 calls)
 
     PWSCF        :    17.43s CPU        21.05s WALL

 
   This run was terminated on:   2:51:17  28Jul2018            

=------------------------------------------------------------------------------=
   JOB DONE.
=------------------------------------------------------------------------------=
