
     Program PWSCF v.6.0 (svn rev. 13079) starts on 28Jul2018 at  2:17:23 

     This program is part of the open-source Quantum ESPRESSO suite
     for quantum simulation of materials; please cite
         "P. Giannozzi et al., J. Phys.:Condens. Matter 21 395502 (2009);
          URL http://www.quantum-espresso.org", 
     in publications or presentations arising from this work. More details at
     http://www.quantum-espresso.org/quote

     Parallel version (MPI), running on    28 processors
     R & G space division:  proc/nbgrp/npool/nimage =      28
     Reading input from ../QMCmins/relax-13.in

     Current dimensions of program PWSCF are:
     Max number of different atomic species (ntypx) = 10
     Max number of k-points (npk) =  40000
     Max angular momentum in pseudopotentials (lmaxx) =  3
     Message from routine iosys:
     pot_extrapolation='second-order' not available, using 'atomic'
     Message from routine iosys:
     wfc_extrapolation='second-order' not available, using 'atomic'

     Subspace diagonalization in iterative solution of the eigenvalue problem:
     a serial algorithm will be used

 
     Parallelization info
     --------------------
     sticks:   dense  smooth     PW     G-vecs:    dense   smooth      PW
     Min         408     408    102                32936    32936    4116
     Max         409     409    103                32943    32943    4121
     Sum       11449   11449   2869               922329   922329  115313
 


     bravais-lattice index     =            1
     lattice parameter (alat)  =      20.0000  a.u.
     unit-cell volume          =    8000.0000 (a.u.)^3
     number of atoms/cell      =            3
     number of atomic types    =            2
     number of electrons       =         8.00
     number of Kohn-Sham states=            8
     kinetic-energy cutoff     =      90.0000  Ry
     charge density cutoff     =     360.0000  Ry
     convergence threshold     =      1.0E-08
     mixing beta               =       0.7000
     number of iterations used =            8  plain     mixing
     Exchange-correlation      = BLYP ( 1  3  1  3 0 0)
     nstep                     =           50


     celldm(1)=  20.000000  celldm(2)=   0.000000  celldm(3)=   0.000000
     celldm(4)=   0.000000  celldm(5)=   0.000000  celldm(6)=   0.000000

     crystal axes: (cart. coord. in units of alat)
               a(1) = (   1.000000   0.000000   0.000000 )  
               a(2) = (   0.000000   1.000000   0.000000 )  
               a(3) = (   0.000000   0.000000   1.000000 )  

     reciprocal axes: (cart. coord. in units 2 pi/alat)
               b(1) = (  1.000000  0.000000  0.000000 )  
               b(2) = (  0.000000  1.000000  0.000000 )  
               b(3) = (  0.000000  0.000000  1.000000 )  


     PseudoPot. # 1 for  H read from file:
     ../H.blyp-hgh.UPF
     MD5 check sum: c576e69559cde411e611be972c763230
     Pseudo is Norm-conserving, Zval =  1.0
     Generated in analytical, separable form
     Using radial grid of  929 points,  0 beta functions with: 

     PseudoPot. # 2 for  O read from file:
     ../O.blyp-hgh.UPF
     MD5 check sum: d0b7156309aa9befef28faac7bc56342
     Pseudo is Norm-conserving, Zval =  6.0
     Generated in analytical, separable form
     Using radial grid of 1095 points,  1 beta functions with: 
                l(1) =   0

     atomic species   valence    mass     pseudopotential
        H              1.00     1.01000      H( 1.00)
        O              6.00    16.00000      O( 1.00)

     No symmetry found



   Cartesian axes

     site n.     atom                  positions (alat units)
         1           H   tau(   1) = (  -0.0770531   0.0076794   0.0517681  )
         2           H   tau(   2) = (   0.0027917   0.0501949  -0.0650074  )
         3           O   tau(   3) = (   0.0046877  -0.0036533   0.0064137  )

     number of k points=     1  Marzari-Vanderbilt smearing, width (Ry)=  0.0250
                       cart. coord. in units 2pi/alat
        k(    1) = (   0.0000000   0.0000000   0.0000000), wk =   2.0000000

     Dense  grid:   922329 G-vectors     FFT dimensions: ( 125, 125, 125)

     Estimated max dynamical RAM per process >      31.67Mb

     Estimated total allocated dynamical RAM >     886.64Mb

     Initial potential from superposition of free atoms
     Check: negative starting charge=   -0.015949

     starting charge    7.99998, renormalised to    8.00000

     negative rho (up, down):  1.595E-02 0.000E+00
     Starting wfc are    6 randomized atomic wfcs +    2 random wfc

     total cpu time spent up to now is        0.7 secs

     per-process dynamical memory:    33.5 Mb

     Self-consistent Calculation

     iteration #  1     ecut=    90.00 Ry     beta=0.70
     Davidson diagonalization with overlap
     ethr =  1.00E-02,  avg # of iterations =  8.0

     negative rho (up, down):  4.653E-03 0.000E+00

     total cpu time spent up to now is        1.2 secs

     total energy              =     -34.03222820 Ry
     Harris-Foulkes estimate   =     -34.27295854 Ry
     estimated scf accuracy    <       0.36186107 Ry

     iteration #  2     ecut=    90.00 Ry     beta=0.70
     Davidson diagonalization with overlap
     ethr =  4.52E-03,  avg # of iterations =  2.0

     negative rho (up, down):  2.785E-03 0.000E+00

     total cpu time spent up to now is        1.4 secs

     total energy              =     -34.09108354 Ry
     Harris-Foulkes estimate   =     -34.27247877 Ry
     estimated scf accuracy    <       0.38771780 Ry

     iteration #  3     ecut=    90.00 Ry     beta=0.70
     Davidson diagonalization with overlap
     ethr =  4.52E-03,  avg # of iterations =  2.0

     negative rho (up, down):  1.794E-04 0.000E+00

     total cpu time spent up to now is        1.5 secs

     total energy              =     -34.17881975 Ry
     Harris-Foulkes estimate   =     -34.17980209 Ry
     estimated scf accuracy    <       0.00601355 Ry

     iteration #  4     ecut=    90.00 Ry     beta=0.70
     Davidson diagonalization with overlap
     ethr =  7.52E-05,  avg # of iterations =  6.0

     negative rho (up, down):  2.203E-06 0.000E+00

     total cpu time spent up to now is        1.8 secs

     total energy              =     -34.18048614 Ry
     Harris-Foulkes estimate   =     -34.18061968 Ry
     estimated scf accuracy    <       0.00035639 Ry

     iteration #  5     ecut=    90.00 Ry     beta=0.70
     Davidson diagonalization with overlap
     ethr =  4.45E-06,  avg # of iterations = 10.0

     negative rho (up, down):  1.977E-07 0.000E+00

     total cpu time spent up to now is        2.0 secs

     total energy              =     -34.18050884 Ry
     Harris-Foulkes estimate   =     -34.18051575 Ry
     estimated scf accuracy    <       0.00002654 Ry

     iteration #  6     ecut=    90.00 Ry     beta=0.70
     Davidson diagonalization with overlap
     ethr =  3.32E-07,  avg # of iterations =  2.0

     negative rho (up, down):  1.520E-07 0.000E+00

     total cpu time spent up to now is        2.2 secs

     total energy              =     -34.18051180 Ry
     Harris-Foulkes estimate   =     -34.18051165 Ry
     estimated scf accuracy    <       0.00000163 Ry

     iteration #  7     ecut=    90.00 Ry     beta=0.70
     Davidson diagonalization with overlap
     ethr =  2.04E-08,  avg # of iterations =  2.0

     total cpu time spent up to now is        2.5 secs

     total energy              =     -34.18051176 Ry
     Harris-Foulkes estimate   =     -34.18051202 Ry
     estimated scf accuracy    <       0.00000004 Ry

     iteration #  8     ecut=    90.00 Ry     beta=0.70
     Davidson diagonalization with overlap
     ethr =  5.56E-10,  avg # of iterations =  2.0

     total cpu time spent up to now is        2.7 secs

     total energy              =     -34.18051162 Ry
     Harris-Foulkes estimate   =     -34.18051177 Ry
     estimated scf accuracy    <       0.00000001 Ry

     iteration #  9     ecut=    90.00 Ry     beta=0.70
     Davidson diagonalization with overlap
     ethr =  1.76E-10,  avg # of iterations =  2.0

     total cpu time spent up to now is        2.8 secs

     End of self-consistent calculation

          k = 0.0000 0.0000 0.0000 (115313 PWs)   bands (ev):

   -25.1483 -13.0047  -9.0114  -7.0795  -0.9194   0.4320   0.7587   1.1263

     the Fermi energy is    -5.1022 ev

!    total energy              =     -34.18051158 Ry
     Harris-Foulkes estimate   =     -34.18051162 Ry
     estimated scf accuracy    <          9.0E-10 Ry

     The total energy is the sum of the following terms:

     one-electron contribution =     -63.86385426 Ry
     hartree contribution      =      33.35425356 Ry
     xc contribution           =      -8.37250688 Ry
     ewald contribution        =       4.70159600 Ry
     smearing contrib. (-TS)   =       0.00000000 Ry

     convergence has been achieved in   9 iterations

     Forces acting on atoms (Ry/au):

     atom    1 type  1   force =     0.02625628    0.00224572   -0.02169007
     atom    2 type  1   force =    -0.00989970    0.04462982   -0.05221627
     atom    3 type  2   force =    -0.01635658   -0.04687554    0.07390633

     Total force =     0.117933     Total SCF correction =     0.000021

     BFGS Geometry Optimization

     number of scf cycles    =   1
     number of bfgs steps    =   0

     energy   new            =     -34.1805115768 Ry

     new trust radius        =       0.0890337052 bohr
     new conv_thr            =       0.0000000100 Ry


ATOMIC_POSITIONS (angstrom)
H       -0.801600777   0.082463386   0.536412110
H        0.024307306   0.554857083  -0.715640658
O        0.040957471  -0.063470469   0.106989548



     Writing output data file pwscf.save
     Check: negative starting charge=   -0.015949
     NEW-OLD atomic charge density approx. for the potential
     Check: negative starting charge=   -0.015945

     negative rho (up, down):  1.592E-02 0.000E+00

     total cpu time spent up to now is        3.5 secs

     per-process dynamical memory:    45.8 Mb

     Self-consistent Calculation

     iteration #  1     ecut=    90.00 Ry     beta=0.70
     Davidson diagonalization with overlap
     c_bands:  1 eigenvalues not converged
     ethr =  1.00E-06,  avg # of iterations = 20.0

     negative rho (up, down):  4.166E-03 0.000E+00

     total cpu time spent up to now is        4.0 secs

     total energy              =     -34.16971954 Ry
     Harris-Foulkes estimate   =     -34.15430812 Ry
     estimated scf accuracy    <       0.00346131 Ry

     iteration #  2     ecut=    90.00 Ry     beta=0.70
     Davidson diagonalization with overlap
     ethr =  4.33E-05,  avg # of iterations =  6.0

     negative rho (up, down):  2.004E-03 0.000E+00

     total cpu time spent up to now is        4.2 secs

     total energy              =     -34.17349516 Ry
     Harris-Foulkes estimate   =     -34.17097685 Ry
     estimated scf accuracy    <       0.00093297 Ry

     iteration #  3     ecut=    90.00 Ry     beta=0.70
     Davidson diagonalization with overlap
     ethr =  1.17E-05,  avg # of iterations = 15.0

     negative rho (up, down):  8.054E-04 0.000E+00

     total cpu time spent up to now is        4.6 secs

     total energy              =     -34.17447756 Ry
     Harris-Foulkes estimate   =     -34.17383981 Ry
     estimated scf accuracy    <       0.00020468 Ry

     iteration #  4     ecut=    90.00 Ry     beta=0.70
     Davidson diagonalization with overlap
     ethr =  2.56E-06,  avg # of iterations = 15.0

     negative rho (up, down):  1.866E-05 0.000E+00

     total cpu time spent up to now is        4.9 secs

     total energy              =     -34.17862359 Ry
     Harris-Foulkes estimate   =     -34.17859970 Ry
     estimated scf accuracy    <       0.00000456 Ry

     iteration #  5     ecut=    90.00 Ry     beta=0.70
     Davidson diagonalization with overlap
     ethr =  5.70E-08,  avg # of iterations = 19.0

     total cpu time spent up to now is        5.3 secs

     total energy              =     -34.17862539 Ry
     Harris-Foulkes estimate   =     -34.17862534 Ry
     estimated scf accuracy    <       0.00000008 Ry

     iteration #  6     ecut=    90.00 Ry     beta=0.70
     Davidson diagonalization with overlap
     ethr =  9.78E-10,  avg # of iterations =  2.0

     total cpu time spent up to now is        5.4 secs

     End of self-consistent calculation

          k = 0.0000 0.0000 0.0000 (115313 PWs)   bands (ev):

   -24.9763 -12.6940  -9.0964  -7.0511  -0.9970   0.4013   0.7205   1.1218

     the Fermi energy is    -5.0626 ev

!    total energy              =     -34.17862538 Ry
     Harris-Foulkes estimate   =     -34.17862541 Ry
     estimated scf accuracy    <          4.3E-09 Ry

     The total energy is the sum of the following terms:

     one-electron contribution =     -63.39730761 Ry
     hartree contribution      =      33.12822835 Ry
     xc contribution           =      -8.33601962 Ry
     ewald contribution        =       4.42647350 Ry
     smearing contrib. (-TS)   =       0.00000000 Ry

     convergence has been achieved in   6 iterations

     Forces acting on atoms (Ry/au):

     atom    1 type  1   force =    -0.04490357    0.01031597    0.01824106
     atom    2 type  1   force =    -0.00312769   -0.04706531    0.06463330
     atom    3 type  2   force =     0.04803126    0.03674934   -0.08287436

     Total force =     0.139225     Total SCF correction =     0.000070

     number of scf cycles    =   2
     number of bfgs steps    =   1

     energy   old            =     -34.1805115768 Ry
     energy   new            =     -34.1786253757 Ry

     CASE: energy  _new > energy  _old

     new trust radius        =       0.0392005747 bohr
     new conv_thr            =       0.0000000100 Ry


ATOMIC_POSITIONS (angstrom)
H       -0.809377524   0.081798234   0.542836410
H        0.027239460   0.541638346  -0.700174919
O        0.045802064  -0.049586579   0.085099510



     Writing output data file pwscf.save
     Check: negative starting charge=   -0.015945
     NEW-OLD atomic charge density approx. for the potential
     Check: negative starting charge=   -0.015981

     negative rho (up, down):  9.037E-03 0.000E+00

     total cpu time spent up to now is        6.0 secs

     per-process dynamical memory:    45.8 Mb

     Self-consistent Calculation

     iteration #  1     ecut=    90.00 Ry     beta=0.70
     Davidson diagonalization with overlap
     ethr =  1.00E-06,  avg # of iterations = 19.0

     negative rho (up, down):  2.371E-03 0.000E+00

     total cpu time spent up to now is        6.5 secs

     total energy              =     -34.17773732 Ry
     Harris-Foulkes estimate   =     -34.16863750 Ry
     estimated scf accuracy    <       0.00110319 Ry

     iteration #  2     ecut=    90.00 Ry     beta=0.70
     Davidson diagonalization with overlap
     ethr =  1.38E-05,  avg # of iterations =  7.0

     negative rho (up, down):  1.225E-03 0.000E+00

     total cpu time spent up to now is        6.8 secs

     total energy              =     -34.17901650 Ry
     Harris-Foulkes estimate   =     -34.17821231 Ry
     estimated scf accuracy    <       0.00043883 Ry

     iteration #  3     ecut=    90.00 Ry     beta=0.70
     Davidson diagonalization with overlap
     ethr =  5.49E-06,  avg # of iterations = 16.0

     negative rho (up, down):  4.220E-04 0.000E+00

     total cpu time spent up to now is        7.1 secs

     total energy              =     -34.18332243 Ry
     Harris-Foulkes estimate   =     -34.18323165 Ry
     estimated scf accuracy    <       0.00005158 Ry

     iteration #  4     ecut=    90.00 Ry     beta=0.70
     Davidson diagonalization with overlap
     c_bands:  1 eigenvalues not converged
     ethr =  6.45E-07,  avg # of iterations = 20.0

     negative rho (up, down):  1.035E-05 0.000E+00

     total cpu time spent up to now is        7.4 secs

     total energy              =     -34.18334000 Ry
     Harris-Foulkes estimate   =     -34.18333540 Ry
     estimated scf accuracy    <       0.00000134 Ry

     iteration #  5     ecut=    90.00 Ry     beta=0.70
     Davidson diagonalization with overlap
     ethr =  1.67E-08,  avg # of iterations = 11.0

     negative rho (up, down):  4.692E-08 0.000E+00

     total cpu time spent up to now is        7.7 secs

     total energy              =     -34.18334004 Ry
     Harris-Foulkes estimate   =     -34.18334052 Ry
     estimated scf accuracy    <       0.00000003 Ry

     iteration #  6     ecut=    90.00 Ry     beta=0.70
     Davidson diagonalization with overlap
     ethr =  3.28E-10,  avg # of iterations =  2.0

     total cpu time spent up to now is        7.8 secs

     End of self-consistent calculation

          k = 0.0000 0.0000 0.0000 (115313 PWs)   bands (ev):

   -25.0532 -12.8715  -9.0475  -7.0656  -0.9415   0.4284   0.7390   1.1254

     the Fermi energy is    -5.0791 ev

!    total energy              =     -34.18333991 Ry
     Harris-Foulkes estimate   =     -34.18334005 Ry
     estimated scf accuracy    <          2.1E-09 Ry

     The total energy is the sum of the following terms:

     one-electron contribution =     -63.64580052 Ry
     hartree contribution      =      33.24873659 Ry
     xc contribution           =      -8.35484098 Ry
     ewald contribution        =       4.56856500 Ry
     smearing contrib. (-TS)   =       0.00000000 Ry

     convergence has been achieved in   6 iterations

     Forces acting on atoms (Ry/au):

     atom    1 type  1   force =    -0.00312999    0.00488793   -0.00447241
     atom    2 type  1   force =    -0.00645251   -0.00202549    0.00729263
     atom    3 type  2   force =     0.00958250   -0.00286244   -0.00282021

     Total force =     0.016143     Total SCF correction =     0.000139

     number of scf cycles    =   3
     number of bfgs steps    =   1

     energy   old            =     -34.1805115768 Ry
     energy   new            =     -34.1833399145 Ry

     CASE: energy  _new < energy  _old

     new trust radius        =       0.0096880308 bohr
     new conv_thr            =       0.0000000010 Ry


ATOMIC_POSITIONS (angstrom)
H       -0.810421847   0.084322081   0.540121689
H        0.023764560   0.541533218  -0.697556754
O        0.050321287  -0.052005299   0.085196065



     Writing output data file pwscf.save
     Check: negative starting charge=   -0.015981
     NEW-OLD atomic charge density approx. for the potential
     Check: negative starting charge=   -0.015988

     negative rho (up, down):  1.525E-03 0.000E+00

     total cpu time spent up to now is        8.4 secs

     per-process dynamical memory:    45.8 Mb

     Self-consistent Calculation

     iteration #  1     ecut=    90.00 Ry     beta=0.70
     Davidson diagonalization with overlap
     c_bands:  1 eigenvalues not converged
     ethr =  1.00E-06,  avg # of iterations = 20.0

     negative rho (up, down):  3.849E-04 0.000E+00

     total cpu time spent up to now is        8.8 secs

     total energy              =     -34.17940470 Ry
     Harris-Foulkes estimate   =     -34.17915111 Ry
     estimated scf accuracy    <       0.00002609 Ry

     iteration #  2     ecut=    90.00 Ry     beta=0.70
     Davidson diagonalization with overlap
     c_bands:  1 eigenvalues not converged
     ethr =  3.26E-07,  avg # of iterations = 20.0

     negative rho (up, down):  2.156E-04 0.000E+00

     total cpu time spent up to now is        9.1 secs

     total energy              =     -34.18348985 Ry
     Harris-Foulkes estimate   =     -34.18349736 Ry
     estimated scf accuracy    <       0.00001853 Ry

     iteration #  3     ecut=    90.00 Ry     beta=0.70
     Davidson diagonalization with overlap
     ethr =  2.32E-07,  avg # of iterations = 13.0

     negative rho (up, down):  2.131E-05 0.000E+00

     total cpu time spent up to now is        9.4 secs

     total energy              =     -34.18349751 Ry
     Harris-Foulkes estimate   =     -34.18349453 Ry
     estimated scf accuracy    <       0.00000077 Ry

     iteration #  4     ecut=    90.00 Ry     beta=0.70
     Davidson diagonalization with overlap
     ethr =  9.65E-09,  avg # of iterations =  3.0

     negative rho (up, down):  2.742E-07 0.000E+00

     total cpu time spent up to now is        9.6 secs

     total energy              =     -34.18349825 Ry
     Harris-Foulkes estimate   =     -34.18349775 Ry
     estimated scf accuracy    <       0.00000001 Ry

     iteration #  5     ecut=    90.00 Ry     beta=0.70
     Davidson diagonalization with overlap
     ethr =  1.75E-10,  avg # of iterations =  3.0

     total cpu time spent up to now is        9.7 secs

     End of self-consistent calculation

          k = 0.0000 0.0000 0.0000 (115313 PWs)   bands (ev):

   -25.0481 -12.8121  -9.0887  -7.0663  -0.9483   0.4262   0.7372   1.1251

     the Fermi energy is    -5.0781 ev

!    total energy              =     -34.18349834 Ry
     Harris-Foulkes estimate   =     -34.18349826 Ry
     estimated scf accuracy    <          5.9E-10 Ry

     The total energy is the sum of the following terms:

     one-electron contribution =     -63.60700517 Ry
     hartree contribution      =      33.22886779 Ry
     xc contribution           =      -8.35161553 Ry
     ewald contribution        =       4.54625456 Ry
     smearing contrib. (-TS)   =       0.00000000 Ry

     convergence has been achieved in   5 iterations

     Forces acting on atoms (Ry/au):

     atom    1 type  1   force =     0.00409030    0.00216392   -0.00608514
     atom    2 type  1   force =    -0.00402101   -0.00185412    0.00532418
     atom    3 type  2   force =    -0.00006929   -0.00030980    0.00076096

     Total force =     0.010348     Total SCF correction =     0.000414

     number of scf cycles    =   4
     number of bfgs steps    =   2

     energy   old            =     -34.1833399145 Ry
     energy   new            =     -34.1834983395 Ry

     CASE: energy  _new < energy  _old

     new trust radius        =       0.0177190433 bohr
     new conv_thr            =       0.0000000002 Ry


ATOMIC_POSITIONS (angstrom)
H       -0.807640122   0.088384424   0.532395569
H        0.017232706   0.540089828  -0.690986327
O        0.054071417  -0.054624253   0.086351758



     Writing output data file pwscf.save
     Check: negative starting charge=   -0.015988
     NEW-OLD atomic charge density approx. for the potential
     Check: negative starting charge=   -0.015999

     negative rho (up, down):  1.416E-03 0.000E+00

     total cpu time spent up to now is       10.3 secs

     per-process dynamical memory:    45.8 Mb

     Self-consistent Calculation

     iteration #  1     ecut=    90.00 Ry     beta=0.70
     Davidson diagonalization with overlap
     c_bands:  1 eigenvalues not converged
     ethr =  1.00E-06,  avg # of iterations = 20.0

     negative rho (up, down):  3.556E-04 0.000E+00

     total cpu time spent up to now is       10.8 secs

     total energy              =     -34.17953787 Ry
     Harris-Foulkes estimate   =     -34.17936698 Ry
     estimated scf accuracy    <       0.00002868 Ry

     iteration #  2     ecut=    90.00 Ry     beta=0.70
     Davidson diagonalization with overlap
     c_bands:  1 eigenvalues not converged
     ethr =  3.58E-07,  avg # of iterations = 20.0

     negative rho (up, down):  1.363E-04 0.000E+00

     total cpu time spent up to now is       11.1 secs

     total energy              =     -34.18362189 Ry
     Harris-Foulkes estimate   =     -34.18362252 Ry
     estimated scf accuracy    <       0.00000720 Ry

     iteration #  3     ecut=    90.00 Ry     beta=0.70
     Davidson diagonalization with overlap
     ethr =  9.00E-08,  avg # of iterations = 14.0

     negative rho (up, down):  6.580E-06 0.000E+00

     total cpu time spent up to now is       11.4 secs

     total energy              =     -34.18362726 Ry
     Harris-Foulkes estimate   =     -34.18362504 Ry
     estimated scf accuracy    <       0.00000282 Ry

     iteration #  4     ecut=    90.00 Ry     beta=0.70
     Davidson diagonalization with overlap
     ethr =  3.52E-08,  avg # of iterations =  9.0

     total cpu time spent up to now is       11.6 secs

     total energy              =     -34.18362824 Ry
     Harris-Foulkes estimate   =     -34.18362785 Ry
     estimated scf accuracy    <       0.00000001 Ry

     iteration #  5     ecut=    90.00 Ry     beta=0.70
     Davidson diagonalization with overlap
     ethr =  1.68E-10,  avg # of iterations =  2.0

     total cpu time spent up to now is       11.9 secs

     total energy              =     -34.18362829 Ry
     Harris-Foulkes estimate   =     -34.18362825 Ry
     estimated scf accuracy    <          9.6E-10 Ry

     iteration #  6     ecut=    90.00 Ry     beta=0.70
     Davidson diagonalization with overlap
     ethr =  1.21E-11,  avg # of iterations =  2.0

     total cpu time spent up to now is       12.1 secs

     End of self-consistent calculation

          k = 0.0000 0.0000 0.0000 (115313 PWs)   bands (ev):

   -25.1004 -12.7768  -9.1569  -7.0782  -0.9426   0.4272   0.7467   1.1241

     the Fermi energy is    -5.0919 ev

!    total energy              =     -34.18362832 Ry
     Harris-Foulkes estimate   =     -34.18362829 Ry
     estimated scf accuracy    <          1.5E-10 Ry

     The total energy is the sum of the following terms:

     one-electron contribution =     -63.67768823 Ry
     hartree contribution      =      33.26043855 Ry
     xc contribution           =      -8.35678503 Ry
     ewald contribution        =       4.59040640 Ry
     smearing contrib. (-TS)   =       0.00000000 Ry

     convergence has been achieved in   6 iterations

     Forces acting on atoms (Ry/au):

     atom    1 type  1   force =     0.00034700    0.00024575   -0.00066858
     atom    2 type  1   force =    -0.00048608    0.00142564   -0.00171182
     atom    3 type  2   force =     0.00013908   -0.00167139    0.00238040

     Total force =     0.003782     Total SCF correction =     0.000012

     number of scf cycles    =   5
     number of bfgs steps    =   3

     energy   old            =     -34.1834983395 Ry
     energy   new            =     -34.1836283153 Ry

     CASE: energy  _new < energy  _old

     new trust radius        =       0.0021617254 bohr
     new conv_thr            =       0.0000000001 Ry


ATOMIC_POSITIONS (angstrom)
H       -0.807530656   0.088816253   0.531666913
H        0.016558331   0.540363179  -0.690959233
O        0.054636326  -0.055329433   0.087053319



     Writing output data file pwscf.save
     Check: negative starting charge=   -0.015999
     NEW-OLD atomic charge density approx. for the potential
     Check: negative starting charge=   -0.016000

     negative rho (up, down):  2.786E-04 0.000E+00

     total cpu time spent up to now is       12.7 secs

     per-process dynamical memory:    45.8 Mb

     Self-consistent Calculation

     iteration #  1     ecut=    90.00 Ry     beta=0.70
     Davidson diagonalization with overlap
     ethr =  1.00E-06,  avg # of iterations =  4.0

     Threshold (ethr) on eigenvalues was too large:
     Diagonalizing with lowered threshold

     Davidson diagonalization with overlap
     ethr =  2.14E-08,  avg # of iterations =  1.0

     negative rho (up, down):  6.041E-05 0.000E+00

     total cpu time spent up to now is       13.1 secs

     total energy              =     -34.18363070 Ry
     Harris-Foulkes estimate   =     -34.18362894 Ry
     estimated scf accuracy    <       0.00000161 Ry

     iteration #  2     ecut=    90.00 Ry     beta=0.70
     Davidson diagonalization with overlap
     ethr =  2.01E-08,  avg # of iterations =  2.0

     negative rho (up, down):  3.099E-05 0.000E+00

     total cpu time spent up to now is       13.3 secs

     total energy              =     -34.18363171 Ry
     Harris-Foulkes estimate   =     -34.18363172 Ry
     estimated scf accuracy    <       0.00000131 Ry

     iteration #  3     ecut=    90.00 Ry     beta=0.70
     Davidson diagonalization with overlap
     ethr =  1.64E-08,  avg # of iterations =  2.0

     negative rho (up, down):  1.555E-06 0.000E+00

     total cpu time spent up to now is       13.5 secs

     total energy              =     -34.18363252 Ry
     Harris-Foulkes estimate   =     -34.18363202 Ry
     estimated scf accuracy    <       0.00000003 Ry

     iteration #  4     ecut=    90.00 Ry     beta=0.70
     Davidson diagonalization with overlap
     ethr =  4.00E-10,  avg # of iterations =  2.0

     negative rho (up, down):  1.654E-08 0.000E+00

     total cpu time spent up to now is       13.7 secs

     total energy              =     -34.18363262 Ry
     Harris-Foulkes estimate   =     -34.18363254 Ry
     estimated scf accuracy    <          1.0E-09 Ry

     iteration #  5     ecut=    90.00 Ry     beta=0.70
     Davidson diagonalization with overlap
     ethr =  1.26E-11,  avg # of iterations =  3.0

     total cpu time spent up to now is       13.8 secs

     End of self-consistent calculation

          k = 0.0000 0.0000 0.0000 (115313 PWs)   bands (ev):

   -25.0978 -12.7631  -9.1651  -7.0780  -0.9445   0.4266   0.7459   1.1240

     the Fermi energy is    -5.0913 ev

!    total energy              =     -34.18363266 Ry
     Harris-Foulkes estimate   =     -34.18363262 Ry
     estimated scf accuracy    <          4.6E-11 Ry

     The total energy is the sum of the following terms:

     one-electron contribution =     -63.66612156 Ry
     hartree contribution      =      33.25466445 Ry
     xc contribution           =      -8.35583851 Ry
     ewald contribution        =       4.58366297 Ry
     smearing contrib. (-TS)   =       0.00000000 Ry

     convergence has been achieved in   5 iterations

     Forces acting on atoms (Ry/au):

     atom    1 type  1   force =     0.00017991   -0.00004965   -0.00015556
     atom    2 type  1   force =     0.00006343   -0.00000801   -0.00019174
     atom    3 type  2   force =    -0.00024334    0.00005766    0.00034730

     Total force =     0.000532     Total SCF correction =     0.000153
     SCF correction compared to forces is large: reduce conv_thr to get better values

     bfgs converged in   6 scf cycles and   4 bfgs steps
     (criteria: energy <  1.0E-04, force <  1.0E-03)

     End of BFGS Geometry Optimization

     Final energy   =     -34.1836326576 Ry
Begin final coordinates

ATOMIC_POSITIONS (angstrom)
H       -0.807530656   0.088816253   0.531666913
H        0.016558331   0.540363179  -0.690959233
O        0.054636326  -0.055329433   0.087053319
End final coordinates



     Writing output data file pwscf.save
 
     init_run     :      0.51s CPU      0.55s WALL (       1 calls)
     electrons    :      9.32s CPU     10.82s WALL (       6 calls)
     update_pot   :      1.23s CPU      1.47s WALL (       5 calls)
     forces       :      0.43s CPU      0.43s WALL (       6 calls)

     Called by init_run:
     wfcinit      :      0.04s CPU      0.04s WALL (       1 calls)
     potinit      :      0.11s CPU      0.11s WALL (       1 calls)

     Called by electrons:
     c_bands      :      4.78s CPU      4.87s WALL (      38 calls)
     sum_band     :      0.80s CPU      0.83s WALL (      38 calls)
     v_of_rho     :      2.17s CPU      2.22s WALL (      43 calls)
     mix_rho      :      0.80s CPU      1.53s WALL (      38 calls)

     Called by c_bands:
     init_us_2    :      0.02s CPU      0.02s WALL (      77 calls)
     cegterg      :      4.75s CPU      4.82s WALL (      38 calls)

     Called by sum_band:

     Called by *egterg:
     h_psi        :      3.90s CPU      3.93s WALL (     367 calls)
     g_psi        :      0.04s CPU      0.04s WALL (     328 calls)
     cdiaghg      :      0.10s CPU      0.10s WALL (     360 calls)

     Called by h_psi:
     h_psi:pot    :      3.87s CPU      3.89s WALL (     367 calls)
     h_psi:calbec :      0.09s CPU      0.09s WALL (     367 calls)
     vloc_psi     :      3.75s CPU      3.77s WALL (     367 calls)
     add_vuspsi   :      0.03s CPU      0.03s WALL (     367 calls)

     General routines
     calbec       :      0.09s CPU      0.10s WALL (     391 calls)
     fft          :      1.52s CPU      1.58s WALL (     486 calls)
     fftw         :      3.68s CPU      3.71s WALL (    2868 calls)
     davcio       :      0.09s CPU      0.68s WALL (     259 calls)
 
     Parallel routines
     fft_scatter  :      1.82s CPU      1.88s WALL (    3354 calls)
 
     PWSCF        :    11.94s CPU        14.35s WALL

 
   This run was terminated on:   2:17:37  28Jul2018            

=------------------------------------------------------------------------------=
   JOB DONE.
=------------------------------------------------------------------------------=
