
     Program PWSCF v.6.0 (svn rev. 13079) starts on 28Jul2018 at  2:10:35 

     This program is part of the open-source Quantum ESPRESSO suite
     for quantum simulation of materials; please cite
         "P. Giannozzi et al., J. Phys.:Condens. Matter 21 395502 (2009);
          URL http://www.quantum-espresso.org", 
     in publications or presentations arising from this work. More details at
     http://www.quantum-espresso.org/quote

     Parallel version (MPI), running on    28 processors
     R & G space division:  proc/nbgrp/npool/nimage =      28
     Reading input from ../QMCmins/relax-0.in

     Current dimensions of program PWSCF are:
     Max number of different atomic species (ntypx) = 10
     Max number of k-points (npk) =  40000
     Max angular momentum in pseudopotentials (lmaxx) =  3
     Message from routine iosys:
     pot_extrapolation='second-order' not available, using 'atomic'
     Message from routine iosys:
     wfc_extrapolation='second-order' not available, using 'atomic'

     Subspace diagonalization in iterative solution of the eigenvalue problem:
     a serial algorithm will be used

 
     Parallelization info
     --------------------
     sticks:   dense  smooth     PW     G-vecs:    dense   smooth      PW
     Min         408     408    102                32936    32936    4116
     Max         409     409    103                32943    32943    4121
     Sum       11449   11449   2869               922329   922329  115313
 


     bravais-lattice index     =            1
     lattice parameter (alat)  =      20.0000  a.u.
     unit-cell volume          =    8000.0000 (a.u.)^3
     number of atoms/cell      =            3
     number of atomic types    =            2
     number of electrons       =         8.00
     number of Kohn-Sham states=            8
     kinetic-energy cutoff     =      90.0000  Ry
     charge density cutoff     =     360.0000  Ry
     convergence threshold     =      1.0E-08
     mixing beta               =       0.7000
     number of iterations used =            8  plain     mixing
     Exchange-correlation      = BLYP ( 1  3  1  3 0 0)
     nstep                     =           50


     celldm(1)=  20.000000  celldm(2)=   0.000000  celldm(3)=   0.000000
     celldm(4)=   0.000000  celldm(5)=   0.000000  celldm(6)=   0.000000

     crystal axes: (cart. coord. in units of alat)
               a(1) = (   1.000000   0.000000   0.000000 )  
               a(2) = (   0.000000   1.000000   0.000000 )  
               a(3) = (   0.000000   0.000000   1.000000 )  

     reciprocal axes: (cart. coord. in units 2 pi/alat)
               b(1) = (  1.000000  0.000000  0.000000 )  
               b(2) = (  0.000000  1.000000  0.000000 )  
               b(3) = (  0.000000  0.000000  1.000000 )  


     PseudoPot. # 1 for  H read from file:
     ../H.blyp-hgh.UPF
     MD5 check sum: c576e69559cde411e611be972c763230
     Pseudo is Norm-conserving, Zval =  1.0
     Generated in analytical, separable form
     Using radial grid of  929 points,  0 beta functions with: 

     PseudoPot. # 2 for  O read from file:
     ../O.blyp-hgh.UPF
     MD5 check sum: d0b7156309aa9befef28faac7bc56342
     Pseudo is Norm-conserving, Zval =  6.0
     Generated in analytical, separable form
     Using radial grid of 1095 points,  1 beta functions with: 
                l(1) =   0

     atomic species   valence    mass     pseudopotential
        H              1.00     1.01000      H( 1.00)
        O              6.00    16.00000      O( 1.00)

     No symmetry found



   Cartesian axes

     site n.     atom                  positions (alat units)
         1           H   tau(   1) = (  -0.0135110   0.0761584   0.0538141  )
         2           H   tau(   2) = (   0.0139942  -0.0722184   0.0642369  )
         3           O   tau(   3) = (  -0.0000305  -0.0002487  -0.0018739  )

     number of k points=     1  Marzari-Vanderbilt smearing, width (Ry)=  0.0250
                       cart. coord. in units 2pi/alat
        k(    1) = (   0.0000000   0.0000000   0.0000000), wk =   2.0000000

     Dense  grid:   922329 G-vectors     FFT dimensions: ( 125, 125, 125)

     Estimated max dynamical RAM per process >      31.67Mb

     Estimated total allocated dynamical RAM >     886.64Mb

     Initial potential from superposition of free atoms
     Check: negative starting charge=   -0.015950

     starting charge    7.99998, renormalised to    8.00000

     negative rho (up, down):  1.595E-02 0.000E+00
     Starting wfc are    6 randomized atomic wfcs +    2 random wfc

     total cpu time spent up to now is        1.4 secs

     per-process dynamical memory:    33.5 Mb

     Self-consistent Calculation

     iteration #  1     ecut=    90.00 Ry     beta=0.70
     Davidson diagonalization with overlap
     ethr =  1.00E-02,  avg # of iterations =  7.0

     negative rho (up, down):  4.625E-03 0.000E+00

     total cpu time spent up to now is        1.7 secs

     total energy              =     -34.03300006 Ry
     Harris-Foulkes estimate   =     -34.25164729 Ry
     estimated scf accuracy    <       0.33302595 Ry

     iteration #  2     ecut=    90.00 Ry     beta=0.70
     Davidson diagonalization with overlap
     ethr =  4.16E-03,  avg # of iterations =  2.0

     negative rho (up, down):  2.929E-03 0.000E+00

     total cpu time spent up to now is        1.9 secs

     total energy              =     -34.07870946 Ry
     Harris-Foulkes estimate   =     -34.27712935 Ry
     estimated scf accuracy    <       0.44233197 Ry

     iteration #  3     ecut=    90.00 Ry     beta=0.70
     Davidson diagonalization with overlap
     ethr =  4.16E-03,  avg # of iterations =  2.0

     negative rho (up, down):  1.463E-04 0.000E+00

     total cpu time spent up to now is        2.1 secs

     total energy              =     -34.17449134 Ry
     Harris-Foulkes estimate   =     -34.17499717 Ry
     estimated scf accuracy    <       0.00566548 Ry

     iteration #  4     ecut=    90.00 Ry     beta=0.70
     Davidson diagonalization with overlap
     ethr =  7.08E-05,  avg # of iterations =  6.0

     negative rho (up, down):  4.846E-06 0.000E+00

     total cpu time spent up to now is        2.3 secs

     total energy              =     -34.17597545 Ry
     Harris-Foulkes estimate   =     -34.17607411 Ry
     estimated scf accuracy    <       0.00027073 Ry

     iteration #  5     ecut=    90.00 Ry     beta=0.70
     Davidson diagonalization with overlap
     ethr =  3.38E-06,  avg # of iterations = 10.0

     negative rho (up, down):  3.798E-06 0.000E+00

     total cpu time spent up to now is        2.6 secs

     total energy              =     -34.17599195 Ry
     Harris-Foulkes estimate   =     -34.17599693 Ry
     estimated scf accuracy    <       0.00002003 Ry

     iteration #  6     ecut=    90.00 Ry     beta=0.70
     Davidson diagonalization with overlap
     ethr =  2.50E-07,  avg # of iterations =  2.0

     negative rho (up, down):  1.017E-07 0.000E+00

     total cpu time spent up to now is        2.8 secs

     total energy              =     -34.17599388 Ry
     Harris-Foulkes estimate   =     -34.17599431 Ry
     estimated scf accuracy    <       0.00000047 Ry

     iteration #  7     ecut=    90.00 Ry     beta=0.70
     Davidson diagonalization with overlap
     ethr =  5.86E-09,  avg # of iterations =  2.0

     total cpu time spent up to now is        3.0 secs

     total energy              =     -34.17599365 Ry
     Harris-Foulkes estimate   =     -34.17599395 Ry
     estimated scf accuracy    <       0.00000001 Ry

     iteration #  8     ecut=    90.00 Ry     beta=0.70
     Davidson diagonalization with overlap
     ethr =  1.75E-10,  avg # of iterations =  3.0

     total cpu time spent up to now is        3.1 secs

     End of self-consistent calculation

          k = 0.0000 0.0000 0.0000 (115313 PWs)   bands (ev):

   -24.6468 -12.2875  -9.1611  -7.0020  -1.1074   0.3763   0.6437   1.1336

     the Fermi energy is    -4.9713 ev

!    total energy              =     -34.17599353 Ry
     Harris-Foulkes estimate   =     -34.17599366 Ry
     estimated scf accuracy    <          4.5E-09 Ry

     The total energy is the sum of the following terms:

     one-electron contribution =     -62.62715348 Ry
     hartree contribution      =      32.75679246 Ry
     xc contribution           =      -8.27579678 Ry
     ewald contribution        =       3.97016427 Ry
     smearing contrib. (-TS)   =       0.00000000 Ry

     convergence has been achieved in   8 iterations

     Forces acting on atoms (Ry/au):

     atom    1 type  1   force =     0.00693762   -0.04068896   -0.03028887
     atom    2 type  1   force =    -0.01401675    0.07083613   -0.06622588
     atom    3 type  2   force =     0.00707914   -0.03014717    0.09651476

     Total force =     0.149984     Total SCF correction =     0.000108

     BFGS Geometry Optimization

     number of scf cycles    =   1
     number of bfgs steps    =   0

     energy   new            =     -34.1759935314 Ry

     new trust radius        =       0.1013610591 bohr
     new conv_thr            =       0.0000000100 Ry


ATOMIC_POSITIONS (angstrom)
H       -0.139322772   0.784494332   0.553515820
H        0.140690654  -0.726842135   0.644808771
O        0.003423117  -0.018585197   0.031240409



     Writing output data file pwscf.save
     Check: negative starting charge=   -0.015950
     NEW-OLD atomic charge density approx. for the potential
     Check: negative starting charge=   -0.015982

     negative rho (up, down):  1.813E-02 0.000E+00

     total cpu time spent up to now is        3.7 secs

     per-process dynamical memory:    45.8 Mb

     Self-consistent Calculation

     iteration #  1     ecut=    90.00 Ry     beta=0.70
     Davidson diagonalization with overlap
     c_bands:  1 eigenvalues not converged
     ethr =  1.00E-06,  avg # of iterations = 20.0

     negative rho (up, down):  4.811E-03 0.000E+00

     total cpu time spent up to now is        4.3 secs

     total energy              =     -34.16448372 Ry
     Harris-Foulkes estimate   =     -34.16845743 Ry
     estimated scf accuracy    <       0.01425088 Ry

     iteration #  2     ecut=    90.00 Ry     beta=0.70
     Davidson diagonalization with overlap
     ethr =  1.78E-04,  avg # of iterations =  3.0

     negative rho (up, down):  3.039E-03 0.000E+00

     total cpu time spent up to now is        4.5 secs

     total energy              =     -34.17141833 Ry
     Harris-Foulkes estimate   =     -34.17666641 Ry
     estimated scf accuracy    <       0.01703804 Ry

     iteration #  3     ecut=    90.00 Ry     beta=0.70
     Davidson diagonalization with overlap
     ethr =  1.78E-04,  avg # of iterations =  2.0

     negative rho (up, down):  6.869E-04 0.000E+00

     total cpu time spent up to now is        4.7 secs

     total energy              =     -34.17672089 Ry
     Harris-Foulkes estimate   =     -34.17465576 Ry
     estimated scf accuracy    <       0.00005730 Ry

     iteration #  4     ecut=    90.00 Ry     beta=0.70
     Davidson diagonalization with overlap
     c_bands:  1 eigenvalues not converged
     ethr =  7.16E-07,  avg # of iterations = 20.0

     negative rho (up, down):  9.831E-05 0.000E+00

     total cpu time spent up to now is        5.1 secs

     total energy              =     -34.18086960 Ry
     Harris-Foulkes estimate   =     -34.18084651 Ry
     estimated scf accuracy    <       0.00000277 Ry

     iteration #  5     ecut=    90.00 Ry     beta=0.70
     Davidson diagonalization with overlap
     ethr =  3.46E-08,  avg # of iterations =  9.0

     negative rho (up, down):  1.624E-08 0.000E+00

     total cpu time spent up to now is        5.3 secs

     total energy              =     -34.18086552 Ry
     Harris-Foulkes estimate   =     -34.18087032 Ry
     estimated scf accuracy    <       0.00000016 Ry

     iteration #  6     ecut=    90.00 Ry     beta=0.70
     Davidson diagonalization with overlap
     ethr =  1.94E-09,  avg # of iterations =  2.0

     total cpu time spent up to now is        5.5 secs

     End of self-consistent calculation

          k = 0.0000 0.0000 0.0000 (115313 PWs)   bands (ev):

   -25.2940 -13.1357  -9.0384  -7.1083  -0.8773   0.4500   0.8010   1.1491

     the Fermi energy is    -5.1215 ev

!    total energy              =     -34.18086539 Ry
     Harris-Foulkes estimate   =     -34.18086561 Ry
     estimated scf accuracy    <          1.5E-09 Ry

     The total energy is the sum of the following terms:

     one-electron contribution =     -64.18429238 Ry
     hartree contribution      =      33.50625073 Ry
     xc contribution           =      -8.39728786 Ry
     ewald contribution        =       4.89446410 Ry
     smearing contrib. (-TS)   =       0.00000000 Ry

     convergence has been achieved in   6 iterations

     Forces acting on atoms (Ry/au):

     atom    1 type  1   force =    -0.00228490    0.01313660    0.01676840
     atom    2 type  1   force =     0.00899128   -0.04542063    0.04950947
     atom    3 type  2   force =    -0.00670638    0.03228403   -0.06627786

     Total force =     0.102635     Total SCF correction =     0.000066

     number of scf cycles    =   2
     number of bfgs steps    =   1

     energy   old            =     -34.1759935314 Ry
     energy   new            =     -34.1808653932 Ry

     CASE: energy  _new < energy  _old

     new trust radius        =       0.0436575816 bohr
     new conv_thr            =       0.0000000049 Ry


ATOMIC_POSITIONS (angstrom)
H       -0.140022873   0.788516718   0.558723324
H        0.143490447  -0.740985553   0.660262487
O        0.001323426  -0.008464165   0.010579189



     Writing output data file pwscf.save
     Check: negative starting charge=   -0.015982
     NEW-OLD atomic charge density approx. for the potential
     Check: negative starting charge=   -0.015988

     negative rho (up, down):  7.747E-03 0.000E+00

     total cpu time spent up to now is        6.1 secs

     per-process dynamical memory:    45.8 Mb

     Self-consistent Calculation

     iteration #  1     ecut=    90.00 Ry     beta=0.70
     Davidson diagonalization with overlap
     ethr =  1.00E-06,  avg # of iterations = 19.0

     negative rho (up, down):  2.014E-03 0.000E+00

     total cpu time spent up to now is        6.5 secs

     total energy              =     -34.17776113 Ry
     Harris-Foulkes estimate   =     -34.17059047 Ry
     estimated scf accuracy    <       0.00192560 Ry

     iteration #  2     ecut=    90.00 Ry     beta=0.70
     Davidson diagonalization with overlap
     ethr =  2.41E-05,  avg # of iterations = 12.0

     negative rho (up, down):  1.248E-03 0.000E+00

     total cpu time spent up to now is        6.8 secs

     total energy              =     -34.18289385 Ry
     Harris-Foulkes estimate   =     -34.18315208 Ry
     estimated scf accuracy    <       0.00184363 Ry

     iteration #  3     ecut=    90.00 Ry     beta=0.70
     Davidson diagonalization with overlap
     ethr =  2.30E-05,  avg # of iterations =  4.0

     negative rho (up, down):  3.012E-04 0.000E+00

     total cpu time spent up to now is        7.0 secs

     total energy              =     -34.18342335 Ry
     Harris-Foulkes estimate   =     -34.18329708 Ry
     estimated scf accuracy    <       0.00002057 Ry

     iteration #  4     ecut=    90.00 Ry     beta=0.70
     Davidson diagonalization with overlap
     ethr =  2.57E-07,  avg # of iterations = 15.0

     negative rho (up, down):  1.969E-05 0.000E+00

     total cpu time spent up to now is        7.3 secs

     total energy              =     -34.18343439 Ry
     Harris-Foulkes estimate   =     -34.18342999 Ry
     estimated scf accuracy    <       0.00000053 Ry

     iteration #  5     ecut=    90.00 Ry     beta=0.70
     Davidson diagonalization with overlap
     ethr =  6.60E-09,  avg # of iterations =  3.0

     negative rho (up, down):  2.906E-08 0.000E+00

     total cpu time spent up to now is        7.5 secs

     total energy              =     -34.18343457 Ry
     Harris-Foulkes estimate   =     -34.18343461 Ry
     estimated scf accuracy    <       0.00000002 Ry

     iteration #  6     ecut=    90.00 Ry     beta=0.70
     Davidson diagonalization with overlap
     ethr =  2.28E-10,  avg # of iterations =  2.0

     total cpu time spent up to now is        7.6 secs

     End of self-consistent calculation

          k = 0.0000 0.0000 0.0000 (115313 PWs)   bands (ev):

   -25.0497 -12.7931  -9.1012  -7.0677  -0.9540   0.4242   0.7534   1.1442

     the Fermi energy is    -5.0641 ev

!    total energy              =     -34.18343466 Ry
     Harris-Foulkes estimate   =     -34.18343459 Ry
     estimated scf accuracy    <          1.3E-09 Ry

     The total energy is the sum of the following terms:

     one-electron contribution =     -63.59552799 Ry
     hartree contribution      =      33.22280451 Ry
     xc contribution           =      -8.35074032 Ry
     ewald contribution        =       4.54002914 Ry
     smearing contrib. (-TS)   =       0.00000000 Ry

     convergence has been achieved in   6 iterations

     Forces acting on atoms (Ry/au):

     atom    1 type  1   force =    -0.00024679    0.00099862    0.00910583
     atom    2 type  1   force =    -0.00279970    0.01448161   -0.00531170
     atom    3 type  2   force =     0.00304649   -0.01548024   -0.00379413

     Total force =     0.024353     Total SCF correction =     0.000223

     number of scf cycles    =   3
     number of bfgs steps    =   2

     energy   old            =     -34.1808653932 Ry
     energy   new            =     -34.1834346576 Ry

     CASE: energy  _new < energy  _old

     new trust radius        =       0.0146293403 bohr
     new conv_thr            =       0.0000000015 Ry


ATOMIC_POSITIONS (angstrom)
H       -0.140242199   0.789577534   0.563790352
H        0.142505370  -0.735846476   0.659672263
O        0.002527829  -0.014664058   0.006102385



     Writing output data file pwscf.save
     Check: negative starting charge=   -0.015988
     NEW-OLD atomic charge density approx. for the potential
     Check: negative starting charge=   -0.015991

     negative rho (up, down):  2.424E-03 0.000E+00

     total cpu time spent up to now is        8.2 secs

     per-process dynamical memory:    45.8 Mb

     Self-consistent Calculation

     iteration #  1     ecut=    90.00 Ry     beta=0.70
     Davidson diagonalization with overlap
     ethr =  1.00E-06,  avg # of iterations = 14.0

     negative rho (up, down):  6.212E-04 0.000E+00

     total cpu time spent up to now is        8.8 secs

     total energy              =     -34.17942216 Ry
     Harris-Foulkes estimate   =     -34.17830322 Ry
     estimated scf accuracy    <       0.00008038 Ry

     iteration #  2     ecut=    90.00 Ry     beta=0.70
     Davidson diagonalization with overlap
     ethr =  1.00E-06,  avg # of iterations = 15.0

     negative rho (up, down):  3.075E-04 0.000E+00

     total cpu time spent up to now is        9.1 secs

     total energy              =     -34.18352480 Ry
     Harris-Foulkes estimate   =     -34.18353526 Ry
     estimated scf accuracy    <       0.00003044 Ry

     iteration #  3     ecut=    90.00 Ry     beta=0.70
     Davidson diagonalization with overlap
     ethr =  3.80E-07,  avg # of iterations =  2.0

     negative rho (up, down):  8.767E-05 0.000E+00

     total cpu time spent up to now is        9.4 secs

     total energy              =     -34.18353579 Ry
     Harris-Foulkes estimate   =     -34.18353480 Ry
     estimated scf accuracy    <       0.00000416 Ry

     iteration #  4     ecut=    90.00 Ry     beta=0.70
     Davidson diagonalization with overlap
     ethr =  5.20E-08,  avg # of iterations =  3.0

     negative rho (up, down):  9.480E-07 0.000E+00

     total cpu time spent up to now is        9.6 secs

     total energy              =     -34.18353843 Ry
     Harris-Foulkes estimate   =     -34.18353683 Ry
     estimated scf accuracy    <       0.00000009 Ry

     iteration #  5     ecut=    90.00 Ry     beta=0.70
     Davidson diagonalization with overlap
     ethr =  1.11E-09,  avg # of iterations =  2.0

     total cpu time spent up to now is        9.8 secs

     total energy              =     -34.18353857 Ry
     Harris-Foulkes estimate   =     -34.18353849 Ry
     estimated scf accuracy    <          2.2E-09 Ry

     iteration #  6     ecut=    90.00 Ry     beta=0.70
     Davidson diagonalization with overlap
     ethr =  2.69E-11,  avg # of iterations =  2.0

     total cpu time spent up to now is       10.0 secs

     End of self-consistent calculation

          k = 0.0000 0.0000 0.0000 (115313 PWs)   bands (ev):

   -25.0344 -12.7284  -9.1392  -7.0665  -0.9632   0.4211   0.7494   1.1447

     the Fermi energy is    -5.0599 ev

!    total energy              =     -34.18353862 Ry
     Harris-Foulkes estimate   =     -34.18353858 Ry
     estimated scf accuracy    <          1.2E-10 Ry

     The total energy is the sum of the following terms:

     one-electron contribution =     -63.53801940 Ry
     hartree contribution      =      33.19406370 Ry
     xc contribution           =      -8.34606758 Ry
     ewald contribution        =       4.50648467 Ry
     smearing contrib. (-TS)   =       0.00000000 Ry

     convergence has been achieved in   6 iterations

     Forces acting on atoms (Ry/au):

     atom    1 type  1   force =     0.00273838   -0.01563731   -0.00539404
     atom    2 type  1   force =    -0.00057760    0.00309773    0.00015510
     atom    3 type  2   force =    -0.00216078    0.01253959    0.00523894

     Total force =     0.021919     Total SCF correction =     0.000064

     number of scf cycles    =   4
     number of bfgs steps    =   3

     energy   old            =     -34.1834346576 Ry
     energy   new            =     -34.1835386162 Ry

     CASE: energy  _new < energy  _old

     new trust radius        =       0.0099311264 bohr
     new conv_thr            =       0.0000000001 Ry


ATOMIC_POSITIONS (angstrom)
H       -0.139348541   0.784411052   0.563433576
H        0.141967562  -0.733017168   0.659399041
O        0.002171979  -0.012326884   0.006732383



     Writing output data file pwscf.save
     Check: negative starting charge=   -0.015991
     NEW-OLD atomic charge density approx. for the potential
     Check: negative starting charge=   -0.015995

     negative rho (up, down):  6.694E-04 0.000E+00

     total cpu time spent up to now is       10.6 secs

     per-process dynamical memory:    45.8 Mb

     Self-consistent Calculation

     iteration #  1     ecut=    90.00 Ry     beta=0.70
     Davidson diagonalization with overlap
     ethr =  1.00E-06,  avg # of iterations =  4.0

     negative rho (up, down):  1.606E-04 0.000E+00

     total cpu time spent up to now is       11.1 secs

     total energy              =     -34.18367490 Ry
     Harris-Foulkes estimate   =     -34.18368946 Ry
     estimated scf accuracy    <       0.00003828 Ry

     iteration #  2     ecut=    90.00 Ry     beta=0.70
     Davidson diagonalization with overlap
     ethr =  4.79E-07,  avg # of iterations =  3.0

     negative rho (up, down):  8.887E-05 0.000E+00

     total cpu time spent up to now is       11.3 secs

     total energy              =     -34.18368345 Ry
     Harris-Foulkes estimate   =     -34.18369794 Ry
     estimated scf accuracy    <       0.00003061 Ry

     iteration #  3     ecut=    90.00 Ry     beta=0.70
     Davidson diagonalization with overlap
     ethr =  3.83E-07,  avg # of iterations =  2.0

     negative rho (up, down):  1.332E-05 0.000E+00

     total cpu time spent up to now is       11.4 secs

     total energy              =     -34.18369066 Ry
     Harris-Foulkes estimate   =     -34.18369065 Ry
     estimated scf accuracy    <       0.00000066 Ry

     iteration #  4     ecut=    90.00 Ry     beta=0.70
     Davidson diagonalization with overlap
     ethr =  8.20E-09,  avg # of iterations =  2.0

     negative rho (up, down):  2.540E-07 0.000E+00

     total cpu time spent up to now is       11.6 secs

     total energy              =     -34.18369090 Ry
     Harris-Foulkes estimate   =     -34.18369086 Ry
     estimated scf accuracy    <       0.00000001 Ry

     iteration #  5     ecut=    90.00 Ry     beta=0.70
     Davidson diagonalization with overlap
     ethr =  1.72E-10,  avg # of iterations =  3.0

     total cpu time spent up to now is       11.8 secs

     total energy              =     -34.18369085 Ry
     Harris-Foulkes estimate   =     -34.18369091 Ry
     estimated scf accuracy    <          8.9E-10 Ry

     iteration #  6     ecut=    90.00 Ry     beta=0.70
     Davidson diagonalization with overlap
     ethr =  1.11E-11,  avg # of iterations =  2.0

     total cpu time spent up to now is       12.0 secs

     End of self-consistent calculation

          k = 0.0000 0.0000 0.0000 (115313 PWs)   bands (ev):

   -25.0792 -12.7556  -9.1541  -7.0749  -0.9516   0.4246   0.7587   1.1459

     the Fermi energy is    -5.0702 ev

!    total energy              =     -34.18369087 Ry
     Harris-Foulkes estimate   =     -34.18369085 Ry
     estimated scf accuracy    <          4.4E-11 Ry

     The total energy is the sum of the following terms:

     one-electron contribution =     -63.62842338 Ry
     hartree contribution      =      33.23680199 Ry
     xc contribution           =      -8.35305033 Ry
     ewald contribution        =       4.56098084 Ry
     smearing contrib. (-TS)   =       0.00000000 Ry

     convergence has been achieved in   6 iterations

     Forces acting on atoms (Ry/au):

     atom    1 type  1   force =     0.00079644   -0.00469746    0.00153361
     atom    2 type  1   force =    -0.00017496    0.00105505    0.00122274
     atom    3 type  2   force =    -0.00062147    0.00364241   -0.00275635

     Total force =     0.006996     Total SCF correction =     0.000060

     number of scf cycles    =   5
     number of bfgs steps    =   4

     energy   old            =     -34.1835386162 Ry
     energy   new            =     -34.1836908701 Ry

     CASE: energy  _new < energy  _old

     new trust radius        =       0.0090832848 bohr
     new conv_thr            =       0.0000000002 Ry


ATOMIC_POSITIONS (angstrom)
H       -0.138626434   0.780121078   0.565477772
H        0.141441447  -0.730177274   0.659715505
O        0.001975987  -0.010876804   0.004371723



     Writing output data file pwscf.save
     Check: negative starting charge=   -0.015995
     NEW-OLD atomic charge density approx. for the potential
     Check: negative starting charge=   -0.016000

     negative rho (up, down):  7.758E-04 0.000E+00

     total cpu time spent up to now is       12.6 secs

     per-process dynamical memory:    45.8 Mb

     Self-consistent Calculation

     iteration #  1     ecut=    90.00 Ry     beta=0.70
     Davidson diagonalization with overlap
     ethr =  1.00E-06,  avg # of iterations =  4.0

     Threshold (ethr) on eigenvalues was too large:
     Diagonalizing with lowered threshold

     Davidson diagonalization with overlap
     ethr =  8.55E-08,  avg # of iterations =  1.0

     negative rho (up, down):  1.883E-04 0.000E+00

     total cpu time spent up to now is       13.1 secs

     total energy              =     -34.18373553 Ry
     Harris-Foulkes estimate   =     -34.18372539 Ry
     estimated scf accuracy    <       0.00000694 Ry

     iteration #  2     ecut=    90.00 Ry     beta=0.70
     Davidson diagonalization with overlap
     ethr =  8.68E-08,  avg # of iterations =  3.0

     negative rho (up, down):  3.926E-05 0.000E+00

     total cpu time spent up to now is       13.3 secs

     total energy              =     -34.18373967 Ry
     Harris-Foulkes estimate   =     -34.18373696 Ry
     estimated scf accuracy    <       0.00000054 Ry

     iteration #  3     ecut=    90.00 Ry     beta=0.70
     Davidson diagonalization with overlap
     ethr =  6.79E-09,  avg # of iterations =  3.0

     negative rho (up, down):  4.862E-06 0.000E+00

     total cpu time spent up to now is       13.5 secs

     total energy              =     -34.18374032 Ry
     Harris-Foulkes estimate   =     -34.18373989 Ry
     estimated scf accuracy    <       0.00000020 Ry

     iteration #  4     ecut=    90.00 Ry     beta=0.70
     Davidson diagonalization with overlap
     ethr =  2.51E-09,  avg # of iterations =  2.0

     negative rho (up, down):  1.304E-08 0.000E+00

     total cpu time spent up to now is       13.7 secs

     total energy              =     -34.18374055 Ry
     Harris-Foulkes estimate   =     -34.18374039 Ry
     estimated scf accuracy    <       0.00000003 Ry

     iteration #  5     ecut=    90.00 Ry     beta=0.70
     Davidson diagonalization with overlap
     ethr =  3.46E-10,  avg # of iterations =  2.0

     total cpu time spent up to now is       13.9 secs

     total energy              =     -34.18374062 Ry
     Harris-Foulkes estimate   =     -34.18374056 Ry
     estimated scf accuracy    <          2.1E-10 Ry

     iteration #  6     ecut=    90.00 Ry     beta=0.70
     Davidson diagonalization with overlap
     ethr =  2.66E-12,  avg # of iterations =  3.0

     total cpu time spent up to now is       14.2 secs

     End of self-consistent calculation

          k = 0.0000 0.0000 0.0000 (115313 PWs)   bands (ev):

   -25.0975 -12.7352  -9.1842  -7.0792  -0.9505   0.4246   0.7619   1.1463

     the Fermi energy is    -5.0745 ev

!    total energy              =     -34.18374063 Ry
     Harris-Foulkes estimate   =     -34.18374062 Ry
     estimated scf accuracy    <          6.5E-11 Ry

     The total energy is the sum of the following terms:

     one-electron contribution =     -63.64958022 Ry
     hartree contribution      =      33.24604625 Ry
     xc contribution           =      -8.35461475 Ry
     ewald contribution        =       4.57440809 Ry
     smearing contrib. (-TS)   =       0.00000000 Ry

     convergence has been achieved in   6 iterations

     Forces acting on atoms (Ry/au):

     atom    1 type  1   force =     0.00002150   -0.00029591    0.00301936
     atom    2 type  1   force =     0.00005620   -0.00014333   -0.00050208
     atom    3 type  2   force =    -0.00007770    0.00043924   -0.00251729

     Total force =     0.004002     Total SCF correction =     0.000023

     number of scf cycles    =   6
     number of bfgs steps    =   5

     energy   old            =     -34.1836908701 Ry
     energy   new            =     -34.1837406330 Ry

     CASE: energy  _new < energy  _old

     new trust radius        =       0.0075883354 bohr
     new conv_thr            =            1.0E-10 Ry


ATOMIC_POSITIONS (angstrom)
H       -0.138177159   0.777354118   0.568352997
H        0.141149057  -0.728507657   0.659127393
O        0.001819102  -0.009779460   0.002084610



     Writing output data file pwscf.save
     Check: negative starting charge=   -0.016000
     NEW-OLD atomic charge density approx. for the potential
     Check: negative starting charge=   -0.016004

     negative rho (up, down):  6.966E-04 0.000E+00

     total cpu time spent up to now is       14.8 secs

     per-process dynamical memory:    45.8 Mb

     Self-consistent Calculation

     iteration #  1     ecut=    90.00 Ry     beta=0.70
     Davidson diagonalization with overlap
     ethr =  1.00E-06,  avg # of iterations =  4.0

     Threshold (ethr) on eigenvalues was too large:
     Diagonalizing with lowered threshold

     Davidson diagonalization with overlap
     ethr =  5.92E-08,  avg # of iterations =  1.0

     negative rho (up, down):  1.679E-04 0.000E+00

     total cpu time spent up to now is       15.3 secs

     total energy              =     -34.18375480 Ry
     Harris-Foulkes estimate   =     -34.18374863 Ry
     estimated scf accuracy    <       0.00000465 Ry

     iteration #  2     ecut=    90.00 Ry     beta=0.70
     Davidson diagonalization with overlap
     ethr =  5.82E-08,  avg # of iterations =  3.0

     negative rho (up, down):  5.871E-05 0.000E+00

     total cpu time spent up to now is       15.5 secs

     total energy              =     -34.18375745 Ry
     Harris-Foulkes estimate   =     -34.18375621 Ry
     estimated scf accuracy    <       0.00000113 Ry

     iteration #  3     ecut=    90.00 Ry     beta=0.70
     Davidson diagonalization with overlap
     ethr =  1.41E-08,  avg # of iterations =  2.0

     negative rho (up, down):  4.607E-06 0.000E+00

     total cpu time spent up to now is       15.7 secs

     total energy              =     -34.18375878 Ry
     Harris-Foulkes estimate   =     -34.18375793 Ry
     estimated scf accuracy    <       0.00000040 Ry

     iteration #  4     ecut=    90.00 Ry     beta=0.70
     Davidson diagonalization with overlap
     ethr =  5.04E-09,  avg # of iterations =  3.0

     total cpu time spent up to now is       15.9 secs

     total energy              =     -34.18375915 Ry
     Harris-Foulkes estimate   =     -34.18375889 Ry
     estimated scf accuracy    <          4.3E-09 Ry

     iteration #  5     ecut=    90.00 Ry     beta=0.70
     Davidson diagonalization with overlap
     ethr =  5.32E-11,  avg # of iterations =  2.0

     total cpu time spent up to now is       16.1 secs

     total energy              =     -34.18375915 Ry
     Harris-Foulkes estimate   =     -34.18375916 Ry
     estimated scf accuracy    <          2.5E-10 Ry

     iteration #  6     ecut=    90.00 Ry     beta=0.70
     Davidson diagonalization with overlap
     ethr =  3.19E-12,  avg # of iterations =  2.0

     total cpu time spent up to now is       16.3 secs

     End of self-consistent calculation

          k = 0.0000 0.0000 0.0000 (115313 PWs)   bands (ev):

   -25.1031 -12.7103  -9.2078  -7.0810  -0.9522   0.4239   0.7626   1.1465

     the Fermi energy is    -5.0758 ev

!    total energy              =     -34.18375916 Ry
     Harris-Foulkes estimate   =     -34.18375915 Ry
     estimated scf accuracy    <          2.3E-11 Ry

     The total energy is the sum of the following terms:

     one-electron contribution =     -63.64692771 Ry
     hartree contribution      =      33.24407029 Ry
     xc contribution           =      -8.35433920 Ry
     ewald contribution        =       4.57343745 Ry
     smearing contrib. (-TS)   =       0.00000000 Ry

     convergence has been achieved in   6 iterations

     Forces acting on atoms (Ry/au):

     atom    1 type  1   force =    -0.00016129    0.00082421    0.00216704
     atom    2 type  1   force =     0.00021399   -0.00090459   -0.00237377
     atom    3 type  2   force =    -0.00005270    0.00008038    0.00020673

     Total force =     0.003457     Total SCF correction =     0.000012

     number of scf cycles    =   7
     number of bfgs steps    =   6

     energy   old            =     -34.1837406330 Ry
     energy   new            =     -34.1837591623 Ry

     CASE: energy  _new < energy  _old

     new trust radius        =       0.0053530379 bohr
     new conv_thr            =            1.0E-10 Ry


ATOMIC_POSITIONS (angstrom)
H       -0.137995071   0.776161619   0.570916005
H        0.141156466  -0.728336496   0.657449510
O        0.001629606  -0.008758124   0.001199485



     Writing output data file pwscf.save
     Check: negative starting charge=   -0.016004
     NEW-OLD atomic charge density approx. for the potential
     Check: negative starting charge=   -0.016005

     negative rho (up, down):  3.442E-04 0.000E+00

     total cpu time spent up to now is       17.3 secs

     per-process dynamical memory:    45.8 Mb

     Self-consistent Calculation

     iteration #  1     ecut=    90.00 Ry     beta=0.70
     Davidson diagonalization with overlap
     ethr =  1.00E-06,  avg # of iterations =  3.0

     Threshold (ethr) on eigenvalues was too large:
     Diagonalizing with lowered threshold

     Davidson diagonalization with overlap
     ethr =  2.43E-08,  avg # of iterations =  1.0

     negative rho (up, down):  7.712E-05 0.000E+00

     total cpu time spent up to now is       17.9 secs

     total energy              =     -34.18377146 Ry
     Harris-Foulkes estimate   =     -34.18376910 Ry
     estimated scf accuracy    <       0.00000202 Ry

     iteration #  2     ecut=    90.00 Ry     beta=0.70
     Davidson diagonalization with overlap
     ethr =  2.52E-08,  avg # of iterations =  2.0

     negative rho (up, down):  1.600E-05 0.000E+00

     total cpu time spent up to now is       18.1 secs

     total energy              =     -34.18377289 Ry
     Harris-Foulkes estimate   =     -34.18377188 Ry
     estimated scf accuracy    <       0.00000026 Ry

     iteration #  3     ecut=    90.00 Ry     beta=0.70
     Davidson diagonalization with overlap
     ethr =  3.24E-09,  avg # of iterations =  2.0

     negative rho (up, down):  1.371E-06 0.000E+00

     total cpu time spent up to now is       18.3 secs

     total energy              =     -34.18377317 Ry
     Harris-Foulkes estimate   =     -34.18377303 Ry
     estimated scf accuracy    <       0.00000015 Ry

     iteration #  4     ecut=    90.00 Ry     beta=0.70
     Davidson diagonalization with overlap
     ethr =  1.84E-09,  avg # of iterations =  2.0

     total cpu time spent up to now is       18.6 secs

     total energy              =     -34.18377333 Ry
     Harris-Foulkes estimate   =     -34.18377321 Ry
     estimated scf accuracy    <          3.7E-09 Ry

     iteration #  5     ecut=    90.00 Ry     beta=0.70
     Davidson diagonalization with overlap
     ethr =  4.57E-11,  avg # of iterations =  2.0

     total cpu time spent up to now is       18.8 secs

     End of self-consistent calculation

          k = 0.0000 0.0000 0.0000 (115313 PWs)   bands (ev):

   -25.1043 -12.7008  -9.2162  -7.0815  -0.9530   0.4235   0.7628   1.1465

     the Fermi energy is    -5.0760 ev

!    total energy              =     -34.18377334 Ry
     Harris-Foulkes estimate   =     -34.18377333 Ry
     estimated scf accuracy    <          9.5E-11 Ry

     The total energy is the sum of the following terms:

     one-electron contribution =     -63.64459275 Ry
     hartree contribution      =      33.24271603 Ry
     xc contribution           =      -8.35414470 Ry
     ewald contribution        =       4.57224808 Ry
     smearing contrib. (-TS)   =       0.00000000 Ry

     convergence has been achieved in   5 iterations

     Forces acting on atoms (Ry/au):

     atom    1 type  1   force =    -0.00019336    0.00096720    0.00155076
     atom    2 type  1   force =     0.00026873   -0.00122179   -0.00292328
     atom    3 type  2   force =    -0.00007537    0.00025459    0.00137252

     Total force =     0.003930     Total SCF correction =     0.000068

     number of scf cycles    =   8
     number of bfgs steps    =   7

     energy   old            =     -34.1837591623 Ry
     energy   new            =     -34.1837733406 Ry

     CASE: energy  _new < energy  _old

     new trust radius        =       0.0058883417 bohr
     new conv_thr            =            1.0E-10 Ry


ATOMIC_POSITIONS (angstrom)
H       -0.137855409   0.775163014   0.573864325
H        0.141254019  -0.728593407   0.655118328
O        0.001392390  -0.007502607   0.000582347



     Writing output data file pwscf.save
     Check: negative starting charge=   -0.016005
     NEW-OLD atomic charge density approx. for the potential
     Check: negative starting charge=   -0.016006

     negative rho (up, down):  3.596E-04 0.000E+00

     total cpu time spent up to now is       19.5 secs

     per-process dynamical memory:    45.8 Mb

     Self-consistent Calculation

     iteration #  1     ecut=    90.00 Ry     beta=0.70
     Davidson diagonalization with overlap
     ethr =  1.00E-06,  avg # of iterations =  3.0

     Threshold (ethr) on eigenvalues was too large:
     Diagonalizing with lowered threshold

     Davidson diagonalization with overlap
     ethr =  3.13E-08,  avg # of iterations =  1.0

     negative rho (up, down):  8.107E-05 0.000E+00

     total cpu time spent up to now is       19.8 secs

     total energy              =     -34.18378977 Ry
     Harris-Foulkes estimate   =     -34.18378759 Ry
     estimated scf accuracy    <       0.00000259 Ry

     iteration #  2     ecut=    90.00 Ry     beta=0.70
     Davidson diagonalization with overlap
     ethr =  3.24E-08,  avg # of iterations =  2.0

     negative rho (up, down):  1.250E-05 0.000E+00

     total cpu time spent up to now is       20.0 secs

     total energy              =     -34.18379126 Ry
     Harris-Foulkes estimate   =     -34.18379020 Ry
     estimated scf accuracy    <       0.00000022 Ry

     iteration #  3     ecut=    90.00 Ry     beta=0.70
     Davidson diagonalization with overlap
     ethr =  2.72E-09,  avg # of iterations =  2.0

     negative rho (up, down):  1.092E-06 0.000E+00

     total cpu time spent up to now is       20.2 secs

     total energy              =     -34.18379144 Ry
     Harris-Foulkes estimate   =     -34.18379135 Ry
     estimated scf accuracy    <       0.00000010 Ry

     iteration #  4     ecut=    90.00 Ry     beta=0.70
     Davidson diagonalization with overlap
     ethr =  1.21E-09,  avg # of iterations =  2.0

     total cpu time spent up to now is       20.4 secs

     total energy              =     -34.18379152 Ry
     Harris-Foulkes estimate   =     -34.18379147 Ry
     estimated scf accuracy    <          7.6E-09 Ry

     iteration #  5     ecut=    90.00 Ry     beta=0.70
     Davidson diagonalization with overlap
     ethr =  9.56E-11,  avg # of iterations =  2.0

     total cpu time spent up to now is       20.5 secs

     End of self-consistent calculation

          k = 0.0000 0.0000 0.0000 (115313 PWs)   bands (ev):

   -25.1047 -12.6946  -9.2216  -7.0817  -0.9536   0.4233   0.7628   1.1465

     the Fermi energy is    -5.0761 ev

!    total energy              =     -34.18379156 Ry
     Harris-Foulkes estimate   =     -34.18379152 Ry
     estimated scf accuracy    <          6.8E-11 Ry

     The total energy is the sum of the following terms:

     one-electron contribution =     -63.64253919 Ry
     hartree contribution      =      33.24158386 Ry
     xc contribution           =      -8.35398611 Ry
     ewald contribution        =       4.57114989 Ry
     smearing contrib. (-TS)   =       0.00000000 Ry

     convergence has been achieved in   5 iterations

     Forces acting on atoms (Ry/au):

     atom    1 type  1   force =    -0.00021533    0.00107333    0.00102894
     atom    2 type  1   force =     0.00028835   -0.00132374   -0.00320245
     atom    3 type  2   force =    -0.00007301    0.00025041    0.00217352

     Total force =     0.004375     Total SCF correction =     0.000051

     number of scf cycles    =   9
     number of bfgs steps    =   8

     energy   old            =     -34.1837733406 Ry
     energy   new            =     -34.1837915567 Ry

     CASE: energy  _new < energy  _old

     new trust radius        =       0.0088325126 bohr
     new conv_thr            =            1.0E-10 Ry


ATOMIC_POSITIONS (angstrom)
H       -0.137708560   0.773995841   0.578387829
H        0.141486174  -0.729381907   0.651162486
O        0.001013386  -0.005546934   0.000014686



     Writing output data file pwscf.save
     Check: negative starting charge=   -0.016006
     NEW-OLD atomic charge density approx. for the potential
     Check: negative starting charge=   -0.016006

     negative rho (up, down):  5.551E-04 0.000E+00

     total cpu time spent up to now is       21.2 secs

     per-process dynamical memory:    45.8 Mb

     Self-consistent Calculation

     iteration #  1     ecut=    90.00 Ry     beta=0.70
     Davidson diagonalization with overlap
     ethr =  1.00E-06,  avg # of iterations =  3.0

     Threshold (ethr) on eigenvalues was too large:
     Diagonalizing with lowered threshold

     Davidson diagonalization with overlap
     ethr =  7.57E-08,  avg # of iterations =  1.0

     negative rho (up, down):  1.314E-04 0.000E+00

     total cpu time spent up to now is       21.6 secs

     total energy              =     -34.18381625 Ry
     Harris-Foulkes estimate   =     -34.18381221 Ry
     estimated scf accuracy    <       0.00000614 Ry

     iteration #  2     ecut=    90.00 Ry     beta=0.70
     Davidson diagonalization with overlap
     ethr =  7.68E-08,  avg # of iterations =  3.0

     negative rho (up, down):  1.986E-05 0.000E+00

     total cpu time spent up to now is       21.8 secs

     total energy              =     -34.18381856 Ry
     Harris-Foulkes estimate   =     -34.18381713 Ry
     estimated scf accuracy    <       0.00000042 Ry

     iteration #  3     ecut=    90.00 Ry     beta=0.70
     Davidson diagonalization with overlap
     ethr =  5.29E-09,  avg # of iterations =  3.0

     negative rho (up, down):  1.046E-06 0.000E+00

     total cpu time spent up to now is       22.0 secs

     total energy              =     -34.18381885 Ry
     Harris-Foulkes estimate   =     -34.18381869 Ry
     estimated scf accuracy    <       0.00000010 Ry

     iteration #  4     ecut=    90.00 Ry     beta=0.70
     Davidson diagonalization with overlap
     ethr =  1.25E-09,  avg # of iterations =  2.0

     total cpu time spent up to now is       22.2 secs

     total energy              =     -34.18381895 Ry
     Harris-Foulkes estimate   =     -34.18381889 Ry
     estimated scf accuracy    <       0.00000002 Ry

     iteration #  5     ecut=    90.00 Ry     beta=0.70
     Davidson diagonalization with overlap
     ethr =  2.90E-10,  avg # of iterations =  2.0

     total cpu time spent up to now is       22.4 secs

     total energy              =     -34.18381897 Ry
     Harris-Foulkes estimate   =     -34.18381895 Ry
     estimated scf accuracy    <          1.6E-10 Ry

     iteration #  6     ecut=    90.00 Ry     beta=0.70
     Davidson diagonalization with overlap
     ethr =  1.97E-12,  avg # of iterations =  3.0

     total cpu time spent up to now is       22.5 secs

     End of self-consistent calculation

          k = 0.0000 0.0000 0.0000 (115313 PWs)   bands (ev):

   -25.1044 -12.6891  -9.2260  -7.0818  -0.9542   0.4231   0.7627   1.1463

     the Fermi energy is    -5.0762 ev

!    total energy              =     -34.18381897 Ry
     Harris-Foulkes estimate   =     -34.18381897 Ry
     estimated scf accuracy    <          2.6E-11 Ry

     The total energy is the sum of the following terms:

     one-electron contribution =     -63.63983451 Ry
     hartree contribution      =      33.24016708 Ry
     xc contribution           =      -8.35378818 Ry
     ewald contribution        =       4.56963665 Ry
     smearing contrib. (-TS)   =       0.00000000 Ry

     convergence has been achieved in   6 iterations

     Forces acting on atoms (Ry/au):

     atom    1 type  1   force =    -0.00026719    0.00121704    0.00024663
     atom    2 type  1   force =     0.00024294   -0.00117651   -0.00333065
     atom    3 type  2   force =     0.00002425   -0.00004053    0.00308402

     Total force =     0.004864     Total SCF correction =     0.000015

     number of scf cycles    =  10
     number of bfgs steps    =   9

     energy   old            =     -34.1837915567 Ry
     energy   new            =     -34.1838189714 Ry

     CASE: energy  _new < energy  _old

     new trust radius        =       0.0132487689 bohr
     new conv_thr            =            1.0E-10 Ry


ATOMIC_POSITIONS (angstrom)
H       -0.137633850   0.772894085   0.585311262
H        0.141957701  -0.731201321   0.644419909
O        0.000467149  -0.002625764  -0.000166170



     Writing output data file pwscf.save
     Check: negative starting charge=   -0.016006
     NEW-OLD atomic charge density approx. for the potential
     Check: negative starting charge=   -0.016006

     negative rho (up, down):  8.351E-04 0.000E+00

     total cpu time spent up to now is       23.1 secs

     per-process dynamical memory:    45.8 Mb

     Self-consistent Calculation

     iteration #  1     ecut=    90.00 Ry     beta=0.70
     Davidson diagonalization with overlap
     ethr =  1.00E-06,  avg # of iterations =  5.0

     negative rho (up, down):  2.045E-04 0.000E+00

     total cpu time spent up to now is       23.5 secs

     total energy              =     -34.18384763 Ry
     Harris-Foulkes estimate   =     -34.18382574 Ry
     estimated scf accuracy    <       0.00001420 Ry

     iteration #  2     ecut=    90.00 Ry     beta=0.70
     Davidson diagonalization with overlap
     ethr =  1.78E-07,  avg # of iterations =  4.0

     negative rho (up, down):  2.472E-05 0.000E+00

     total cpu time spent up to now is       23.7 secs

     total energy              =     -34.18385158 Ry
     Harris-Foulkes estimate   =     -34.18384935 Ry
     estimated scf accuracy    <       0.00000086 Ry

     iteration #  3     ecut=    90.00 Ry     beta=0.70
     Davidson diagonalization with overlap
     ethr =  1.08E-08,  avg # of iterations =  2.0

     negative rho (up, down):  5.931E-07 0.000E+00

     total cpu time spent up to now is       23.8 secs

     total energy              =     -34.18385191 Ry
     Harris-Foulkes estimate   =     -34.18385174 Ry
     estimated scf accuracy    <       0.00000010 Ry

     iteration #  4     ecut=    90.00 Ry     beta=0.70
     Davidson diagonalization with overlap
     ethr =  1.23E-09,  avg # of iterations =  3.0

     total cpu time spent up to now is       24.0 secs

     total energy              =     -34.18385200 Ry
     Harris-Foulkes estimate   =     -34.18385195 Ry
     estimated scf accuracy    <       0.00000003 Ry

     iteration #  5     ecut=    90.00 Ry     beta=0.70
     Davidson diagonalization with overlap
     ethr =  4.09E-10,  avg # of iterations =  2.0

     total cpu time spent up to now is       24.2 secs

     total energy              =     -34.18385200 Ry
     Harris-Foulkes estimate   =     -34.18385201 Ry
     estimated scf accuracy    <          4.3E-10 Ry

     iteration #  6     ecut=    90.00 Ry     beta=0.70
     Davidson diagonalization with overlap
     ethr =  5.38E-12,  avg # of iterations =  2.0

     total cpu time spent up to now is       24.4 secs

     End of self-consistent calculation

          k = 0.0000 0.0000 0.0000 (115313 PWs)   bands (ev):

   -25.1026 -12.6882  -9.2258  -7.0815  -0.9545   0.4230   0.7624   1.1462

     the Fermi energy is    -5.0759 ev

!    total energy              =     -34.18385201 Ry
     Harris-Foulkes estimate   =     -34.18385200 Ry
     estimated scf accuracy    <          2.0E-11 Ry

     The total energy is the sum of the following terms:

     one-electron contribution =     -63.63685108 Ry
     hartree contribution      =      33.23878117 Ry
     xc contribution           =      -8.35359084 Ry
     ewald contribution        =       4.56780875 Ry
     smearing contrib. (-TS)   =       0.00000000 Ry

     convergence has been achieved in   6 iterations

     Forces acting on atoms (Ry/au):

     atom    1 type  1   force =    -0.00025932    0.00105907   -0.00110067
     atom    2 type  1   force =     0.00017239   -0.00080599   -0.00281752
     atom    3 type  2   force =     0.00008693   -0.00025308    0.00391819

     Total force =     0.005142     Total SCF correction =     0.000011

     number of scf cycles    =  11
     number of bfgs steps    =  10

     energy   old            =     -34.1838189714 Ry
     energy   new            =     -34.1838520055 Ry

     CASE: energy  _new < energy  _old

     new trust radius        =       0.0122009751 bohr
     new conv_thr            =            1.0E-10 Ry


ATOMIC_POSITIONS (angstrom)
H       -0.137819795   0.773228608   0.590227591
H        0.142527126  -0.733583100   0.638445882
O        0.000083669  -0.000578509   0.000891528



     Writing output data file pwscf.save
     Check: negative starting charge=   -0.016006
     NEW-OLD atomic charge density approx. for the potential
     Check: negative starting charge=   -0.016005

     negative rho (up, down):  6.383E-04 0.000E+00

     total cpu time spent up to now is       24.9 secs

     per-process dynamical memory:    45.8 Mb

     Self-consistent Calculation

     iteration #  1     ecut=    90.00 Ry     beta=0.70
     Davidson diagonalization with overlap
     ethr =  1.00E-06,  avg # of iterations =  5.0

     negative rho (up, down):  1.532E-04 0.000E+00

     total cpu time spent up to now is       25.7 secs

     total energy              =     -34.18387167 Ry
     Harris-Foulkes estimate   =     -34.18386606 Ry
     estimated scf accuracy    <       0.00000882 Ry

     iteration #  2     ecut=    90.00 Ry     beta=0.70
     Davidson diagonalization with overlap
     ethr =  1.10E-07,  avg # of iterations =  3.0

     negative rho (up, down):  1.260E-05 0.000E+00

     total cpu time spent up to now is       25.9 secs

     total energy              =     -34.18387208 Ry
     Harris-Foulkes estimate   =     -34.18387268 Ry
     estimated scf accuracy    <       0.00000060 Ry

     iteration #  3     ecut=    90.00 Ry     beta=0.70
     Davidson diagonalization with overlap
     ethr =  7.52E-09,  avg # of iterations =  3.0

     negative rho (up, down):  9.376E-07 0.000E+00

     total cpu time spent up to now is       26.1 secs

     total energy              =     -34.18387211 Ry
     Harris-Foulkes estimate   =     -34.18387224 Ry
     estimated scf accuracy    <       0.00000013 Ry

     iteration #  4     ecut=    90.00 Ry     beta=0.70
     Davidson diagonalization with overlap
     ethr =  1.60E-09,  avg # of iterations =  2.0

     total cpu time spent up to now is       26.3 secs

     total energy              =     -34.18387222 Ry
     Harris-Foulkes estimate   =     -34.18387216 Ry
     estimated scf accuracy    <       0.00000003 Ry

     iteration #  5     ecut=    90.00 Ry     beta=0.70
     Davidson diagonalization with overlap
     ethr =  3.34E-10,  avg # of iterations =  2.0

     total cpu time spent up to now is       26.5 secs

     total energy              =     -34.18387220 Ry
     Harris-Foulkes estimate   =     -34.18387223 Ry
     estimated scf accuracy    <          1.5E-10 Ry

     iteration #  6     ecut=    90.00 Ry     beta=0.70
     Davidson diagonalization with overlap
     ethr =  1.94E-12,  avg # of iterations =  3.0

     total cpu time spent up to now is       26.6 secs

     End of self-consistent calculation

          k = 0.0000 0.0000 0.0000 (115313 PWs)   bands (ev):

   -25.0996 -12.7011  -9.2136  -7.0805  -0.9537   0.4234   0.7620   1.1459

     the Fermi energy is    -5.0754 ev

!    total energy              =     -34.18387221 Ry
     Harris-Foulkes estimate   =     -34.18387220 Ry
     estimated scf accuracy    <          3.8E-11 Ry

     The total energy is the sum of the following terms:

     one-electron contribution =     -63.63808652 Ry
     hartree contribution      =      33.23974743 Ry
     xc contribution           =      -8.35374435 Ry
     ewald contribution        =       4.56821123 Ry
     smearing contrib. (-TS)   =       0.00000000 Ry

     convergence has been achieved in   6 iterations

     Forces acting on atoms (Ry/au):

     atom    1 type  1   force =    -0.00003294   -0.00025389   -0.00103371
     atom    2 type  1   force =     0.00022492   -0.00105190   -0.00032987
     atom    3 type  2   force =    -0.00019198    0.00130579    0.00136358

     Total force =     0.002450     Total SCF correction =     0.000015

     number of scf cycles    =  12
     number of bfgs steps    =  11

     energy   old            =     -34.1838520055 Ry
     energy   new            =     -34.1838722148 Ry

     CASE: energy  _new < energy  _old

     new trust radius        =       0.0035605757 bohr
     new conv_thr            =            1.0E-10 Ry


ATOMIC_POSITIONS (angstrom)
H       -0.137948507   0.773537174   0.591162972
H        0.142792796  -0.734751807   0.636992039
O       -0.000053289   0.000281633   0.001409989



     Writing output data file pwscf.save
     Check: negative starting charge=   -0.016005
     NEW-OLD atomic charge density approx. for the potential
     Check: negative starting charge=   -0.016004

     negative rho (up, down):  2.399E-04 0.000E+00

     total cpu time spent up to now is       27.5 secs

     per-process dynamical memory:    45.8 Mb

     Self-consistent Calculation

     iteration #  1     ecut=    90.00 Ry     beta=0.70
     Davidson diagonalization with overlap
     ethr =  1.00E-06,  avg # of iterations =  3.0

     Threshold (ethr) on eigenvalues was too large:
     Diagonalizing with lowered threshold

     Davidson diagonalization with overlap
     ethr =  1.12E-08,  avg # of iterations =  2.0

     negative rho (up, down):  5.103E-05 0.000E+00

     total cpu time spent up to now is       28.4 secs

     total energy              =     -34.18387487 Ry
     Harris-Foulkes estimate   =     -34.18387529 Ry
     estimated scf accuracy    <       0.00000096 Ry

     iteration #  2     ecut=    90.00 Ry     beta=0.70
     Davidson diagonalization with overlap
     ethr =  1.20E-08,  avg # of iterations =  2.0

     negative rho (up, down):  6.199E-06 0.000E+00

     total cpu time spent up to now is       28.6 secs

     total energy              =     -34.18387481 Ry
     Harris-Foulkes estimate   =     -34.18387507 Ry
     estimated scf accuracy    <       0.00000006 Ry

     iteration #  3     ecut=    90.00 Ry     beta=0.70
     Davidson diagonalization with overlap
     ethr =  6.91E-10,  avg # of iterations =  2.0

     negative rho (up, down):  1.098E-08 0.000E+00

     total cpu time spent up to now is       28.8 secs

     total energy              =     -34.18387468 Ry
     Harris-Foulkes estimate   =     -34.18387483 Ry
     estimated scf accuracy    <          5.3E-09 Ry

     iteration #  4     ecut=    90.00 Ry     beta=0.70
     Davidson diagonalization with overlap
     ethr =  6.66E-11,  avg # of iterations =  2.0

     total cpu time spent up to now is       29.0 secs

     total energy              =     -34.18387471 Ry
     Harris-Foulkes estimate   =     -34.18387469 Ry
     estimated scf accuracy    <          1.5E-09 Ry

     iteration #  5     ecut=    90.00 Ry     beta=0.70
     Davidson diagonalization with overlap
     ethr =  1.87E-11,  avg # of iterations =  2.0

     total cpu time spent up to now is       29.1 secs

     End of self-consistent calculation

          k = 0.0000 0.0000 0.0000 (115313 PWs)   bands (ev):

   -25.0970 -12.7067  -9.2070  -7.0798  -0.9536   0.4234   0.7615   1.1457

     the Fermi energy is    -5.0748 ev

!    total energy              =     -34.18387469 Ry
     Harris-Foulkes estimate   =     -34.18387471 Ry
     estimated scf accuracy    <          3.5E-11 Ry

     The total energy is the sum of the following terms:

     one-electron contribution =     -63.63608532 Ry
     hartree contribution      =      33.23898603 Ry
     xc contribution           =      -8.35361281 Ry
     ewald contribution        =       4.56683741 Ry
     smearing contrib. (-TS)   =       0.00000000 Ry

     convergence has been achieved in   5 iterations

     Forces acting on atoms (Ry/au):

     atom    1 type  1   force =    -0.00006752    0.00003625   -0.00017924
     atom    2 type  1   force =     0.00002870    0.00007385   -0.00008365
     atom    3 type  2   force =     0.00003881   -0.00011010    0.00026289

     Total force =     0.000366     Total SCF correction =     0.000025

     bfgs converged in  13 scf cycles and  12 bfgs steps
     (criteria: energy <  1.0E-04, force <  1.0E-03)

     End of BFGS Geometry Optimization

     Final energy   =     -34.1838746924 Ry
Begin final coordinates

ATOMIC_POSITIONS (angstrom)
H       -0.137948507   0.773537174   0.591162972
H        0.142792796  -0.734751807   0.636992039
O       -0.000053289   0.000281633   0.001409989
End final coordinates



     Writing output data file pwscf.save
 
     init_run     :      0.49s CPU      0.67s WALL (       1 calls)
     electrons    :     17.92s CPU     22.01s WALL (      13 calls)
     update_pot   :      3.02s CPU      3.66s WALL (      12 calls)
     forces       :      0.92s CPU      0.94s WALL (      13 calls)

     Called by init_run:
     wfcinit      :      0.07s CPU      0.10s WALL (       1 calls)
     potinit      :      0.10s CPU      0.11s WALL (       1 calls)

     Called by electrons:
     c_bands      :      7.17s CPU      7.49s WALL (      83 calls)
     sum_band     :      1.65s CPU      1.71s WALL (      83 calls)
     v_of_rho     :      4.51s CPU      4.72s WALL (      90 calls)
     mix_rho      :      1.69s CPU      2.94s WALL (      83 calls)

     Called by c_bands:
     init_us_2    :      0.05s CPU      0.05s WALL (     167 calls)
     cegterg      :      7.12s CPU      7.39s WALL (      83 calls)

     Called by sum_band:

     Called by *egterg:
     h_psi        :      6.29s CPU      6.56s WALL (     408 calls)
     g_psi        :      0.05s CPU      0.05s WALL (     324 calls)
     cdiaghg      :      0.09s CPU      0.09s WALL (     389 calls)

     Called by h_psi:
     h_psi:pot    :      6.23s CPU      6.49s WALL (     408 calls)
     h_psi:calbec :      0.07s CPU      0.08s WALL (     408 calls)
     vloc_psi     :      6.11s CPU      6.37s WALL (     408 calls)
     add_vuspsi   :      0.05s CPU      0.05s WALL (     408 calls)

     General routines
     calbec       :      0.08s CPU      0.08s WALL (     460 calls)
     fft          :      3.50s CPU      3.79s WALL (    1027 calls)
     fftw         :      6.22s CPU      6.49s WALL (    4912 calls)
     davcio       :      0.19s CPU      1.24s WALL (     502 calls)
 
     Parallel routines
     fft_scatter  :      3.82s CPU      4.27s WALL (    5939 calls)
 
     PWSCF        :    23.12s CPU        29.62s WALL

 
   This run was terminated on:   2:11: 4  28Jul2018            

=------------------------------------------------------------------------------=
   JOB DONE.
=------------------------------------------------------------------------------=
