
     Program PWSCF v.6.0 (svn rev. 13079) starts on 28Jul2018 at  2:42: 5 

     This program is part of the open-source Quantum ESPRESSO suite
     for quantum simulation of materials; please cite
         "P. Giannozzi et al., J. Phys.:Condens. Matter 21 395502 (2009);
          URL http://www.quantum-espresso.org", 
     in publications or presentations arising from this work. More details at
     http://www.quantum-espresso.org/quote

     Parallel version (MPI), running on    28 processors
     R & G space division:  proc/nbgrp/npool/nimage =      28
     Reading input from ../QMCmins/relax-74.in

     Current dimensions of program PWSCF are:
     Max number of different atomic species (ntypx) = 10
     Max number of k-points (npk) =  40000
     Max angular momentum in pseudopotentials (lmaxx) =  3
     Message from routine iosys:
     pot_extrapolation='second-order' not available, using 'atomic'
     Message from routine iosys:
     wfc_extrapolation='second-order' not available, using 'atomic'

     Subspace diagonalization in iterative solution of the eigenvalue problem:
     a serial algorithm will be used

 
     Parallelization info
     --------------------
     sticks:   dense  smooth     PW     G-vecs:    dense   smooth      PW
     Min         408     408    102                32936    32936    4116
     Max         409     409    103                32943    32943    4121
     Sum       11449   11449   2869               922329   922329  115313
 


     bravais-lattice index     =            1
     lattice parameter (alat)  =      20.0000  a.u.
     unit-cell volume          =    8000.0000 (a.u.)^3
     number of atoms/cell      =            3
     number of atomic types    =            2
     number of electrons       =         8.00
     number of Kohn-Sham states=            8
     kinetic-energy cutoff     =      90.0000  Ry
     charge density cutoff     =     360.0000  Ry
     convergence threshold     =      1.0E-08
     mixing beta               =       0.7000
     number of iterations used =            8  plain     mixing
     Exchange-correlation      = BLYP ( 1  3  1  3 0 0)
     nstep                     =           50


     celldm(1)=  20.000000  celldm(2)=   0.000000  celldm(3)=   0.000000
     celldm(4)=   0.000000  celldm(5)=   0.000000  celldm(6)=   0.000000

     crystal axes: (cart. coord. in units of alat)
               a(1) = (   1.000000   0.000000   0.000000 )  
               a(2) = (   0.000000   1.000000   0.000000 )  
               a(3) = (   0.000000   0.000000   1.000000 )  

     reciprocal axes: (cart. coord. in units 2 pi/alat)
               b(1) = (  1.000000  0.000000  0.000000 )  
               b(2) = (  0.000000  1.000000  0.000000 )  
               b(3) = (  0.000000  0.000000  1.000000 )  


     PseudoPot. # 1 for  H read from file:
     ../H.blyp-hgh.UPF
     MD5 check sum: c576e69559cde411e611be972c763230
     Pseudo is Norm-conserving, Zval =  1.0
     Generated in analytical, separable form
     Using radial grid of  929 points,  0 beta functions with: 

     PseudoPot. # 2 for  O read from file:
     ../O.blyp-hgh.UPF
     MD5 check sum: d0b7156309aa9befef28faac7bc56342
     Pseudo is Norm-conserving, Zval =  6.0
     Generated in analytical, separable form
     Using radial grid of 1095 points,  1 beta functions with: 
                l(1) =   0

     atomic species   valence    mass     pseudopotential
        H              1.00     1.01000      H( 1.00)
        O              6.00    16.00000      O( 1.00)

     No symmetry found



   Cartesian axes

     site n.     atom                  positions (alat units)
         1           H   tau(   1) = (  -0.0745109   0.0101812   0.0458317  )
         2           H   tau(   2) = (   0.0111808   0.0582603  -0.0745832  )
         3           O   tau(   3) = (   0.0039977  -0.0043204   0.0073929  )

     number of k points=     1  Marzari-Vanderbilt smearing, width (Ry)=  0.0250
                       cart. coord. in units 2pi/alat
        k(    1) = (   0.0000000   0.0000000   0.0000000), wk =   2.0000000

     Dense  grid:   922329 G-vectors     FFT dimensions: ( 125, 125, 125)

     Estimated max dynamical RAM per process >      31.67Mb

     Estimated total allocated dynamical RAM >     886.64Mb

     Initial potential from superposition of free atoms
     Check: negative starting charge=   -0.015885

     starting charge    7.99998, renormalised to    8.00000

     negative rho (up, down):  1.588E-02 0.000E+00
     Starting wfc are    6 randomized atomic wfcs +    2 random wfc

     total cpu time spent up to now is        0.7 secs

     per-process dynamical memory:    33.5 Mb

     Self-consistent Calculation

     iteration #  1     ecut=    90.00 Ry     beta=0.70
     Davidson diagonalization with overlap
     ethr =  1.00E-02,  avg # of iterations =  7.0

     negative rho (up, down):  4.608E-03 0.000E+00

     total cpu time spent up to now is        0.9 secs

     total energy              =     -34.00574888 Ry
     Harris-Foulkes estimate   =     -34.24524674 Ry
     estimated scf accuracy    <       0.36009672 Ry

     iteration #  2     ecut=    90.00 Ry     beta=0.70
     Davidson diagonalization with overlap
     ethr =  4.50E-03,  avg # of iterations =  2.0

     negative rho (up, down):  2.812E-03 0.000E+00

     total cpu time spent up to now is        1.1 secs

     total energy              =     -34.05653032 Ry
     Harris-Foulkes estimate   =     -34.26881854 Ry
     estimated scf accuracy    <       0.47212585 Ry

     iteration #  3     ecut=    90.00 Ry     beta=0.70
     Davidson diagonalization with overlap
     ethr =  4.50E-03,  avg # of iterations =  2.0

     negative rho (up, down):  1.678E-04 0.000E+00

     total cpu time spent up to now is        1.3 secs

     total energy              =     -34.15873245 Ry
     Harris-Foulkes estimate   =     -34.15960450 Ry
     estimated scf accuracy    <       0.00618393 Ry

     iteration #  4     ecut=    90.00 Ry     beta=0.70
     Davidson diagonalization with overlap
     ethr =  7.73E-05,  avg # of iterations =  7.0

     negative rho (up, down):  3.506E-06 0.000E+00

     total cpu time spent up to now is        1.5 secs

     total energy              =     -34.16040040 Ry
     Harris-Foulkes estimate   =     -34.16054312 Ry
     estimated scf accuracy    <       0.00036394 Ry

     iteration #  5     ecut=    90.00 Ry     beta=0.70
     Davidson diagonalization with overlap
     ethr =  4.55E-06,  avg # of iterations = 11.0

     negative rho (up, down):  3.871E-06 0.000E+00

     total cpu time spent up to now is        1.9 secs

     total energy              =     -34.16042435 Ry
     Harris-Foulkes estimate   =     -34.16043067 Ry
     estimated scf accuracy    <       0.00002469 Ry

     iteration #  6     ecut=    90.00 Ry     beta=0.70
     Davidson diagonalization with overlap
     ethr =  3.09E-07,  avg # of iterations =  2.0

     negative rho (up, down):  3.598E-07 0.000E+00

     total cpu time spent up to now is        2.1 secs

     total energy              =     -34.16042693 Ry
     Harris-Foulkes estimate   =     -34.16042774 Ry
     estimated scf accuracy    <       0.00000036 Ry

     iteration #  7     ecut=    90.00 Ry     beta=0.70
     Davidson diagonalization with overlap
     ethr =  4.48E-09,  avg # of iterations =  2.0

     total cpu time spent up to now is        2.3 secs

     total energy              =     -34.16042685 Ry
     Harris-Foulkes estimate   =     -34.16042704 Ry
     estimated scf accuracy    <       0.00000006 Ry

     iteration #  8     ecut=    90.00 Ry     beta=0.70
     Davidson diagonalization with overlap
     ethr =  7.41E-10,  avg # of iterations =  2.0

     total cpu time spent up to now is        2.5 secs

     End of self-consistent calculation

          k = 0.0000 0.0000 0.0000 (115313 PWs)   bands (ev):

   -24.7876 -12.6240  -8.9032  -6.9989  -1.1431   0.3222   0.6863   1.1225

     the Fermi energy is    -5.0149 ev

!    total energy              =     -34.16042677 Ry
     Harris-Foulkes estimate   =     -34.16042686 Ry
     estimated scf accuracy    <          5.0E-09 Ry

     The total energy is the sum of the following terms:

     one-electron contribution =     -62.93884218 Ry
     hartree contribution      =      32.91512129 Ry
     xc contribution           =      -8.30409658 Ry
     ewald contribution        =       4.16739070 Ry
     smearing contrib. (-TS)   =       0.00000000 Ry

     convergence has been achieved in   8 iterations

     Forces acting on atoms (Ry/au):

     atom    1 type  1   force =    -0.08623238    0.02705997    0.02874951
     atom    2 type  1   force =    -0.02394898   -0.08590413    0.12287511
     atom    3 type  2   force =     0.11018136    0.05884417   -0.15162463

     Total force =     0.265780     Total SCF correction =     0.000117

     BFGS Geometry Optimization

     number of scf cycles    =   1
     number of bfgs steps    =   0

     energy   new            =     -34.1604267739 Ry

     new trust radius        =       0.1964499845 bohr
     new conv_thr            =       0.0000000100 Ry


ATOMIC_POSITIONS (angstrom)
H       -0.834221209   0.122072519   0.500275587
H        0.105659743   0.571141490  -0.724332290
O        0.100615466  -0.014586009  -0.001993298



     Writing output data file pwscf.save
     Check: negative starting charge=   -0.015885
     NEW-OLD atomic charge density approx. for the potential
     Check: negative starting charge=   -0.015914

     negative rho (up, down):  2.879E-02 0.000E+00

     total cpu time spent up to now is        3.2 secs

     per-process dynamical memory:    45.8 Mb

     Self-consistent Calculation

     iteration #  1     ecut=    90.00 Ry     beta=0.70
     Davidson diagonalization with overlap
     c_bands:  1 eigenvalues not converged
     ethr =  1.00E-06,  avg # of iterations = 20.0

     negative rho (up, down):  7.463E-03 0.000E+00

     total cpu time spent up to now is        3.7 secs

     total energy              =     -34.15868679 Ry
     Harris-Foulkes estimate   =     -34.12910233 Ry
     estimated scf accuracy    <       0.01518355 Ry

     iteration #  2     ecut=    90.00 Ry     beta=0.70
     Davidson diagonalization with overlap
     ethr =  1.90E-04,  avg # of iterations =  4.0

     negative rho (up, down):  3.439E-03 0.000E+00

     total cpu time spent up to now is        3.9 secs

     total energy              =     -34.16590391 Ry
     Harris-Foulkes estimate   =     -34.16392333 Ry
     estimated scf accuracy    <       0.00374976 Ry

     iteration #  3     ecut=    90.00 Ry     beta=0.70
     Davidson diagonalization with overlap
     ethr =  4.69E-05,  avg # of iterations =  5.0

     negative rho (up, down):  1.472E-03 0.000E+00

     total cpu time spent up to now is        4.2 secs

     total energy              =     -34.15991647 Ry
     Harris-Foulkes estimate   =     -34.16798676 Ry
     estimated scf accuracy    <       0.00103291 Ry

     iteration #  4     ecut=    90.00 Ry     beta=0.70
     Davidson diagonalization with overlap
     ethr =  1.29E-05,  avg # of iterations = 15.0

     negative rho (up, down):  1.000E-04 0.000E+00

     total cpu time spent up to now is        4.5 secs

     total energy              =     -34.16172385 Ry
     Harris-Foulkes estimate   =     -34.16158659 Ry
     estimated scf accuracy    <       0.00007347 Ry

     iteration #  5     ecut=    90.00 Ry     beta=0.70
     Davidson diagonalization with overlap
     c_bands:  1 eigenvalues not converged
     ethr =  9.18E-07,  avg # of iterations = 20.0

     negative rho (up, down):  3.372E-06 0.000E+00

     total cpu time spent up to now is        4.8 secs

     total energy              =     -34.16581693 Ry
     Harris-Foulkes estimate   =     -34.16581705 Ry
     estimated scf accuracy    <       0.00000276 Ry

     iteration #  6     ecut=    90.00 Ry     beta=0.70
     Davidson diagonalization with overlap
     ethr =  3.45E-08,  avg # of iterations =  3.0

     negative rho (up, down):  7.960E-08 0.000E+00

     total cpu time spent up to now is        5.0 secs

     total energy              =     -34.16581701 Ry
     Harris-Foulkes estimate   =     -34.16581736 Ry
     estimated scf accuracy    <       0.00000007 Ry

     iteration #  7     ecut=    90.00 Ry     beta=0.70
     Davidson diagonalization with overlap
     ethr =  8.44E-10,  avg # of iterations =  2.0

     total cpu time spent up to now is        5.1 secs

     End of self-consistent calculation

          k = 0.0000 0.0000 0.0000 (115313 PWs)   bands (ev):

   -24.9437 -12.7225  -8.9777  -7.0329  -1.0641   0.3572   0.7170   1.1226

     the Fermi energy is    -5.0538 ev

!    total energy              =     -34.16581704 Ry
     Harris-Foulkes estimate   =     -34.16581702 Ry
     estimated scf accuracy    <          8.7E-09 Ry

     The total energy is the sum of the following terms:

     one-electron contribution =     -63.28235856 Ry
     hartree contribution      =      33.07705712 Ry
     xc contribution           =      -8.32974746 Ry
     ewald contribution        =       4.36923186 Ry
     smearing contrib. (-TS)   =       0.00000000 Ry

     convergence has been achieved in   7 iterations

     Forces acting on atoms (Ry/au):

     atom    1 type  1   force =     0.11142532   -0.01125140   -0.06843796
     atom    2 type  1   force =    -0.00966561    0.07293434   -0.08494871
     atom    3 type  2   force =    -0.10175971   -0.06168294    0.15338667

     Total force =     0.259889     Total SCF correction =     0.000083

     number of scf cycles    =   2
     number of bfgs steps    =   1

     energy   old            =     -34.1604267739 Ry
     energy   new            =     -34.1658170416 Ry

     CASE: energy  _new < energy  _old

     new trust radius        =       0.0963206128 bohr
     new conv_thr            =       0.0000000054 Ry


ATOMIC_POSITIONS (angstrom)
H       -0.804701573   0.119275330   0.481902218
H        0.102784608   0.590169058  -0.746265927
O        0.073970965  -0.030816388   0.038313710



     Writing output data file pwscf.save
     Check: negative starting charge=   -0.015914
     NEW-OLD atomic charge density approx. for the potential
     Check: negative starting charge=   -0.015954

     negative rho (up, down):  1.727E-02 0.000E+00

     total cpu time spent up to now is        5.7 secs

     per-process dynamical memory:    45.8 Mb

     Self-consistent Calculation

     iteration #  1     ecut=    90.00 Ry     beta=0.70
     Davidson diagonalization with overlap
     c_bands:  1 eigenvalues not converged
     ethr =  1.00E-06,  avg # of iterations = 20.0

     negative rho (up, down):  4.527E-03 0.000E+00

     total cpu time spent up to now is        6.1 secs

     total energy              =     -34.17279810 Ry
     Harris-Foulkes estimate   =     -34.15655114 Ry
     estimated scf accuracy    <       0.00339085 Ry

     iteration #  2     ecut=    90.00 Ry     beta=0.70
     Davidson diagonalization with overlap
     ethr =  4.24E-05,  avg # of iterations =  6.0

     negative rho (up, down):  1.651E-03 0.000E+00

     total cpu time spent up to now is        6.4 secs

     total energy              =     -34.17752854 Ry
     Harris-Foulkes estimate   =     -34.17370484 Ry
     estimated scf accuracy    <       0.00023045 Ry

     iteration #  3     ecut=    90.00 Ry     beta=0.70
     Davidson diagonalization with overlap
     ethr =  2.88E-06,  avg # of iterations = 15.0

     negative rho (up, down):  8.438E-05 0.000E+00

     total cpu time spent up to now is        6.7 secs

     total energy              =     -34.17797098 Ry
     Harris-Foulkes estimate   =     -34.17758405 Ry
     estimated scf accuracy    <       0.00000973 Ry

     iteration #  4     ecut=    90.00 Ry     beta=0.70
     Davidson diagonalization with overlap
     c_bands:  1 eigenvalues not converged
     ethr =  1.22E-07,  avg # of iterations = 20.0

     negative rho (up, down):  6.800E-06 0.000E+00

     total cpu time spent up to now is        7.2 secs

     total energy              =     -34.18205323 Ry
     Harris-Foulkes estimate   =     -34.18205292 Ry
     estimated scf accuracy    <       0.00000061 Ry

     iteration #  5     ecut=    90.00 Ry     beta=0.70
     Davidson diagonalization with overlap
     ethr =  7.59E-09,  avg # of iterations =  5.0

     negative rho (up, down):  2.191E-07 0.000E+00

     total cpu time spent up to now is        7.4 secs

     total energy              =     -34.18205329 Ry
     Harris-Foulkes estimate   =     -34.18205349 Ry
     estimated scf accuracy    <       0.00000022 Ry

     iteration #  6     ecut=    90.00 Ry     beta=0.70
     Davidson diagonalization with overlap
     ethr =  2.77E-09,  avg # of iterations =  2.0

     total cpu time spent up to now is        7.6 secs

     End of self-consistent calculation

          k = 0.0000 0.0000 0.0000 (115313 PWs)   bands (ev):

   -24.8670 -12.7239  -9.0062  -7.0312  -0.9957   0.4118   0.6965   1.1237

     the Fermi energy is    -5.0338 ev

!    total energy              =     -34.18205342 Ry
     Harris-Foulkes estimate   =     -34.18205335 Ry
     estimated scf accuracy    <          1.6E-09 Ry

     The total energy is the sum of the following terms:

     one-electron contribution =     -63.24997868 Ry
     hartree contribution      =      33.06067732 Ry
     xc contribution           =      -8.32421566 Ry
     ewald contribution        =       4.33146360 Ry
     smearing contrib. (-TS)   =       0.00000000 Ry

     convergence has been achieved in   6 iterations

     Forces acting on atoms (Ry/au):

     atom    1 type  1   force =     0.02380645    0.00261452   -0.01972491
     atom    2 type  1   force =    -0.00967609   -0.02016610    0.03224726
     atom    3 type  2   force =    -0.01413036    0.01755158   -0.01252235

     Total force =     0.056279     Total SCF correction =     0.000245

     number of scf cycles    =   3
     number of bfgs steps    =   2

     energy   old            =     -34.1658170416 Ry
     energy   new            =     -34.1820534202 Ry

     CASE: energy  _new < energy  _old

     new trust radius        =       0.0388002463 bohr
     new conv_thr            =       0.0000000032 Ry


ATOMIC_POSITIONS (angstrom)
H       -0.788671400   0.120470974   0.469128201
H        0.097082767   0.581827034  -0.731747932
O        0.063642633  -0.023670008   0.036569731



     Writing output data file pwscf.save
     Check: negative starting charge=   -0.015954
     NEW-OLD atomic charge density approx. for the potential
     Check: negative starting charge=   -0.015948

     negative rho (up, down):  4.170E-03 0.000E+00

     total cpu time spent up to now is        8.1 secs

     per-process dynamical memory:    45.8 Mb

     Self-consistent Calculation

     iteration #  1     ecut=    90.00 Ry     beta=0.70
     Davidson diagonalization with overlap
     c_bands:  1 eigenvalues not converged
     ethr =  1.00E-06,  avg # of iterations = 20.0

     negative rho (up, down):  1.080E-03 0.000E+00

     total cpu time spent up to now is        8.6 secs

     total energy              =     -34.17806983 Ry
     Harris-Foulkes estimate   =     -34.17560703 Ry
     estimated scf accuracy    <       0.00153399 Ry

     iteration #  2     ecut=    90.00 Ry     beta=0.70
     Davidson diagonalization with overlap
     ethr =  1.92E-05,  avg # of iterations =  9.0

     negative rho (up, down):  6.663E-04 0.000E+00

     total cpu time spent up to now is        8.8 secs

     total energy              =     -34.17846528 Ry
     Harris-Foulkes estimate   =     -34.17918163 Ry
     estimated scf accuracy    <       0.00161182 Ry

     iteration #  3     ecut=    90.00 Ry     beta=0.70
     Davidson diagonalization with overlap
     ethr =  1.92E-05,  avg # of iterations =  2.0

     negative rho (up, down):  1.097E-04 0.000E+00

     total cpu time spent up to now is        9.0 secs

     total energy              =     -34.18289006 Ry
     Harris-Foulkes estimate   =     -34.18287289 Ry
     estimated scf accuracy    <       0.00000779 Ry

     iteration #  4     ecut=    90.00 Ry     beta=0.70
     Davidson diagonalization with overlap
     c_bands:  1 eigenvalues not converged
     ethr =  9.74E-08,  avg # of iterations = 20.0

     negative rho (up, down):  1.177E-05 0.000E+00

     total cpu time spent up to now is        9.4 secs

     total energy              =     -34.18289211 Ry
     Harris-Foulkes estimate   =     -34.18289405 Ry
     estimated scf accuracy    <       0.00000027 Ry

     iteration #  5     ecut=    90.00 Ry     beta=0.70
     Davidson diagonalization with overlap
     ethr =  3.34E-09,  avg # of iterations = 12.0

     total cpu time spent up to now is        9.7 secs

     total energy              =     -34.18289170 Ry
     Harris-Foulkes estimate   =     -34.18289219 Ry
     estimated scf accuracy    <       0.00000001 Ry

     iteration #  6     ecut=    90.00 Ry     beta=0.70
     Davidson diagonalization with overlap
     ethr =  1.41E-10,  avg # of iterations =  2.0

     total cpu time spent up to now is        9.8 secs

     End of self-consistent calculation

          k = 0.0000 0.0000 0.0000 (115313 PWs)   bands (ev):

   -25.1296 -12.9833  -9.0234  -7.0783  -0.9160   0.4366   0.7548   1.1268

     the Fermi energy is    -5.0972 ev

!    total energy              =     -34.18289159 Ry
     Harris-Foulkes estimate   =     -34.18289171 Ry
     estimated scf accuracy    <          3.4E-10 Ry

     The total energy is the sum of the following terms:

     one-electron contribution =     -63.83364078 Ry
     hartree contribution      =      33.33931485 Ry
     xc contribution           =      -8.36971671 Ry
     ewald contribution        =       4.68115106 Ry
     smearing contrib. (-TS)   =       0.00000000 Ry

     convergence has been achieved in   6 iterations

     Forces acting on atoms (Ry/au):

     atom    1 type  1   force =    -0.02372667    0.00992491    0.00535063
     atom    2 type  1   force =    -0.00737129    0.00330725    0.00172079
     atom    3 type  2   force =     0.03109796   -0.01323216   -0.00707143

     Total force =     0.044164     Total SCF correction =     0.000044

     number of scf cycles    =   4
     number of bfgs steps    =   3

     energy   old            =     -34.1820534202 Ry
     energy   new            =     -34.1828915878 Ry

     CASE: energy  _new < energy  _old

     new trust radius        =       0.0189693089 bohr
     new conv_thr            =       0.0000000008 Ry


ATOMIC_POSITIONS (angstrom)
H       -0.794260365   0.123987533   0.469001875
H        0.093793409   0.582851399  -0.730472966
O        0.072520956  -0.028210931   0.035421091



     Writing output data file pwscf.save
     Check: negative starting charge=   -0.015948
     NEW-OLD atomic charge density approx. for the potential
     Check: negative starting charge=   -0.015968

     negative rho (up, down):  3.183E-03 0.000E+00

     total cpu time spent up to now is       10.4 secs

     per-process dynamical memory:    45.8 Mb

     Self-consistent Calculation

     iteration #  1     ecut=    90.00 Ry     beta=0.70
     Davidson diagonalization with overlap
     c_bands:  1 eigenvalues not converged
     ethr =  1.00E-06,  avg # of iterations = 20.0

     negative rho (up, down):  8.200E-04 0.000E+00

     total cpu time spent up to now is       10.9 secs

     total energy              =     -34.17928498 Ry
     Harris-Foulkes estimate   =     -34.17723247 Ry
     estimated scf accuracy    <       0.00021339 Ry

     iteration #  2     ecut=    90.00 Ry     beta=0.70
     Davidson diagonalization with overlap
     ethr =  2.67E-06,  avg # of iterations = 19.0

     negative rho (up, down):  4.926E-04 0.000E+00

     total cpu time spent up to now is       11.2 secs

     total energy              =     -34.18342432 Ry
     Harris-Foulkes estimate   =     -34.18350299 Ry
     estimated scf accuracy    <       0.00018732 Ry

     iteration #  3     ecut=    90.00 Ry     beta=0.70
     Davidson diagonalization with overlap
     ethr =  2.34E-06,  avg # of iterations = 11.0

     negative rho (up, down):  9.133E-05 0.000E+00

     total cpu time spent up to now is       11.5 secs

     total energy              =     -34.18347135 Ry
     Harris-Foulkes estimate   =     -34.18346677 Ry
     estimated scf accuracy    <       0.00000295 Ry

     iteration #  4     ecut=    90.00 Ry     beta=0.70
     Davidson diagonalization with overlap
     ethr =  3.68E-08,  avg # of iterations =  4.0

     negative rho (up, down):  4.537E-06 0.000E+00

     total cpu time spent up to now is       11.9 secs

     total energy              =     -34.18347432 Ry
     Harris-Foulkes estimate   =     -34.18347243 Ry
     estimated scf accuracy    <       0.00000007 Ry

     iteration #  5     ecut=    90.00 Ry     beta=0.70
     Davidson diagonalization with overlap
     ethr =  9.29E-10,  avg # of iterations =  2.0

     total cpu time spent up to now is       12.1 secs

     total energy              =     -34.18347461 Ry
     Harris-Foulkes estimate   =     -34.18347437 Ry
     estimated scf accuracy    <          3.0E-09 Ry

     iteration #  6     ecut=    90.00 Ry     beta=0.70
     Davidson diagonalization with overlap
     ethr =  3.72E-11,  avg # of iterations =  2.0

     total cpu time spent up to now is       12.2 secs

     End of self-consistent calculation

          k = 0.0000 0.0000 0.0000 (115313 PWs)   bands (ev):

   -25.0664 -12.8513  -9.0733  -7.0692  -0.9407   0.4286   0.7408   1.1268

     the Fermi energy is    -5.0814 ev

!    total energy              =     -34.18347468 Ry
     Harris-Foulkes estimate   =     -34.18347461 Ry
     estimated scf accuracy    <          1.4E-10 Ry

     The total energy is the sum of the following terms:

     one-electron contribution =     -63.65873400 Ry
     hartree contribution      =      33.25413980 Ry
     xc contribution           =      -8.35576278 Ry
     ewald contribution        =       4.57688229 Ry
     smearing contrib. (-TS)   =       0.00000000 Ry

     convergence has been achieved in   6 iterations

     Forces acting on atoms (Ry/au):

     atom    1 type  1   force =     0.00125769    0.00375976   -0.00507702
     atom    2 type  1   force =    -0.00488529    0.00184677    0.00163209
     atom    3 type  2   force =     0.00362760   -0.00560653    0.00344493

     Total force =     0.011309     Total SCF correction =     0.000085

     number of scf cycles    =   5
     number of bfgs steps    =   4

     energy   old            =     -34.1828915878 Ry
     energy   new            =     -34.1834746818 Ry

     CASE: energy  _new < energy  _old

     new trust radius        =       0.0097557258 bohr
     new conv_thr            =       0.0000000006 Ry


ATOMIC_POSITIONS (angstrom)
H       -0.793580665   0.127139950   0.464970528
H        0.089658421   0.583173931  -0.727606730
O        0.075976244  -0.031685881   0.036586202



     Writing output data file pwscf.save
     Check: negative starting charge=   -0.015968
     NEW-OLD atomic charge density approx. for the potential
     Check: negative starting charge=   -0.015980

     negative rho (up, down):  1.509E-03 0.000E+00

     total cpu time spent up to now is       12.8 secs

     per-process dynamical memory:    45.8 Mb

     Self-consistent Calculation

     iteration #  1     ecut=    90.00 Ry     beta=0.70
     Davidson diagonalization with overlap
     c_bands:  1 eigenvalues not converged
     ethr =  1.00E-06,  avg # of iterations = 20.0

     negative rho (up, down):  3.805E-04 0.000E+00

     total cpu time spent up to now is       13.2 secs

     total energy              =     -34.17951589 Ry
     Harris-Foulkes estimate   =     -34.17929043 Ry
     estimated scf accuracy    <       0.00001779 Ry

     iteration #  2     ecut=    90.00 Ry     beta=0.70
     Davidson diagonalization with overlap
     c_bands:  1 eigenvalues not converged
     ethr =  2.22E-07,  avg # of iterations = 20.0

     negative rho (up, down):  1.975E-04 0.000E+00

     total cpu time spent up to now is       13.5 secs

     total energy              =     -34.18359819 Ry
     Harris-Foulkes estimate   =     -34.18360197 Ry
     estimated scf accuracy    <       0.00000985 Ry

     iteration #  3     ecut=    90.00 Ry     beta=0.70
     Davidson diagonalization with overlap
     ethr =  1.23E-07,  avg # of iterations =  6.0

     negative rho (up, down):  8.767E-06 0.000E+00

     total cpu time spent up to now is       13.7 secs

     total energy              =     -34.18360526 Ry
     Harris-Foulkes estimate   =     -34.18360108 Ry
     estimated scf accuracy    <       0.00000096 Ry

     iteration #  4     ecut=    90.00 Ry     beta=0.70
     Davidson diagonalization with overlap
     ethr =  1.20E-08,  avg # of iterations =  4.0

     negative rho (up, down):  1.688E-08 0.000E+00

     total cpu time spent up to now is       13.9 secs

     total energy              =     -34.18360584 Ry
     Harris-Foulkes estimate   =     -34.18360551 Ry
     estimated scf accuracy    <          9.0E-09 Ry

     iteration #  5     ecut=    90.00 Ry     beta=0.70
     Davidson diagonalization with overlap
     ethr =  1.13E-10,  avg # of iterations =  3.0

     total cpu time spent up to now is       14.2 secs

     total energy              =     -34.18360595 Ry
     Harris-Foulkes estimate   =     -34.18360585 Ry
     estimated scf accuracy    <          9.7E-10 Ry

     iteration #  6     ecut=    90.00 Ry     beta=0.70
     Davidson diagonalization with overlap
     ethr =  1.21E-11,  avg # of iterations =  2.0

     total cpu time spent up to now is       14.3 secs

     End of self-consistent calculation

          k = 0.0000 0.0000 0.0000 (115313 PWs)   bands (ev):

   -25.0724 -12.7942  -9.1215  -7.0722  -0.9456   0.4265   0.7409   1.1257

     the Fermi energy is    -5.0837 ev

!    total energy              =     -34.18360597 Ry
     Harris-Foulkes estimate   =     -34.18360595 Ry
     estimated scf accuracy    <          2.5E-11 Ry

     The total energy is the sum of the following terms:

     one-electron contribution =     -63.63971373 Ry
     hartree contribution      =      33.24347454 Ry
     xc contribution           =      -8.35403781 Ry
     ewald contribution        =       4.56667102 Ry
     smearing contrib. (-TS)   =       0.00000000 Ry

     convergence has been achieved in   6 iterations

     Forces acting on atoms (Ry/au):

     atom    1 type  1   force =     0.00297369    0.00158612   -0.00369520
     atom    2 type  1   force =    -0.00240028    0.00045771    0.00150087
     atom    3 type  2   force =    -0.00057341   -0.00204384    0.00219433

     Total force =     0.006524     Total SCF correction =     0.000006

     number of scf cycles    =   6
     number of bfgs steps    =   5

     energy   old            =     -34.1834746818 Ry
     energy   new            =     -34.1836059744 Ry

     CASE: energy  _new < energy  _old

     new trust radius        =       0.0112431250 bohr
     new conv_thr            =       0.0000000001 Ry


ATOMIC_POSITIONS (angstrom)
H       -0.791761551   0.130304607   0.460272275
H        0.085431544   0.583148637  -0.724102026
O        0.078384007  -0.034825244   0.037779751



     Writing output data file pwscf.save
     Check: negative starting charge=   -0.015980
     NEW-OLD atomic charge density approx. for the potential
     Check: negative starting charge=   -0.015990

     negative rho (up, down):  1.216E-03 0.000E+00

     total cpu time spent up to now is       15.0 secs

     per-process dynamical memory:    45.8 Mb

     Self-consistent Calculation

     iteration #  1     ecut=    90.00 Ry     beta=0.70
     Davidson diagonalization with overlap
     c_bands:  1 eigenvalues not converged
     ethr =  1.00E-06,  avg # of iterations = 20.0

     negative rho (up, down):  3.035E-04 0.000E+00

     total cpu time spent up to now is       15.3 secs

     total energy              =     -34.18364723 Ry
     Harris-Foulkes estimate   =     -34.18356154 Ry
     estimated scf accuracy    <       0.00001057 Ry

     iteration #  2     ecut=    90.00 Ry     beta=0.70
     Davidson diagonalization with overlap
     c_bands:  1 eigenvalues not converged
     ethr =  1.32E-07,  avg # of iterations = 20.0

     negative rho (up, down):  2.916E-05 0.000E+00

     total cpu time spent up to now is       15.6 secs

     total energy              =     -34.18365416 Ry
     Harris-Foulkes estimate   =     -34.18364924 Ry
     estimated scf accuracy    <       0.00000090 Ry

     iteration #  3     ecut=    90.00 Ry     beta=0.70
     Davidson diagonalization with overlap
     ethr =  1.13E-08,  avg # of iterations = 12.0

     negative rho (up, down):  4.570E-06 0.000E+00

     total cpu time spent up to now is       15.9 secs

     total energy              =     -34.18365485 Ry
     Harris-Foulkes estimate   =     -34.18365456 Ry
     estimated scf accuracy    <       0.00000041 Ry

     iteration #  4     ecut=    90.00 Ry     beta=0.70
     Davidson diagonalization with overlap
     ethr =  5.16E-09,  avg # of iterations =  2.0

     total cpu time spent up to now is       16.1 secs

     total energy              =     -34.18365529 Ry
     Harris-Foulkes estimate   =     -34.18365496 Ry
     estimated scf accuracy    <       0.00000001 Ry

     iteration #  5     ecut=    90.00 Ry     beta=0.70
     Davidson diagonalization with overlap
     ethr =  1.58E-10,  avg # of iterations =  2.0

     total cpu time spent up to now is       16.3 secs

     total energy              =     -34.18365534 Ry
     Harris-Foulkes estimate   =     -34.18365530 Ry
     estimated scf accuracy    <          2.3E-10 Ry

     iteration #  6     ecut=    90.00 Ry     beta=0.70
     Davidson diagonalization with overlap
     ethr =  2.82E-12,  avg # of iterations =  2.0

     total cpu time spent up to now is       16.4 secs

     End of self-consistent calculation

          k = 0.0000 0.0000 0.0000 (115313 PWs)   bands (ev):

   -25.0938 -12.7537  -9.1691  -7.0777  -0.9461   0.4260   0.7443   1.1246

     the Fermi energy is    -5.0899 ev

!    total energy              =     -34.18365535 Ry
     Harris-Foulkes estimate   =     -34.18365534 Ry
     estimated scf accuracy    <          1.0E-11 Ry

     The total energy is the sum of the following terms:

     one-electron contribution =     -63.65529940 Ry
     hartree contribution      =      33.24939601 Ry
     xc contribution           =      -8.35500880 Ry
     ewald contribution        =       4.57725684 Ry
     smearing contrib. (-TS)   =       0.00000000 Ry

     convergence has been achieved in   6 iterations

     Forces acting on atoms (Ry/au):

     atom    1 type  1   force =     0.00100782    0.00005535   -0.00048735
     atom    2 type  1   force =     0.00014169   -0.00001707    0.00017870
     atom    3 type  2   force =    -0.00114951   -0.00003827    0.00030866

     Total force =     0.001651     Total SCF correction =     0.000015

     number of scf cycles    =   7
     number of bfgs steps    =   6

     energy   old            =     -34.1836059744 Ry
     energy   new            =     -34.1836553545 Ry

     CASE: energy  _new < energy  _old

     new trust radius        =       0.0007406601 bohr
     new conv_thr            =            1.0E-10 Ry


ATOMIC_POSITIONS (angstrom)
H       -0.791484022   0.130467893   0.460048819
H        0.085400839   0.583132058  -0.723908352
O        0.078137183  -0.034971951   0.037809532



     Writing output data file pwscf.save
     Check: negative starting charge=   -0.015990
     NEW-OLD atomic charge density approx. for the potential
     Check: negative starting charge=   -0.015990

     negative rho (up, down):  4.675E-05 0.000E+00

     total cpu time spent up to now is       17.0 secs

     per-process dynamical memory:    45.8 Mb

     Self-consistent Calculation

     iteration #  1     ecut=    90.00 Ry     beta=0.70
     Davidson diagonalization with overlap
     ethr =  1.00E-06,  avg # of iterations =  2.0

     Threshold (ethr) on eigenvalues was too large:
     Diagonalizing with lowered threshold

     Davidson diagonalization with overlap
     ethr =  2.52E-09,  avg # of iterations =  2.0

     negative rho (up, down):  6.424E-06 0.000E+00

     total cpu time spent up to now is       17.3 secs

     total energy              =     -34.18365601 Ry
     Harris-Foulkes estimate   =     -34.18365623 Ry
     estimated scf accuracy    <       0.00000024 Ry

     iteration #  2     ecut=    90.00 Ry     beta=0.70
     Davidson diagonalization with overlap
     ethr =  3.05E-09,  avg # of iterations =  2.0

     negative rho (up, down):  2.385E-06 0.000E+00

     total cpu time spent up to now is       17.5 secs

     total energy              =     -34.18365615 Ry
     Harris-Foulkes estimate   =     -34.18365615 Ry
     estimated scf accuracy    <       0.00000018 Ry

     iteration #  3     ecut=    90.00 Ry     beta=0.70
     Davidson diagonalization with overlap
     ethr =  2.19E-09,  avg # of iterations =  2.0

     negative rho (up, down):  8.171E-08 0.000E+00

     total cpu time spent up to now is       17.7 secs

     total energy              =     -34.18365618 Ry
     Harris-Foulkes estimate   =     -34.18365619 Ry
     estimated scf accuracy    <          5.5E-09 Ry

     iteration #  4     ecut=    90.00 Ry     beta=0.70
     Davidson diagonalization with overlap
     ethr =  6.83E-11,  avg # of iterations =  2.0

     total cpu time spent up to now is       17.8 secs

     total energy              =     -34.18365616 Ry
     Harris-Foulkes estimate   =     -34.18365618 Ry
     estimated scf accuracy    <          1.2E-10 Ry

     iteration #  5     ecut=    90.00 Ry     beta=0.70
     Davidson diagonalization with overlap
     ethr =  1.50E-12,  avg # of iterations =  2.0

     total cpu time spent up to now is       18.0 secs

     End of self-consistent calculation

          k = 0.0000 0.0000 0.0000 (115313 PWs)   bands (ev):

   -25.0971 -12.7559  -9.1701  -7.0783  -0.9453   0.4262   0.7450   1.1245

     the Fermi energy is    -5.0908 ev

!    total energy              =     -34.18365615 Ry
     Harris-Foulkes estimate   =     -34.18365616 Ry
     estimated scf accuracy    <          6.5E-12 Ry

     The total energy is the sum of the following terms:

     one-electron contribution =     -63.66186257 Ry
     hartree contribution      =      33.25250802 Ry
     xc contribution           =      -8.35551811 Ry
     ewald contribution        =       4.58121651 Ry
     smearing contrib. (-TS)   =       0.00000000 Ry

     convergence has been achieved in   5 iterations

     Forces acting on atoms (Ry/au):

     atom    1 type  1   force =     0.00012392    0.00016625   -0.00001313
     atom    2 type  1   force =     0.00019195   -0.00000007    0.00009687
     atom    3 type  2   force =    -0.00031587   -0.00016618   -0.00008375

     Total force =     0.000473     Total SCF correction =     0.000050
     SCF correction compared to forces is large: reduce conv_thr to get better values

     bfgs converged in   8 scf cycles and   7 bfgs steps
     (criteria: energy <  1.0E-04, force <  1.0E-03)

     End of BFGS Geometry Optimization

     Final energy   =     -34.1836561455 Ry
Begin final coordinates

ATOMIC_POSITIONS (angstrom)
H       -0.791484022   0.130467893   0.460048819
H        0.085400839   0.583132058  -0.723908352
O        0.078137183  -0.034971951   0.037809532
End final coordinates



     Writing output data file pwscf.save
 
     init_run     :      0.51s CPU      0.54s WALL (       1 calls)
     electrons    :     12.35s CPU     14.37s WALL (       8 calls)
     update_pot   :      1.79s CPU      2.08s WALL (       7 calls)
     forces       :      0.53s CPU      0.54s WALL (       8 calls)

     Called by init_run:
     wfcinit      :      0.02s CPU      0.03s WALL (       1 calls)
     potinit      :      0.11s CPU      0.11s WALL (       1 calls)

     Called by electrons:
     c_bands      :      6.29s CPU      6.37s WALL (      51 calls)
     sum_band     :      1.05s CPU      1.08s WALL (      51 calls)
     v_of_rho     :      3.08s CPU      3.31s WALL (      58 calls)
     mix_rho      :      1.27s CPU      2.14s WALL (      51 calls)

     Called by c_bands:
     init_us_2    :      0.03s CPU      0.03s WALL (     103 calls)
     cegterg      :      6.26s CPU      6.32s WALL (      51 calls)

     Called by sum_band:

     Called by *egterg:
     h_psi        :      5.13s CPU      5.17s WALL (     472 calls)
     g_psi        :      0.05s CPU      0.05s WALL (     420 calls)
     cdiaghg      :      0.15s CPU      0.15s WALL (     463 calls)

     Called by h_psi:
     h_psi:pot    :      5.08s CPU      5.12s WALL (     472 calls)
     h_psi:calbec :      0.07s CPU      0.07s WALL (     472 calls)
     vloc_psi     :      4.97s CPU      5.01s WALL (     472 calls)
     add_vuspsi   :      0.03s CPU      0.04s WALL (     472 calls)

     General routines
     calbec       :      0.07s CPU      0.07s WALL (     504 calls)
     fft          :      2.22s CPU      2.47s WALL (     655 calls)
     fftw         :      4.88s CPU      4.93s WALL (    3840 calls)
     davcio       :      0.13s CPU      0.83s WALL (     345 calls)
 
     Parallel routines
     fft_scatter  :      2.56s CPU      2.82s WALL (    4495 calls)
 
     PWSCF        :    15.68s CPU        18.43s WALL

 
   This run was terminated on:   2:42:24  28Jul2018            

=------------------------------------------------------------------------------=
   JOB DONE.
=------------------------------------------------------------------------------=
