
     Program PWSCF v.6.0 (svn rev. 13079) starts on 28Jul2018 at  2:30:21 

     This program is part of the open-source Quantum ESPRESSO suite
     for quantum simulation of materials; please cite
         "P. Giannozzi et al., J. Phys.:Condens. Matter 21 395502 (2009);
          URL http://www.quantum-espresso.org", 
     in publications or presentations arising from this work. More details at
     http://www.quantum-espresso.org/quote

     Parallel version (MPI), running on    28 processors
     R & G space division:  proc/nbgrp/npool/nimage =      28
     Reading input from ../QMCmins/relax-45.in

     Current dimensions of program PWSCF are:
     Max number of different atomic species (ntypx) = 10
     Max number of k-points (npk) =  40000
     Max angular momentum in pseudopotentials (lmaxx) =  3
     Message from routine iosys:
     pot_extrapolation='second-order' not available, using 'atomic'
     Message from routine iosys:
     wfc_extrapolation='second-order' not available, using 'atomic'

     Subspace diagonalization in iterative solution of the eigenvalue problem:
     a serial algorithm will be used

 
     Parallelization info
     --------------------
     sticks:   dense  smooth     PW     G-vecs:    dense   smooth      PW
     Min         408     408    102                32936    32936    4116
     Max         409     409    103                32943    32943    4121
     Sum       11449   11449   2869               922329   922329  115313
 


     bravais-lattice index     =            1
     lattice parameter (alat)  =      20.0000  a.u.
     unit-cell volume          =    8000.0000 (a.u.)^3
     number of atoms/cell      =            3
     number of atomic types    =            2
     number of electrons       =         8.00
     number of Kohn-Sham states=            8
     kinetic-energy cutoff     =      90.0000  Ry
     charge density cutoff     =     360.0000  Ry
     convergence threshold     =      1.0E-08
     mixing beta               =       0.7000
     number of iterations used =            8  plain     mixing
     Exchange-correlation      = BLYP ( 1  3  1  3 0 0)
     nstep                     =           50


     celldm(1)=  20.000000  celldm(2)=   0.000000  celldm(3)=   0.000000
     celldm(4)=   0.000000  celldm(5)=   0.000000  celldm(6)=   0.000000

     crystal axes: (cart. coord. in units of alat)
               a(1) = (   1.000000   0.000000   0.000000 )  
               a(2) = (   0.000000   1.000000   0.000000 )  
               a(3) = (   0.000000   0.000000   1.000000 )  

     reciprocal axes: (cart. coord. in units 2 pi/alat)
               b(1) = (  1.000000  0.000000  0.000000 )  
               b(2) = (  0.000000  1.000000  0.000000 )  
               b(3) = (  0.000000  0.000000  1.000000 )  


     PseudoPot. # 1 for  H read from file:
     ../H.blyp-hgh.UPF
     MD5 check sum: c576e69559cde411e611be972c763230
     Pseudo is Norm-conserving, Zval =  1.0
     Generated in analytical, separable form
     Using radial grid of  929 points,  0 beta functions with: 

     PseudoPot. # 2 for  O read from file:
     ../O.blyp-hgh.UPF
     MD5 check sum: d0b7156309aa9befef28faac7bc56342
     Pseudo is Norm-conserving, Zval =  6.0
     Generated in analytical, separable form
     Using radial grid of 1095 points,  1 beta functions with: 
                l(1) =   0

     atomic species   valence    mass     pseudopotential
        H              1.00     1.01000      H( 1.00)
        O              6.00    16.00000      O( 1.00)

     No symmetry found



   Cartesian axes

     site n.     atom                  positions (alat units)
         1           H   tau(   1) = (   0.0638592  -0.0512232  -0.0433654  )
         2           H   tau(   2) = (  -0.0542909   0.0344808  -0.0478748  )
         3           O   tau(   3) = (  -0.0006040   0.0010568   0.0113375  )

     number of k points=     1  Marzari-Vanderbilt smearing, width (Ry)=  0.0250
                       cart. coord. in units 2pi/alat
        k(    1) = (   0.0000000   0.0000000   0.0000000), wk =   2.0000000

     Dense  grid:   922329 G-vectors     FFT dimensions: ( 125, 125, 125)

     Estimated max dynamical RAM per process >      31.67Mb

     Estimated total allocated dynamical RAM >     886.64Mb

     Initial potential from superposition of free atoms
     Check: negative starting charge=   -0.015970

     starting charge    7.99998, renormalised to    8.00000

     negative rho (up, down):  1.597E-02 0.000E+00
     Starting wfc are    6 randomized atomic wfcs +    2 random wfc

     total cpu time spent up to now is        0.7 secs

     per-process dynamical memory:    33.5 Mb

     Self-consistent Calculation

     iteration #  1     ecut=    90.00 Ry     beta=0.70
     Davidson diagonalization with overlap
     ethr =  1.00E-02,  avg # of iterations =  8.0

     negative rho (up, down):  4.658E-03 0.000E+00

     total cpu time spent up to now is        1.0 secs

     total energy              =     -34.01739045 Ry
     Harris-Foulkes estimate   =     -34.25854074 Ry
     estimated scf accuracy    <       0.36227492 Ry

     iteration #  2     ecut=    90.00 Ry     beta=0.70
     Davidson diagonalization with overlap
     ethr =  4.53E-03,  avg # of iterations =  2.0

     negative rho (up, down):  2.873E-03 0.000E+00

     total cpu time spent up to now is        1.2 secs

     total energy              =     -34.07321729 Ry
     Harris-Foulkes estimate   =     -34.26405245 Ry
     estimated scf accuracy    <       0.41311963 Ry

     iteration #  3     ecut=    90.00 Ry     beta=0.70
     Davidson diagonalization with overlap
     ethr =  4.53E-03,  avg # of iterations =  2.0

     negative rho (up, down):  1.709E-04 0.000E+00

     total cpu time spent up to now is        1.4 secs

     total energy              =     -34.16543570 Ry
     Harris-Foulkes estimate   =     -34.16637413 Ry
     estimated scf accuracy    <       0.00617873 Ry

     iteration #  4     ecut=    90.00 Ry     beta=0.70
     Davidson diagonalization with overlap
     ethr =  7.72E-05,  avg # of iterations =  6.0

     negative rho (up, down):  4.132E-06 0.000E+00

     total cpu time spent up to now is        1.6 secs

     total energy              =     -34.16718657 Ry
     Harris-Foulkes estimate   =     -34.16732790 Ry
     estimated scf accuracy    <       0.00037136 Ry

     iteration #  5     ecut=    90.00 Ry     beta=0.70
     Davidson diagonalization with overlap
     ethr =  4.64E-06,  avg # of iterations =  4.0

     negative rho (up, down):  8.345E-08 0.000E+00

     total cpu time spent up to now is        1.8 secs

     total energy              =     -34.16720672 Ry
     Harris-Foulkes estimate   =     -34.16721564 Ry
     estimated scf accuracy    <       0.00003009 Ry

     iteration #  6     ecut=    90.00 Ry     beta=0.70
     Davidson diagonalization with overlap
     ethr =  3.76E-07,  avg # of iterations =  2.0

     negative rho (up, down):  2.993E-07 0.000E+00

     total cpu time spent up to now is        2.1 secs

     total energy              =     -34.16721067 Ry
     Harris-Foulkes estimate   =     -34.16721048 Ry
     estimated scf accuracy    <       0.00000117 Ry

     iteration #  7     ecut=    90.00 Ry     beta=0.70
     Davidson diagonalization with overlap
     ethr =  1.46E-08,  avg # of iterations =  3.0

     total cpu time spent up to now is        2.3 secs

     total energy              =     -34.16721066 Ry
     Harris-Foulkes estimate   =     -34.16721085 Ry
     estimated scf accuracy    <       0.00000003 Ry

     iteration #  8     ecut=    90.00 Ry     beta=0.70
     Davidson diagonalization with overlap
     ethr =  3.50E-10,  avg # of iterations =  2.0

     total cpu time spent up to now is        2.5 secs

     total energy              =     -34.16721048 Ry
     Harris-Foulkes estimate   =     -34.16721066 Ry
     estimated scf accuracy    <       0.00000001 Ry

     iteration #  9     ecut=    90.00 Ry     beta=0.70
     Davidson diagonalization with overlap
     ethr =  1.80E-10,  avg # of iterations =  2.0

     total cpu time spent up to now is        2.6 secs

     End of self-consistent calculation

          k = 0.0000 0.0000 0.0000 (115313 PWs)   bands (ev):

   -25.1613 -12.7002  -9.1774  -7.0799  -1.0121   0.3798   0.7607   1.1484

     the Fermi energy is    -5.0889 ev

!    total energy              =     -34.16721044 Ry
     Harris-Foulkes estimate   =     -34.16721049 Ry
     estimated scf accuracy    <          4.9E-10 Ry

     The total energy is the sum of the following terms:

     one-electron contribution =     -63.64906835 Ry
     hartree contribution      =      33.24587590 Ry
     xc contribution           =      -8.35720836 Ry
     ewald contribution        =       4.59319038 Ry
     smearing contrib. (-TS)   =       0.00000000 Ry

     convergence has been achieved in   9 iterations

     Forces acting on atoms (Ry/au):

     atom    1 type  1   force =    -0.06930346    0.05625070    0.05920641
     atom    2 type  1   force =    -0.09335706    0.05811388   -0.10318506
     atom    3 type  2   force =     0.16266052   -0.11436458    0.04397864

     Total force =     0.275108     Total SCF correction =     0.000048

     BFGS Geometry Optimization

     number of scf cycles    =   1
     number of bfgs steps    =   0

     energy   new            =     -34.1672104429 Ry

     new trust radius        =       0.2036463214 bohr
     new conv_thr            =       0.0000000100 Ry


ATOMIC_POSITIONS (angstrom)
H        0.639183189  -0.512356412  -0.427629315
H       -0.623992430   0.395681541  -0.561288181
O        0.079684242  -0.049334129   0.143263496



     Writing output data file pwscf.save
     Check: negative starting charge=   -0.015970
     NEW-OLD atomic charge density approx. for the potential
     Check: negative starting charge=   -0.015941

     negative rho (up, down):  2.831E-02 0.000E+00

     total cpu time spent up to now is        3.2 secs

     per-process dynamical memory:    45.8 Mb

     Self-consistent Calculation

     iteration #  1     ecut=    90.00 Ry     beta=0.70
     Davidson diagonalization with overlap
     c_bands:  2 eigenvalues not converged
     ethr =  1.00E-06,  avg # of iterations = 20.0

     negative rho (up, down):  7.383E-03 0.000E+00

     total cpu time spent up to now is        3.7 secs

     total energy              =     -34.14269886 Ry
     Harris-Foulkes estimate   =     -34.15777259 Ry
     estimated scf accuracy    <       0.01460731 Ry

     iteration #  2     ecut=    90.00 Ry     beta=0.70
     Davidson diagonalization with overlap
     ethr =  1.83E-04,  avg # of iterations =  4.0

     negative rho (up, down):  2.868E-03 0.000E+00

     total cpu time spent up to now is        3.9 secs

     total energy              =     -34.15331651 Ry
     Harris-Foulkes estimate   =     -34.14747611 Ry
     estimated scf accuracy    <       0.00166188 Ry

     iteration #  3     ecut=    90.00 Ry     beta=0.70
     Davidson diagonalization with overlap
     ethr =  2.08E-05,  avg # of iterations = 12.0

     negative rho (up, down):  1.208E-03 0.000E+00

     total cpu time spent up to now is        4.2 secs

     total energy              =     -34.15547427 Ry
     Harris-Foulkes estimate   =     -34.15390071 Ry
     estimated scf accuracy    <       0.00041952 Ry

     iteration #  4     ecut=    90.00 Ry     beta=0.70
     Davidson diagonalization with overlap
     ethr =  5.24E-06,  avg # of iterations = 18.0

     negative rho (up, down):  3.624E-05 0.000E+00

     total cpu time spent up to now is        4.5 secs

     total energy              =     -34.15569934 Ry
     Harris-Foulkes estimate   =     -34.15560899 Ry
     estimated scf accuracy    <       0.00006162 Ry

     iteration #  5     ecut=    90.00 Ry     beta=0.70
     Davidson diagonalization with overlap
     ethr =  7.70E-07,  avg # of iterations =  6.0

     negative rho (up, down):  9.223E-08 0.000E+00

     total cpu time spent up to now is        5.0 secs

     total energy              =     -34.15978995 Ry
     Harris-Foulkes estimate   =     -34.15979015 Ry
     estimated scf accuracy    <       0.00000038 Ry

     iteration #  6     ecut=    90.00 Ry     beta=0.70
     Davidson diagonalization with overlap
     ethr =  4.70E-09,  avg # of iterations =  2.0

     total cpu time spent up to now is        5.2 secs

     total energy              =     -34.15979007 Ry
     Harris-Foulkes estimate   =     -34.15979012 Ry
     estimated scf accuracy    <       0.00000002 Ry

     iteration #  7     ecut=    90.00 Ry     beta=0.70
     Davidson diagonalization with overlap
     ethr =  2.60E-10,  avg # of iterations =  2.0

     total cpu time spent up to now is        5.3 secs

     End of self-consistent calculation

          k = 0.0000 0.0000 0.0000 (115313 PWs)   bands (ev):

   -24.9980 -12.4108  -9.2363  -7.0500  -1.1278   0.3289   0.7275   1.1411

     the Fermi energy is    -5.0536 ev

!    total energy              =     -34.15979008 Ry
     Harris-Foulkes estimate   =     -34.15979007 Ry
     estimated scf accuracy    <          1.2E-09 Ry

     The total energy is the sum of the following terms:

     one-electron contribution =     -63.17851073 Ry
     hartree contribution      =      33.01826403 Ry
     xc contribution           =      -8.32158388 Ry
     ewald contribution        =       4.32204050 Ry
     smearing contrib. (-TS)   =       0.00000000 Ry

     convergence has been achieved in   7 iterations

     Forces acting on atoms (Ry/au):

     atom    1 type  1   force =     0.08352948   -0.06858296   -0.08028630
     atom    2 type  1   force =     0.09060353   -0.05683573    0.09418177
     atom    3 type  2   force =    -0.17413300    0.12541868   -0.01389547

     Total force =     0.291001     Total SCF correction =     0.000062

     number of scf cycles    =   2
     number of bfgs steps    =   1

     energy   old            =     -34.1672104429 Ry
     energy   new            =     -34.1597900836 Ry

     CASE: energy  _new > energy  _old

     new trust radius        =       0.0927314340 bohr
     new conv_thr            =       0.0000000100 Ry


ATOMIC_POSITIONS (angstrom)
H        0.659157385  -0.528568626  -0.444693406
H       -0.597085659   0.378932333  -0.531548848
O        0.032803274  -0.016372707   0.130588255



     Writing output data file pwscf.save
     Check: negative starting charge=   -0.015941
     NEW-OLD atomic charge density approx. for the potential
     Check: negative starting charge=   -0.015974

     negative rho (up, down):  1.954E-02 0.000E+00

     total cpu time spent up to now is        5.9 secs

     per-process dynamical memory:    45.8 Mb

     Self-consistent Calculation

     iteration #  1     ecut=    90.00 Ry     beta=0.70
     Davidson diagonalization with overlap
     c_bands:  1 eigenvalues not converged
     ethr =  1.00E-06,  avg # of iterations = 20.0

     negative rho (up, down):  5.201E-03 0.000E+00

     total cpu time spent up to now is        6.4 secs

     total energy              =     -33.82248129 Ry
     Harris-Foulkes estimate   =     -34.45970096 Ry
     estimated scf accuracy    <       0.06503133 Ry

     iteration #  2     ecut=    90.00 Ry     beta=0.70
     Davidson diagonalization with overlap
     ethr =  8.13E-04,  avg # of iterations =  3.0

     negative rho (up, down):  3.741E-03 0.000E+00

     total cpu time spent up to now is        6.6 secs

     total energy              =     -34.15434434 Ry
     Harris-Foulkes estimate   =     -34.23044382 Ry
     estimated scf accuracy    <       0.22924775 Ry

     iteration #  3     ecut=    90.00 Ry     beta=0.70
     Davidson diagonalization with overlap
     ethr =  8.13E-04,  avg # of iterations =  2.0

     negative rho (up, down):  2.394E-03 0.000E+00

     total cpu time spent up to now is        6.8 secs

     total energy              =     -34.17820270 Ry
     Harris-Foulkes estimate   =     -34.17829809 Ry
     estimated scf accuracy    <       0.01770367 Ry

     iteration #  4     ecut=    90.00 Ry     beta=0.70
     Davidson diagonalization with overlap
     ethr =  2.21E-04,  avg # of iterations =  3.0

     negative rho (up, down):  6.249E-04 0.000E+00

     total cpu time spent up to now is        7.0 secs

     total energy              =     -34.17780511 Ry
     Harris-Foulkes estimate   =     -34.17854230 Ry
     estimated scf accuracy    <       0.00847262 Ry

     iteration #  5     ecut=    90.00 Ry     beta=0.70
     Davidson diagonalization with overlap
     ethr =  1.06E-04,  avg # of iterations =  4.0

     negative rho (up, down):  1.717E-04 0.000E+00

     total cpu time spent up to now is        7.2 secs

     total energy              =     -34.18302747 Ry
     Harris-Foulkes estimate   =     -34.18295159 Ry
     estimated scf accuracy    <       0.00023069 Ry

     iteration #  6     ecut=    90.00 Ry     beta=0.70
     Davidson diagonalization with overlap
     ethr =  2.88E-06,  avg # of iterations = 20.0

     negative rho (up, down):  1.488E-06 0.000E+00

     total cpu time spent up to now is        7.5 secs

     total energy              =     -34.18304102 Ry
     Harris-Foulkes estimate   =     -34.18305708 Ry
     estimated scf accuracy    <       0.00006034 Ry

     iteration #  7     ecut=    90.00 Ry     beta=0.70
     Davidson diagonalization with overlap
     ethr =  7.54E-07,  avg # of iterations =  3.0

     negative rho (up, down):  2.055E-07 0.000E+00

     total cpu time spent up to now is        7.8 secs

     total energy              =     -34.18305427 Ry
     Harris-Foulkes estimate   =     -34.18305538 Ry
     estimated scf accuracy    <       0.00000278 Ry

     iteration #  8     ecut=    90.00 Ry     beta=0.70
     Davidson diagonalization with overlap
     ethr =  3.47E-08,  avg # of iterations =  2.0

     negative rho (up, down):  1.972E-08 0.000E+00

     total cpu time spent up to now is        8.0 secs

     total energy              =     -34.18305469 Ry
     Harris-Foulkes estimate   =     -34.18305500 Ry
     estimated scf accuracy    <       0.00000011 Ry

     iteration #  9     ecut=    90.00 Ry     beta=0.70
     Davidson diagonalization with overlap
     ethr =  1.32E-09,  avg # of iterations =  2.0

     total cpu time spent up to now is        8.1 secs

     End of self-consistent calculation

          k = 0.0000 0.0000 0.0000 (115313 PWs)   bands (ev):

   -24.9710 -12.5912  -9.1954  -7.0578  -0.9884   0.4129   0.7243   1.1463

     the Fermi energy is    -5.0429 ev

!    total energy              =     -34.18305462 Ry
     Harris-Foulkes estimate   =     -34.18305471 Ry
     estimated scf accuracy    <          9.4E-09 Ry

     The total energy is the sum of the following terms:

     one-electron contribution =     -63.36147245 Ry
     hartree contribution      =      33.10762646 Ry
     xc contribution           =      -8.33194922 Ry
     ewald contribution        =       4.40274058 Ry
     smearing contrib. (-TS)   =       0.00000000 Ry

     convergence has been achieved in   9 iterations

     Forces acting on atoms (Ry/au):

     atom    1 type  1   force =    -0.01255663    0.01060276    0.01283657
     atom    2 type  1   force =     0.01554620   -0.00938179    0.01796872
     atom    3 type  2   force =    -0.00298957   -0.00122098   -0.03080529

     Total force =     0.045242     Total SCF correction =     0.000094

     number of scf cycles    =   3
     number of bfgs steps    =   1

     energy   old            =     -34.1672104429 Ry
     energy   new            =     -34.1830546238 Ry

     CASE: energy  _new < energy  _old

     new trust radius        =       0.0286029316 bohr
     new conv_thr            =       0.0000000031 Ry


ATOMIC_POSITIONS (angstrom)
H        0.651106553  -0.521825728  -0.436746282
H       -0.591476143   0.375590291  -0.524950415
O        0.035244590  -0.019773563   0.116042697



     Writing output data file pwscf.save
     Check: negative starting charge=   -0.015974
     NEW-OLD atomic charge density approx. for the potential
     Check: negative starting charge=   -0.015965

     negative rho (up, down):  4.958E-03 0.000E+00

     total cpu time spent up to now is        8.7 secs

     per-process dynamical memory:    45.8 Mb

     Self-consistent Calculation

     iteration #  1     ecut=    90.00 Ry     beta=0.70
     Davidson diagonalization with overlap
     ethr =  1.00E-06,  avg # of iterations = 20.0

     negative rho (up, down):  1.291E-03 0.000E+00

     total cpu time spent up to now is        9.1 secs

     total energy              =     -34.17862317 Ry
     Harris-Foulkes estimate   =     -34.17471332 Ry
     estimated scf accuracy    <       0.00106969 Ry

     iteration #  2     ecut=    90.00 Ry     beta=0.70
     Davidson diagonalization with overlap
     ethr =  1.34E-05,  avg # of iterations = 12.0

     negative rho (up, down):  8.030E-04 0.000E+00

     total cpu time spent up to now is        9.4 secs

     total energy              =     -34.17901367 Ry
     Harris-Foulkes estimate   =     -34.17941138 Ry
     estimated scf accuracy    <       0.00114510 Ry

     iteration #  3     ecut=    90.00 Ry     beta=0.70
     Davidson diagonalization with overlap
     ethr =  1.34E-05,  avg # of iterations =  3.0

     negative rho (up, down):  1.501E-04 0.000E+00

     total cpu time spent up to now is        9.6 secs

     total energy              =     -34.18335348 Ry
     Harris-Foulkes estimate   =     -34.18332483 Ry
     estimated scf accuracy    <       0.00000550 Ry

     iteration #  4     ecut=    90.00 Ry     beta=0.70
     Davidson diagonalization with overlap
     ethr =  6.87E-08,  avg # of iterations =  5.0

     negative rho (up, down):  1.291E-05 0.000E+00

     total cpu time spent up to now is        9.9 secs

     total energy              =     -34.18335492 Ry
     Harris-Foulkes estimate   =     -34.18335696 Ry
     estimated scf accuracy    <       0.00000020 Ry

     iteration #  5     ecut=    90.00 Ry     beta=0.70
     Davidson diagonalization with overlap
     ethr =  2.54E-09,  avg # of iterations =  3.0

     total cpu time spent up to now is       10.3 secs

     total energy              =     -34.18335441 Ry
     Harris-Foulkes estimate   =     -34.18335502 Ry
     estimated scf accuracy    <          9.0E-09 Ry

     iteration #  6     ecut=    90.00 Ry     beta=0.70
     Davidson diagonalization with overlap
     ethr =  1.13E-10,  avg # of iterations =  2.0

     total cpu time spent up to now is       10.4 secs

     End of self-consistent calculation

          k = 0.0000 0.0000 0.0000 (115313 PWs)   bands (ev):

   -25.1656 -12.8429  -9.1575  -7.0897  -0.9250   0.4329   0.7676   1.1512

     the Fermi energy is    -5.0878 ev

!    total energy              =     -34.18335435 Ry
     Harris-Foulkes estimate   =     -34.18335441 Ry
     estimated scf accuracy    <          3.1E-10 Ry

     The total energy is the sum of the following terms:

     one-electron contribution =     -63.82159612 Ry
     hartree contribution      =      33.32927518 Ry
     xc contribution           =      -8.36815012 Ry
     ewald contribution        =       4.67711671 Ry
     smearing contrib. (-TS)   =       0.00000000 Ry

     convergence has been achieved in   6 iterations

     Forces acting on atoms (Ry/au):

     atom    1 type  1   force =     0.01567221   -0.01253448   -0.01518889
     atom    2 type  1   force =    -0.00056763    0.00058821   -0.00165673
     atom    3 type  2   force =    -0.01510458    0.01194627    0.01684562

     Total force =     0.035937     Total SCF correction =     0.000113

     number of scf cycles    =   4
     number of bfgs steps    =   2

     energy   old            =     -34.1830546238 Ry
     energy   new            =     -34.1833543545 Ry

     CASE: energy  _new < energy  _old

     new trust radius        =       0.0128681767 bohr
     new conv_thr            =       0.0000000003 Ry


ATOMIC_POSITIONS (angstrom)
H        0.655259651  -0.525132965  -0.440824863
H       -0.592172523   0.376101026  -0.526029411
O        0.031787872  -0.016977061   0.121200274



     Writing output data file pwscf.save
     Check: negative starting charge=   -0.015965
     NEW-OLD atomic charge density approx. for the potential
     Check: negative starting charge=   -0.015972

     negative rho (up, down):  2.106E-03 0.000E+00

     total cpu time spent up to now is       11.0 secs

     per-process dynamical memory:    45.8 Mb

     Self-consistent Calculation

     iteration #  1     ecut=    90.00 Ry     beta=0.70
     Davidson diagonalization with overlap
     ethr =  1.00E-06,  avg # of iterations = 14.0

     negative rho (up, down):  5.384E-04 0.000E+00

     total cpu time spent up to now is       11.4 secs

     total energy              =     -34.17951261 Ry
     Harris-Foulkes estimate   =     -34.17885551 Ry
     estimated scf accuracy    <       0.00016010 Ry

     iteration #  2     ecut=    90.00 Ry     beta=0.70
     Davidson diagonalization with overlap
     ethr =  2.00E-06,  avg # of iterations = 15.0

     negative rho (up, down):  3.218E-04 0.000E+00

     total cpu time spent up to now is       11.7 secs

     total energy              =     -34.18362698 Ry
     Harris-Foulkes estimate   =     -34.18369682 Ry
     estimated scf accuracy    <       0.00014507 Ry

     iteration #  3     ecut=    90.00 Ry     beta=0.70
     Davidson diagonalization with overlap
     ethr =  1.81E-06,  avg # of iterations =  2.0

     negative rho (up, down):  6.321E-05 0.000E+00

     total cpu time spent up to now is       11.8 secs

     total energy              =     -34.18366263 Ry
     Harris-Foulkes estimate   =     -34.18365930 Ry
     estimated scf accuracy    <       0.00000189 Ry

     iteration #  4     ecut=    90.00 Ry     beta=0.70
     Davidson diagonalization with overlap
     ethr =  2.36E-08,  avg # of iterations =  3.0

     negative rho (up, down):  3.673E-06 0.000E+00

     total cpu time spent up to now is       12.0 secs

     total energy              =     -34.18366466 Ry
     Harris-Foulkes estimate   =     -34.18366333 Ry
     estimated scf accuracy    <       0.00000005 Ry

     iteration #  5     ecut=    90.00 Ry     beta=0.70
     Davidson diagonalization with overlap
     ethr =  6.19E-10,  avg # of iterations =  2.0

     total cpu time spent up to now is       12.2 secs

     total energy              =     -34.18366491 Ry
     Harris-Foulkes estimate   =     -34.18366469 Ry
     estimated scf accuracy    <          2.3E-09 Ry

     iteration #  6     ecut=    90.00 Ry     beta=0.70
     Davidson diagonalization with overlap
     ethr =  2.83E-11,  avg # of iterations =  2.0

     total cpu time spent up to now is       12.4 secs

     End of self-consistent calculation

          k = 0.0000 0.0000 0.0000 (115313 PWs)   bands (ev):

   -25.0943 -12.7504  -9.1719  -7.0781  -0.9470   0.4259   0.7527   1.1494

     the Fermi energy is    -5.0714 ev

!    total energy              =     -34.18366498 Ry
     Harris-Foulkes estimate   =     -34.18366491 Ry
     estimated scf accuracy    <          1.2E-10 Ry

     The total energy is the sum of the following terms:

     one-electron contribution =     -63.65406547 Ry
     hartree contribution      =      33.24872724 Ry
     xc contribution           =      -8.35493488 Ry
     ewald contribution        =       4.57660813 Ry
     smearing contrib. (-TS)   =       0.00000000 Ry

     convergence has been achieved in   6 iterations

     Forces acting on atoms (Ry/au):

     atom    1 type  1   force =    -0.00054037    0.00064947    0.00024811
     atom    2 type  1   force =     0.00015011    0.00013853    0.00024607
     atom    3 type  2   force =     0.00039026   -0.00078800   -0.00049418

     Total force =     0.001377     Total SCF correction =     0.000102

     number of scf cycles    =   5
     number of bfgs steps    =   3

     energy   old            =     -34.1833543545 Ry
     energy   new            =     -34.1836649759 Ry

     CASE: energy  _new < energy  _old

     new trust radius        =       0.0005938521 bohr
     new conv_thr            =            1.0E-10 Ry


ATOMIC_POSITIONS (angstrom)
H        0.655123176  -0.524913058  -0.440831902
H       -0.592083064   0.376165682  -0.525897599
O        0.031834888  -0.017261624   0.121075501



     Writing output data file pwscf.save
     Check: negative starting charge=   -0.015972
     NEW-OLD atomic charge density approx. for the potential
     Check: negative starting charge=   -0.015972

     negative rho (up, down):  5.231E-05 0.000E+00

     total cpu time spent up to now is       13.0 secs

     per-process dynamical memory:    45.8 Mb

     Self-consistent Calculation

     iteration #  1     ecut=    90.00 Ry     beta=0.70
     Davidson diagonalization with overlap
     ethr =  1.00E-06,  avg # of iterations =  2.0

     Threshold (ethr) on eigenvalues was too large:
     Diagonalizing with lowered threshold

     Davidson diagonalization with overlap
     ethr =  2.17E-09,  avg # of iterations =  2.0

     negative rho (up, down):  7.472E-06 0.000E+00

     total cpu time spent up to now is       13.3 secs

     total energy              =     -34.18366522 Ry
     Harris-Foulkes estimate   =     -34.18366506 Ry
     estimated scf accuracy    <       0.00000020 Ry

     iteration #  2     ecut=    90.00 Ry     beta=0.70
     Davidson diagonalization with overlap
     ethr =  2.55E-09,  avg # of iterations =  3.0

     negative rho (up, down):  2.854E-06 0.000E+00

     total cpu time spent up to now is       13.5 secs

     total energy              =     -34.18366544 Ry
     Harris-Foulkes estimate   =     -34.18366535 Ry
     estimated scf accuracy    <       0.00000015 Ry

     iteration #  3     ecut=    90.00 Ry     beta=0.70
     Davidson diagonalization with overlap
     ethr =  1.89E-09,  avg # of iterations =  2.0

     negative rho (up, down):  1.035E-07 0.000E+00

     total cpu time spent up to now is       13.7 secs

     total energy              =     -34.18366557 Ry
     Harris-Foulkes estimate   =     -34.18366548 Ry
     estimated scf accuracy    <          4.4E-09 Ry

     iteration #  4     ecut=    90.00 Ry     beta=0.70
     Davidson diagonalization with overlap
     ethr =  5.56E-11,  avg # of iterations =  2.0

     total cpu time spent up to now is       13.9 secs

     total energy              =     -34.18366562 Ry
     Harris-Foulkes estimate   =     -34.18366557 Ry
     estimated scf accuracy    <          1.1E-10 Ry

     iteration #  5     ecut=    90.00 Ry     beta=0.70
     Davidson diagonalization with overlap
     ethr =  1.40E-12,  avg # of iterations =  2.0

     total cpu time spent up to now is       14.1 secs

     End of self-consistent calculation

          k = 0.0000 0.0000 0.0000 (115313 PWs)   bands (ev):

   -25.0968 -12.7532  -9.1717  -7.0785  -0.9463   0.4260   0.7531   1.1493

     the Fermi energy is    -5.0721 ev

!    total energy              =     -34.18366563 Ry
     Harris-Foulkes estimate   =     -34.18366562 Ry
     estimated scf accuracy    <          5.8E-12 Ry

     The total energy is the sum of the following terms:

     one-electron contribution =     -63.65973948 Ry
     hartree contribution      =      33.25141844 Ry
     xc contribution           =      -8.35537434 Ry
     ewald contribution        =       4.58002976 Ry
     smearing contrib. (-TS)   =       0.00000000 Ry

     convergence has been achieved in   5 iterations

     Forces acting on atoms (Ry/au):

     atom    1 type  1   force =     0.00001196    0.00018757   -0.00026605
     atom    2 type  1   force =     0.00011555    0.00014441    0.00015240
     atom    3 type  2   force =    -0.00012751   -0.00033198    0.00011365

     Total force =     0.000550     Total SCF correction =     0.000048

     bfgs converged in   6 scf cycles and   4 bfgs steps
     (criteria: energy <  1.0E-04, force <  1.0E-03)

     End of BFGS Geometry Optimization

     Final energy   =     -34.1836656312 Ry
Begin final coordinates

ATOMIC_POSITIONS (angstrom)
H        0.655123176  -0.524913058  -0.440831902
H       -0.592083064   0.376165682  -0.525897599
O        0.031834888  -0.017261624   0.121075501
End final coordinates



     Writing output data file pwscf.save
 
     init_run     :      0.51s CPU      0.55s WALL (       1 calls)
     electrons    :      9.59s CPU     11.37s WALL (       6 calls)
     update_pot   :      1.24s CPU      1.48s WALL (       5 calls)
     forces       :      0.40s CPU      0.40s WALL (       6 calls)

     Called by init_run:
     wfcinit      :      0.03s CPU      0.04s WALL (       1 calls)
     potinit      :      0.11s CPU      0.11s WALL (       1 calls)

     Called by electrons:
     c_bands      :      4.62s CPU      4.91s WALL (      43 calls)
     sum_band     :      0.89s CPU      0.91s WALL (      43 calls)
     v_of_rho     :      2.43s CPU      2.48s WALL (      48 calls)
     mix_rho      :      1.08s CPU      1.97s WALL (      43 calls)

     Called by c_bands:
     init_us_2    :      0.02s CPU      0.03s WALL (      87 calls)
     cegterg      :      4.59s CPU      4.87s WALL (      43 calls)

     Called by sum_band:

     Called by *egterg:
     h_psi        :      3.97s CPU      4.21s WALL (     294 calls)
     g_psi        :      0.04s CPU      0.04s WALL (     250 calls)
     cdiaghg      :      0.07s CPU      0.07s WALL (     287 calls)

     Called by h_psi:
     h_psi:pot    :      3.93s CPU      4.17s WALL (     294 calls)
     h_psi:calbec :      0.06s CPU      0.07s WALL (     294 calls)
     vloc_psi     :      3.84s CPU      4.07s WALL (     294 calls)
     add_vuspsi   :      0.03s CPU      0.03s WALL (     294 calls)

     General routines
     calbec       :      0.06s CPU      0.08s WALL (     318 calls)
     fft          :      1.70s CPU      1.75s WALL (     541 calls)
     fftw         :      3.82s CPU      4.05s WALL (    2936 calls)
     davcio       :      0.12s CPU      0.80s WALL (     333 calls)
 
     Parallel routines
     fft_scatter  :      1.99s CPU      2.24s WALL (    3477 calls)
 
     PWSCF        :    12.19s CPU        14.65s WALL

 
   This run was terminated on:   2:30:36  28Jul2018            

=------------------------------------------------------------------------------=
   JOB DONE.
=------------------------------------------------------------------------------=
