
     Program PWSCF v.6.0 (svn rev. 13079) starts on 28Jul2018 at  2:25:38 

     This program is part of the open-source Quantum ESPRESSO suite
     for quantum simulation of materials; please cite
         "P. Giannozzi et al., J. Phys.:Condens. Matter 21 395502 (2009);
          URL http://www.quantum-espresso.org", 
     in publications or presentations arising from this work. More details at
     http://www.quantum-espresso.org/quote

     Parallel version (MPI), running on    28 processors
     R & G space division:  proc/nbgrp/npool/nimage =      28
     Reading input from ../QMCmins/relax-32.in

     Current dimensions of program PWSCF are:
     Max number of different atomic species (ntypx) = 10
     Max number of k-points (npk) =  40000
     Max angular momentum in pseudopotentials (lmaxx) =  3
     Message from routine iosys:
     pot_extrapolation='second-order' not available, using 'atomic'
     Message from routine iosys:
     wfc_extrapolation='second-order' not available, using 'atomic'

     Subspace diagonalization in iterative solution of the eigenvalue problem:
     a serial algorithm will be used

 
     Parallelization info
     --------------------
     sticks:   dense  smooth     PW     G-vecs:    dense   smooth      PW
     Min         408     408    102                32936    32936    4116
     Max         409     409    103                32943    32943    4121
     Sum       11449   11449   2869               922329   922329  115313
 


     bravais-lattice index     =            1
     lattice parameter (alat)  =      20.0000  a.u.
     unit-cell volume          =    8000.0000 (a.u.)^3
     number of atoms/cell      =            3
     number of atomic types    =            2
     number of electrons       =         8.00
     number of Kohn-Sham states=            8
     kinetic-energy cutoff     =      90.0000  Ry
     charge density cutoff     =     360.0000  Ry
     convergence threshold     =      1.0E-08
     mixing beta               =       0.7000
     number of iterations used =            8  plain     mixing
     Exchange-correlation      = BLYP ( 1  3  1  3 0 0)
     nstep                     =           50


     celldm(1)=  20.000000  celldm(2)=   0.000000  celldm(3)=   0.000000
     celldm(4)=   0.000000  celldm(5)=   0.000000  celldm(6)=   0.000000

     crystal axes: (cart. coord. in units of alat)
               a(1) = (   1.000000   0.000000   0.000000 )  
               a(2) = (   0.000000   1.000000   0.000000 )  
               a(3) = (   0.000000   0.000000   1.000000 )  

     reciprocal axes: (cart. coord. in units 2 pi/alat)
               b(1) = (  1.000000  0.000000  0.000000 )  
               b(2) = (  0.000000  1.000000  0.000000 )  
               b(3) = (  0.000000  0.000000  1.000000 )  


     PseudoPot. # 1 for  H read from file:
     ../H.blyp-hgh.UPF
     MD5 check sum: c576e69559cde411e611be972c763230
     Pseudo is Norm-conserving, Zval =  1.0
     Generated in analytical, separable form
     Using radial grid of  929 points,  0 beta functions with: 

     PseudoPot. # 2 for  O read from file:
     ../O.blyp-hgh.UPF
     MD5 check sum: d0b7156309aa9befef28faac7bc56342
     Pseudo is Norm-conserving, Zval =  6.0
     Generated in analytical, separable form
     Using radial grid of 1095 points,  1 beta functions with: 
                l(1) =   0

     atomic species   valence    mass     pseudopotential
        H              1.00     1.01000      H( 1.00)
        O              6.00    16.00000      O( 1.00)

     No symmetry found



   Cartesian axes

     site n.     atom                  positions (alat units)
         1           H   tau(   1) = (  -0.0220361   0.0593679   0.0518587  )
         2           H   tau(   2) = (   0.0273726  -0.0692165   0.0459330  )
         3           O   tau(   3) = (  -0.0003368   0.0006217  -0.0005951  )

     number of k points=     1  Marzari-Vanderbilt smearing, width (Ry)=  0.0250
                       cart. coord. in units 2pi/alat
        k(    1) = (   0.0000000   0.0000000   0.0000000), wk =   2.0000000

     Dense  grid:   922329 G-vectors     FFT dimensions: ( 125, 125, 125)

     Estimated max dynamical RAM per process >      31.67Mb

     Estimated total allocated dynamical RAM >     886.64Mb

     Initial potential from superposition of free atoms
     Check: negative starting charge=   -0.016045

     starting charge    7.99998, renormalised to    8.00000

     negative rho (up, down):  1.604E-02 0.000E+00
     Starting wfc are    6 randomized atomic wfcs +    2 random wfc

     total cpu time spent up to now is        0.7 secs

     per-process dynamical memory:    33.5 Mb

     Self-consistent Calculation

     iteration #  1     ecut=    90.00 Ry     beta=0.70
     Davidson diagonalization with overlap
     ethr =  1.00E-02,  avg # of iterations =  8.0

     negative rho (up, down):  4.702E-03 0.000E+00

     total cpu time spent up to now is        1.0 secs

     total energy              =     -33.97897859 Ry
     Harris-Foulkes estimate   =     -34.27041659 Ry
     estimated scf accuracy    <       0.42849704 Ry

     iteration #  2     ecut=    90.00 Ry     beta=0.70
     Davidson diagonalization with overlap
     ethr =  5.36E-03,  avg # of iterations =  2.0

     negative rho (up, down):  2.776E-03 0.000E+00

     total cpu time spent up to now is        1.2 secs

     total energy              =     -34.06188394 Ry
     Harris-Foulkes estimate   =     -34.24157417 Ry
     estimated scf accuracy    <       0.36886309 Ry

     iteration #  3     ecut=    90.00 Ry     beta=0.70
     Davidson diagonalization with overlap
     ethr =  4.61E-03,  avg # of iterations =  2.0

     negative rho (up, down):  1.931E-04 0.000E+00

     total cpu time spent up to now is        1.4 secs

     total energy              =     -34.14745168 Ry
     Harris-Foulkes estimate   =     -34.14873766 Ry
     estimated scf accuracy    <       0.00609005 Ry

     iteration #  4     ecut=    90.00 Ry     beta=0.70
     Davidson diagonalization with overlap
     ethr =  7.61E-05,  avg # of iterations =  7.0

     negative rho (up, down):  1.764E-05 0.000E+00

     total cpu time spent up to now is        1.6 secs

     total energy              =     -34.14513800 Ry
     Harris-Foulkes estimate   =     -34.14531146 Ry
     estimated scf accuracy    <       0.00042657 Ry

     iteration #  5     ecut=    90.00 Ry     beta=0.70
     Davidson diagonalization with overlap
     ethr =  5.33E-06,  avg # of iterations =  9.0

     negative rho (up, down):  5.152E-08 0.000E+00

     total cpu time spent up to now is        1.9 secs

     total energy              =     -34.14925202 Ry
     Harris-Foulkes estimate   =     -34.14925624 Ry
     estimated scf accuracy    <       0.00001760 Ry

     iteration #  6     ecut=    90.00 Ry     beta=0.70
     Davidson diagonalization with overlap
     ethr =  2.20E-07,  avg # of iterations =  2.0

     negative rho (up, down):  2.501E-08 0.000E+00

     total cpu time spent up to now is        2.1 secs

     total energy              =     -34.14925413 Ry
     Harris-Foulkes estimate   =     -34.14925378 Ry
     estimated scf accuracy    <       0.00000170 Ry

     iteration #  7     ecut=    90.00 Ry     beta=0.70
     Davidson diagonalization with overlap
     ethr =  2.12E-08,  avg # of iterations =  2.0

     total cpu time spent up to now is        2.3 secs

     total energy              =     -34.14925427 Ry
     Harris-Foulkes estimate   =     -34.14925438 Ry
     estimated scf accuracy    <       0.00000003 Ry

     iteration #  8     ecut=    90.00 Ry     beta=0.70
     Davidson diagonalization with overlap
     ethr =  4.00E-10,  avg # of iterations =  2.0

     total cpu time spent up to now is        2.4 secs

     End of self-consistent calculation

          k = 0.0000 0.0000 0.0000 (115313 PWs)   bands (ev):

   -25.9933 -13.7823  -9.0787  -7.2298  -0.7449   0.4974   0.8833   1.1646

     the Fermi energy is    -5.2847 ev

!    total energy              =     -34.14925417 Ry
     Harris-Foulkes estimate   =     -34.14925428 Ry
     estimated scf accuracy    <          1.9E-09 Ry

     The total energy is the sum of the following terms:

     one-electron contribution =     -65.63297921 Ry
     hartree contribution      =      34.19618401 Ry
     xc contribution           =      -8.51461337 Ry
     ewald contribution        =       5.80215440 Ry
     smearing contrib. (-TS)   =       0.00000000 Ry

     convergence has been achieved in   8 iterations

     Forces acting on atoms (Ry/au):

     atom    1 type  1   force =    -0.08445700    0.22653325    0.20322705
     atom    2 type  1   force =     0.02644556   -0.06844891    0.04974696
     atom    3 type  2   force =     0.05801144   -0.15808434   -0.25297401

     Total force =     0.447172     Total SCF correction =     0.000081

     BFGS Geometry Optimization

     number of scf cycles    =   1
     number of bfgs steps    =   0

     energy   new            =     -34.1492541741 Ry

     new trust radius        =       0.3158346576 bohr
     new conv_thr            =       0.0000000100 Ry


ATOMIC_POSITIONS (angstrom)
H       -0.277912718   0.748199232   0.656392123
H        0.303693387  -0.768777603   0.512458958
O        0.027133331  -0.077074629  -0.140166081



     Writing output data file pwscf.save
     Check: negative starting charge=   -0.016045
     NEW-OLD atomic charge density approx. for the potential
     Check: negative starting charge=   -0.015924

     negative rho (up, down):  2.628E-02 0.000E+00

     total cpu time spent up to now is        3.0 secs

     per-process dynamical memory:    45.8 Mb

     Self-consistent Calculation

     iteration #  1     ecut=    90.00 Ry     beta=0.70
     Davidson diagonalization with overlap
     c_bands:  3 eigenvalues not converged
     ethr =  1.00E-06,  avg # of iterations = 20.0

     negative rho (up, down):  6.523E-03 0.000E+00

     total cpu time spent up to now is        3.6 secs

     total energy              =     -34.08940208 Ry
     Harris-Foulkes estimate   =     -34.11203923 Ry
     estimated scf accuracy    <       0.08250393 Ry

     iteration #  2     ecut=    90.00 Ry     beta=0.70
     Davidson diagonalization with overlap
     ethr =  1.03E-03,  avg # of iterations =  3.0

     negative rho (up, down):  4.276E-03 0.000E+00

     total cpu time spent up to now is        3.8 secs

     total energy              =     -34.11069103 Ry
     Harris-Foulkes estimate   =     -34.15262990 Ry
     estimated scf accuracy    <       0.09766517 Ry

     iteration #  3     ecut=    90.00 Ry     beta=0.70
     Davidson diagonalization with overlap
     ethr =  1.03E-03,  avg # of iterations =  2.0

     negative rho (up, down):  1.452E-03 0.000E+00

     total cpu time spent up to now is        4.0 secs

     total energy              =     -34.13109508 Ry
     Harris-Foulkes estimate   =     -34.12755299 Ry
     estimated scf accuracy    <       0.00190715 Ry

     iteration #  4     ecut=    90.00 Ry     beta=0.70
     Davidson diagonalization with overlap
     ethr =  2.38E-05,  avg # of iterations = 10.0

     negative rho (up, down):  1.400E-04 0.000E+00

     total cpu time spent up to now is        4.5 secs

     total energy              =     -34.13585228 Ry
     Harris-Foulkes estimate   =     -34.13555038 Ry
     estimated scf accuracy    <       0.00005500 Ry

     iteration #  5     ecut=    90.00 Ry     beta=0.70
     Davidson diagonalization with overlap
     ethr =  6.87E-07,  avg # of iterations = 16.0

     negative rho (up, down):  3.977E-07 0.000E+00

     total cpu time spent up to now is        4.8 secs

     total energy              =     -34.13586340 Ry
     Harris-Foulkes estimate   =     -34.13586350 Ry
     estimated scf accuracy    <       0.00000228 Ry

     iteration #  6     ecut=    90.00 Ry     beta=0.70
     Davidson diagonalization with overlap
     ethr =  2.85E-08,  avg # of iterations =  2.0

     total cpu time spent up to now is        5.0 secs

     total energy              =     -34.13586362 Ry
     Harris-Foulkes estimate   =     -34.13586382 Ry
     estimated scf accuracy    <       0.00000004 Ry

     iteration #  7     ecut=    90.00 Ry     beta=0.70
     Davidson diagonalization with overlap
     ethr =  5.44E-10,  avg # of iterations =  2.0

     total cpu time spent up to now is        5.1 secs

     End of self-consistent calculation

          k = 0.0000 0.0000 0.0000 (115313 PWs)   bands (ev):

   -24.3362 -11.5794  -9.3463  -6.9505  -1.5433   0.1703   0.5582   1.1204

     the Fermi energy is    -4.9036 ev

!    total energy              =     -34.13586363 Ry
     Harris-Foulkes estimate   =     -34.13586363 Ry
     estimated scf accuracy    <          1.8E-09 Ry

     The total energy is the sum of the following terms:

     one-electron contribution =     -61.51775156 Ry
     hartree contribution      =      32.21435824 Ry
     xc contribution           =      -8.19584087 Ry
     ewald contribution        =       3.36337057 Ry
     smearing contrib. (-TS)   =       0.00000000 Ry

     convergence has been achieved in   7 iterations

     Forces acting on atoms (Ry/au):

     atom    1 type  1   force =     0.04577051   -0.12496966   -0.12979978
     atom    2 type  1   force =    -0.00074087    0.00092857   -0.01213793
     atom    3 type  2   force =    -0.04502965    0.12404108    0.14193771

     Total force =     0.268829     Total SCF correction =     0.000029

     number of scf cycles    =   2
     number of bfgs steps    =   1

     energy   old            =     -34.1492541741 Ry
     energy   new            =     -34.1358636331 Ry

     CASE: energy  _new > energy  _old

     new trust radius        =       0.1480060756 bohr
     new conv_thr            =       0.0000000100 Ry


ATOMIC_POSITIONS (angstrom)
H       -0.254163850   0.684499263   0.599245735
H        0.296257034  -0.749530126   0.498470372
O        0.010820817  -0.032622137  -0.069031107



     Writing output data file pwscf.save
     Check: negative starting charge=   -0.015924
     NEW-OLD atomic charge density approx. for the potential
     Check: negative starting charge=   -0.015988

     negative rho (up, down):  2.641E-02 0.000E+00

     total cpu time spent up to now is        5.7 secs

     per-process dynamical memory:    45.8 Mb

     Self-consistent Calculation

     iteration #  1     ecut=    90.00 Ry     beta=0.70
     Davidson diagonalization with overlap
     c_bands:  1 eigenvalues not converged
     ethr =  1.00E-06,  avg # of iterations = 20.0

     negative rho (up, down):  6.938E-03 0.000E+00

     total cpu time spent up to now is        6.2 secs

     total energy              =     -34.16181602 Ry
     Harris-Foulkes estimate   =     -34.15384954 Ry
     estimated scf accuracy    <       0.02119024 Ry

     iteration #  2     ecut=    90.00 Ry     beta=0.70
     Davidson diagonalization with overlap
     ethr =  2.65E-04,  avg # of iterations =  3.0

     negative rho (up, down):  4.329E-03 0.000E+00

     total cpu time spent up to now is        6.4 secs

     total energy              =     -34.16810661 Ry
     Harris-Foulkes estimate   =     -34.17744981 Ry
     estimated scf accuracy    <       0.02372376 Ry

     iteration #  3     ecut=    90.00 Ry     beta=0.70
     Davidson diagonalization with overlap
     ethr =  2.65E-04,  avg # of iterations =  2.0

     negative rho (up, down):  8.780E-04 0.000E+00

     total cpu time spent up to now is        6.6 secs

     total energy              =     -34.17635789 Ry
     Harris-Foulkes estimate   =     -34.17289116 Ry
     estimated scf accuracy    <       0.00013912 Ry

     iteration #  4     ecut=    90.00 Ry     beta=0.70
     Davidson diagonalization with overlap
     c_bands:  1 eigenvalues not converged
     ethr =  1.74E-06,  avg # of iterations = 20.0

     negative rho (up, down):  2.137E-04 0.000E+00

     total cpu time spent up to now is        7.0 secs

     total energy              =     -34.18057757 Ry
     Harris-Foulkes estimate   =     -34.18054980 Ry
     estimated scf accuracy    <       0.00000797 Ry

     iteration #  5     ecut=    90.00 Ry     beta=0.70
     Davidson diagonalization with overlap
     ethr =  9.96E-08,  avg # of iterations =  9.0

     negative rho (up, down):  3.806E-07 0.000E+00

     total cpu time spent up to now is        7.3 secs

     total energy              =     -34.18057555 Ry
     Harris-Foulkes estimate   =     -34.18057901 Ry
     estimated scf accuracy    <       0.00000062 Ry

     iteration #  6     ecut=    90.00 Ry     beta=0.70
     Davidson diagonalization with overlap
     ethr =  7.72E-09,  avg # of iterations =  4.0

     total cpu time spent up to now is        7.4 secs

     End of self-consistent calculation

          k = 0.0000 0.0000 0.0000 (115313 PWs)   bands (ev):

   -25.0718 -12.6517  -9.2135  -7.0741  -0.9768   0.4109   0.7512   1.1461

     the Fermi energy is    -5.0682 ev

!    total energy              =     -34.18057512 Ry
     Harris-Foulkes estimate   =     -34.18057571 Ry
     estimated scf accuracy    <          6.9E-09 Ry

     The total energy is the sum of the following terms:

     one-electron contribution =     -63.54774230 Ry
     hartree contribution      =      33.19636844 Ry
     xc contribution           =      -8.34685178 Ry
     ewald contribution        =       4.51765051 Ry
     smearing contrib. (-TS)   =       0.00000000 Ry

     convergence has been achieved in   6 iterations

     Forces acting on atoms (Ry/au):

     atom    1 type  1   force =     0.01436600   -0.03943777   -0.04007614
     atom    2 type  1   force =     0.01487555   -0.03774421    0.02686140
     atom    3 type  2   force =    -0.02924155    0.07718198    0.01321474

     Total force =     0.112792     Total SCF correction =     0.000263

     number of scf cycles    =   3
     number of bfgs steps    =   1

     energy   old            =     -34.1492541741 Ry
     energy   new            =     -34.1805751223 Ry

     CASE: energy  _new < energy  _old

     new trust radius        =       0.0561745967 bohr
     new conv_thr            =       0.0000000077 Ry


ATOMIC_POSITIONS (angstrom)
H       -0.252107686   0.678569994   0.591777135
H        0.304480946  -0.770469038   0.513427282
O        0.000540740  -0.005753956  -0.076519417



     Writing output data file pwscf.save
     Check: negative starting charge=   -0.015988
     NEW-OLD atomic charge density approx. for the potential
     Check: negative starting charge=   -0.015994

     negative rho (up, down):  1.009E-02 0.000E+00

     total cpu time spent up to now is        8.1 secs

     per-process dynamical memory:    45.8 Mb

     Self-consistent Calculation

     iteration #  1     ecut=    90.00 Ry     beta=0.70
     Davidson diagonalization with overlap
     ethr =  1.00E-06,  avg # of iterations = 16.0

     negative rho (up, down):  1.223E-03 0.000E+00

     total cpu time spent up to now is        8.4 secs

     total energy              =      52.75852055 Ry
     Harris-Foulkes estimate   =    -219.17464433 Ry
     estimated scf accuracy    <       7.33820065 Ry

     iteration #  2     ecut=    90.00 Ry     beta=0.70
     Davidson diagonalization with overlap
     ethr =  1.00E-02,  avg # of iterations =  3.0

     total cpu time spent up to now is        8.6 secs

     total energy              =     -32.44064140 Ry
     Harris-Foulkes estimate   =     -38.50980182 Ry
     estimated scf accuracy    <      13.45060418 Ry

     iteration #  3     ecut=    90.00 Ry     beta=0.70
     Davidson diagonalization with overlap
     ethr =  1.00E-02,  avg # of iterations =  3.0

     total cpu time spent up to now is        8.8 secs

     total energy              =     -34.51500626 Ry
     Harris-Foulkes estimate   =     -35.14088177 Ry
     estimated scf accuracy    <       1.93766099 Ry

     iteration #  4     ecut=    90.00 Ry     beta=0.70
     Davidson diagonalization with overlap
     ethr =  1.00E-02,  avg # of iterations =  1.0

     total cpu time spent up to now is        9.0 secs

     total energy              =     -34.47472478 Ry
     Harris-Foulkes estimate   =     -34.55625973 Ry
     estimated scf accuracy    <       0.99138329 Ry

     iteration #  5     ecut=    90.00 Ry     beta=0.70
     Davidson diagonalization with overlap
     ethr =  1.00E-02,  avg # of iterations =  1.0

     total cpu time spent up to now is        9.4 secs

     total energy              =     -34.21003002 Ry
     Harris-Foulkes estimate   =     -34.47568406 Ry
     estimated scf accuracy    <       0.86571981 Ry

     iteration #  6     ecut=    90.00 Ry     beta=0.70
     Davidson diagonalization with overlap
     ethr =  1.00E-02,  avg # of iterations =  1.0

     negative rho (up, down):  1.454E-02 0.000E+00

     total cpu time spent up to now is        9.6 secs

     total energy              =     -34.14096743 Ry
     Harris-Foulkes estimate   =     -34.21836961 Ry
     estimated scf accuracy    <       0.37109289 Ry

     iteration #  7     ecut=    90.00 Ry     beta=0.70
     Davidson diagonalization with overlap
     ethr =  4.64E-03,  avg # of iterations =  1.0

     negative rho (up, down):  1.872E-03 0.000E+00

     total cpu time spent up to now is        9.8 secs

     total energy              =     -34.14472570 Ry
     Harris-Foulkes estimate   =     -34.14059256 Ry
     estimated scf accuracy    <       0.17524136 Ry

     iteration #  8     ecut=    90.00 Ry     beta=0.70
     Davidson diagonalization with overlap
     ethr =  2.19E-03,  avg # of iterations =  1.0

     negative rho (up, down):  1.339E-02 0.000E+00

     total cpu time spent up to now is       10.0 secs

     total energy              =     -34.13344686 Ry
     Harris-Foulkes estimate   =     -34.14491206 Ry
     estimated scf accuracy    <       0.17235160 Ry

     iteration #  9     ecut=    90.00 Ry     beta=0.70
     Davidson diagonalization with overlap
     ethr =  2.15E-03,  avg # of iterations =  1.0

     negative rho (up, down):  2.167E-03 0.000E+00

     total cpu time spent up to now is       10.2 secs

     total energy              =     -34.14893064 Ry
     Harris-Foulkes estimate   =     -34.13655731 Ry
     estimated scf accuracy    <       0.04658482 Ry

     iteration # 10     ecut=    90.00 Ry     beta=0.70
     Davidson diagonalization with overlap
     ethr =  5.82E-04,  avg # of iterations =  1.0

     negative rho (up, down):  3.363E-03 0.000E+00

     total cpu time spent up to now is       10.4 secs

     total energy              =     -34.18143187 Ry
     Harris-Foulkes estimate   =     -34.15397713 Ry
     estimated scf accuracy    <       0.02084583 Ry

     iteration # 11     ecut=    90.00 Ry     beta=0.70
     Davidson diagonalization with overlap
     ethr =  2.61E-04,  avg # of iterations =  1.0

     negative rho (up, down):  5.425E-04 0.000E+00

     total cpu time spent up to now is       10.6 secs

     total energy              =     -34.18132606 Ry
     Harris-Foulkes estimate   =     -34.18246687 Ry
     estimated scf accuracy    <       0.00372870 Ry

     iteration # 12     ecut=    90.00 Ry     beta=0.70
     Davidson diagonalization with overlap
     ethr =  4.66E-05,  avg # of iterations =  3.0

     negative rho (up, down):  3.774E-05 0.000E+00

     total cpu time spent up to now is       10.9 secs

     total energy              =     -34.18189839 Ry
     Harris-Foulkes estimate   =     -34.18197691 Ry
     estimated scf accuracy    <       0.00016690 Ry

     iteration # 13     ecut=    90.00 Ry     beta=0.70
     Davidson diagonalization with overlap
     c_bands:  1 eigenvalues not converged
     ethr =  2.09E-06,  avg # of iterations = 20.0

     total cpu time spent up to now is       11.2 secs

     total energy              =     -34.18197490 Ry
     Harris-Foulkes estimate   =     -34.18197066 Ry
     estimated scf accuracy    <       0.00013135 Ry

     iteration # 14     ecut=    90.00 Ry     beta=0.70
     Davidson diagonalization with overlap
     c_bands:  1 eigenvalues not converged
     ethr =  1.64E-06,  avg # of iterations = 20.0

     total cpu time spent up to now is       11.5 secs

     total energy              =     -34.18195458 Ry
     Harris-Foulkes estimate   =     -34.18197569 Ry
     estimated scf accuracy    <       0.00012986 Ry

     iteration # 15     ecut=    90.00 Ry     beta=0.70
     Davidson diagonalization with overlap
     ethr =  1.62E-06,  avg # of iterations =  2.0

     negative rho (up, down):  6.954E-08 0.000E+00

     total cpu time spent up to now is       11.7 secs

     total energy              =     -34.18194572 Ry
     Harris-Foulkes estimate   =     -34.18195697 Ry
     estimated scf accuracy    <       0.00006143 Ry

     iteration # 16     ecut=    90.00 Ry     beta=0.70
     Davidson diagonalization with overlap
     ethr =  7.68E-07,  avg # of iterations =  1.0

     total cpu time spent up to now is       11.9 secs

     total energy              =     -34.18194485 Ry
     Harris-Foulkes estimate   =     -34.18194806 Ry
     estimated scf accuracy    <       0.00002021 Ry

     iteration # 17     ecut=    90.00 Ry     beta=0.70
     Davidson diagonalization with overlap
     ethr =  2.53E-07,  avg # of iterations =  1.0

     total cpu time spent up to now is       12.1 secs

     total energy              =     -34.18194471 Ry
     Harris-Foulkes estimate   =     -34.18194587 Ry
     estimated scf accuracy    <       0.00000531 Ry

     iteration # 18     ecut=    90.00 Ry     beta=0.70
     Davidson diagonalization with overlap
     ethr =  6.64E-08,  avg # of iterations =  2.0

     total cpu time spent up to now is       12.4 secs

     total energy              =     -34.18194590 Ry
     Harris-Foulkes estimate   =     -34.18194630 Ry
     estimated scf accuracy    <       0.00000035 Ry

     iteration # 19     ecut=    90.00 Ry     beta=0.70
     Davidson diagonalization with overlap
     ethr =  4.40E-09,  avg # of iterations =  2.0

     total cpu time spent up to now is       12.6 secs

     total energy              =     -34.18194586 Ry
     Harris-Foulkes estimate   =     -34.18194592 Ry
     estimated scf accuracy    <       0.00000013 Ry

     iteration # 20     ecut=    90.00 Ry     beta=0.70
     Davidson diagonalization with overlap
     ethr =  1.65E-09,  avg # of iterations =  2.0

     total cpu time spent up to now is       12.8 secs

     total energy              =     -34.18194587 Ry
     Harris-Foulkes estimate   =     -34.18194588 Ry
     estimated scf accuracy    <          9.4E-09 Ry

     iteration # 21     ecut=    90.00 Ry     beta=0.70
     Davidson diagonalization with overlap
     ethr =  1.17E-10,  avg # of iterations =  1.0

     total cpu time spent up to now is       12.9 secs

     End of self-consistent calculation

          k = 0.0000 0.0000 0.0000 (115313 PWs)   bands (ev):

   -24.9193 -12.4968  -9.2220  -7.0503  -1.0142   0.4031   0.7150   1.1229

     the Fermi energy is    -5.0475 ev

!    total energy              =     -34.18194588 Ry
     Harris-Foulkes estimate   =     -34.18194587 Ry
     estimated scf accuracy    <          1.8E-09 Ry

     The total energy is the sum of the following terms:

     one-electron contribution =     -63.21778308 Ry
     hartree contribution      =      33.03782416 Ry
     xc contribution           =      -8.32079623 Ry
     ewald contribution        =       4.31880927 Ry
     smearing contrib. (-TS)   =       0.00000000 Ry

     convergence has been achieved in  21 iterations

     Forces acting on atoms (Ry/au):

     atom    1 type  1   force =     0.00237072   -0.00909174   -0.00740629
     atom    2 type  1   force =    -0.01555415    0.03679225   -0.02902555
     atom    3 type  2   force =     0.01318343   -0.02770051    0.03643184

     Total force =     0.069639     Total SCF correction =     0.000100

     number of scf cycles    =   4
     number of bfgs steps    =   2

     energy   old            =     -34.1805751223 Ry
     energy   new            =     -34.1819458804 Ry

     CASE: energy  _new < energy  _old

     new trust radius        =       0.0264668237 bohr
     new conv_thr            =       0.0000000014 Ry


ATOMIC_POSITIONS (angstrom)
H       -0.251353840   0.675590749   0.589166735
H        0.300040815  -0.760113617   0.505108121
O        0.004227025  -0.013130132  -0.065589856



     Writing output data file pwscf.save
     Check: negative starting charge=   -0.015994
     NEW-OLD atomic charge density approx. for the potential
     Check: negative starting charge=   -0.015996

     negative rho (up, down):  4.526E-03 0.000E+00

     total cpu time spent up to now is       13.5 secs

     per-process dynamical memory:    45.8 Mb

     Self-consistent Calculation

     iteration #  1     ecut=    90.00 Ry     beta=0.70
     Davidson diagonalization with overlap
     c_bands:  1 eigenvalues not converged
     ethr =  1.00E-06,  avg # of iterations = 20.0

     negative rho (up, down):  1.177E-03 0.000E+00

     total cpu time spent up to now is       14.0 secs

     total energy              =     -34.17905381 Ry
     Harris-Foulkes estimate   =     -34.17549898 Ry
     estimated scf accuracy    <       0.00070089 Ry

     iteration #  2     ecut=    90.00 Ry     beta=0.70
     Davidson diagonalization with overlap
     ethr =  8.76E-06,  avg # of iterations = 13.0

     negative rho (up, down):  7.265E-04 0.000E+00

     total cpu time spent up to now is       14.4 secs

     total energy              =     -34.17928854 Ry
     Harris-Foulkes estimate   =     -34.17955295 Ry
     estimated scf accuracy    <       0.00071887 Ry

     iteration #  3     ecut=    90.00 Ry     beta=0.70
     Davidson diagonalization with overlap
     ethr =  8.76E-06,  avg # of iterations =  2.0

     negative rho (up, down):  1.576E-04 0.000E+00

     total cpu time spent up to now is       14.6 secs

     total energy              =     -34.18353575 Ry
     Harris-Foulkes estimate   =     -34.18351745 Ry
     estimated scf accuracy    <       0.00000574 Ry

     iteration #  4     ecut=    90.00 Ry     beta=0.70
     Davidson diagonalization with overlap
     ethr =  7.18E-08,  avg # of iterations =  5.0

     negative rho (up, down):  1.083E-05 0.000E+00

     total cpu time spent up to now is       14.9 secs

     total energy              =     -34.18353649 Ry
     Harris-Foulkes estimate   =     -34.18353837 Ry
     estimated scf accuracy    <       0.00000018 Ry

     iteration #  5     ecut=    90.00 Ry     beta=0.70
     Davidson diagonalization with overlap
     ethr =  2.25E-09,  avg # of iterations =  2.0

     negative rho (up, down):  1.548E-08 0.000E+00

     total cpu time spent up to now is       15.1 secs

     total energy              =     -34.18353637 Ry
     Harris-Foulkes estimate   =     -34.18353658 Ry
     estimated scf accuracy    <          7.7E-09 Ry

     iteration #  6     ecut=    90.00 Ry     beta=0.70
     Davidson diagonalization with overlap
     ethr =  9.60E-11,  avg # of iterations =  2.0

     total cpu time spent up to now is       15.2 secs

     End of self-consistent calculation

          k = 0.0000 0.0000 0.0000 (115313 PWs)   bands (ev):

   -25.0683 -12.6891  -9.1960  -7.0750  -0.9601   0.4217   0.7515   1.1472

     the Fermi energy is    -5.0665 ev

!    total energy              =     -34.18353636 Ry
     Harris-Foulkes estimate   =     -34.18353638 Ry
     estimated scf accuracy    <          4.6E-10 Ry

     The total energy is the sum of the following terms:

     one-electron contribution =     -63.57573262 Ry
     hartree contribution      =      33.21018342 Ry
     xc contribution           =      -8.34857436 Ry
     ewald contribution        =       4.53058720 Ry
     smearing contrib. (-TS)   =       0.00000000 Ry

     convergence has been achieved in   6 iterations

     Forces acting on atoms (Ry/au):

     atom    1 type  1   force =     0.00089869   -0.00280319   -0.00403116
     atom    2 type  1   force =    -0.00215164    0.00528101   -0.00519805
     atom    3 type  2   force =     0.00125295   -0.00247783    0.00922921

     Total force =     0.013317     Total SCF correction =     0.000187

     number of scf cycles    =   5
     number of bfgs steps    =   3

     energy   old            =     -34.1819458804 Ry
     energy   new            =     -34.1835363583 Ry

     CASE: energy  _new < energy  _old

     new trust radius        =       0.0072523571 bohr
     new conv_thr            =       0.0000000009 Ry


ATOMIC_POSITIONS (angstrom)
H       -0.251174003   0.674921750   0.587523208
H        0.299365647  -0.758449479   0.503078377
O        0.004722356  -0.014125271  -0.061916585



     Writing output data file pwscf.save
     Check: negative starting charge=   -0.015996
     NEW-OLD atomic charge density approx. for the potential
     Check: negative starting charge=   -0.015996

     negative rho (up, down):  1.097E-03 0.000E+00

     total cpu time spent up to now is       16.0 secs

     per-process dynamical memory:    45.8 Mb

     Self-consistent Calculation

     iteration #  1     ecut=    90.00 Ry     beta=0.70
     Davidson diagonalization with overlap
     ethr =  1.00E-06,  avg # of iterations =  5.0

     negative rho (up, down):  2.727E-04 0.000E+00

     total cpu time spent up to now is       16.2 secs

     total energy              =     -34.18356626 Ry
     Harris-Foulkes estimate   =     -34.18352839 Ry
     estimated scf accuracy    <       0.00005366 Ry

     iteration #  2     ecut=    90.00 Ry     beta=0.70
     Davidson diagonalization with overlap
     ethr =  6.71E-07,  avg # of iterations =  4.0

     negative rho (up, down):  1.641E-04 0.000E+00

     total cpu time spent up to now is       16.4 secs

     total energy              =     -34.18358177 Ry
     Harris-Foulkes estimate   =     -34.18360672 Ry
     estimated scf accuracy    <       0.00005829 Ry

     iteration #  3     ecut=    90.00 Ry     beta=0.70
     Davidson diagonalization with overlap
     ethr =  6.71E-07,  avg # of iterations =  2.0

     negative rho (up, down):  1.809E-05 0.000E+00

     total cpu time spent up to now is       16.6 secs

     total energy              =     -34.18359203 Ry
     Harris-Foulkes estimate   =     -34.18359359 Ry
     estimated scf accuracy    <       0.00000027 Ry

     iteration #  4     ecut=    90.00 Ry     beta=0.70
     Davidson diagonalization with overlap
     ethr =  3.36E-09,  avg # of iterations =  3.0

     negative rho (up, down):  1.080E-06 0.000E+00

     total cpu time spent up to now is       16.8 secs

     total energy              =     -34.18359186 Ry
     Harris-Foulkes estimate   =     -34.18359223 Ry
     estimated scf accuracy    <       0.00000001 Ry

     iteration #  5     ecut=    90.00 Ry     beta=0.70
     Davidson diagonalization with overlap
     ethr =  1.75E-10,  avg # of iterations =  2.0

     total cpu time spent up to now is       17.0 secs

     End of self-consistent calculation

          k = 0.0000 0.0000 0.0000 (115313 PWs)   bands (ev):

   -25.1085 -12.7496  -9.1821  -7.0813  -0.9459   0.4263   0.7604   1.1479

     the Fermi energy is    -5.0760 ev

!    total energy              =     -34.18359180 Ry
     Harris-Foulkes estimate   =     -34.18359187 Ry
     estimated scf accuracy    <          6.9E-10 Ry

     The total energy is the sum of the following terms:

     one-electron contribution =     -63.67550585 Ry
     hartree contribution      =      33.25847004 Ry
     xc contribution           =      -8.35646302 Ry
     ewald contribution        =       4.58990702 Ry
     smearing contrib. (-TS)   =       0.00000000 Ry

     convergence has been achieved in   5 iterations

     Forces acting on atoms (Ry/au):

     atom    1 type  1   force =    -0.00038676    0.00080471   -0.00011655
     atom    2 type  1   force =     0.00071896   -0.00182777    0.00096251
     atom    3 type  2   force =    -0.00033220    0.00102306   -0.00084596

     Total force =     0.002733     Total SCF correction =     0.000568
     SCF correction compared to forces is large: reduce conv_thr to get better values

     number of scf cycles    =   6
     number of bfgs steps    =   4

     energy   old            =     -34.1835363583 Ry
     energy   new            =     -34.1835918046 Ry

     CASE: energy  _new < energy  _old

     new trust radius        =       0.0012433893 bohr
     new conv_thr            =            1.0E-10 Ry


ATOMIC_POSITIONS (angstrom)
H       -0.251341868   0.675251515   0.587464395
H        0.299582970  -0.759019264   0.503325447
O        0.004672898  -0.013885251  -0.062104842



     Writing output data file pwscf.save
     Check: negative starting charge=   -0.015996
     NEW-OLD atomic charge density approx. for the potential
     Check: negative starting charge=   -0.015995

     negative rho (up, down):  5.202E-05 0.000E+00

     total cpu time spent up to now is       17.7 secs

     per-process dynamical memory:    45.8 Mb

     Self-consistent Calculation

     iteration #  1     ecut=    90.00 Ry     beta=0.70
     Davidson diagonalization with overlap
     ethr =  1.00E-06,  avg # of iterations =  2.0

     Threshold (ethr) on eigenvalues was too large:
     Diagonalizing with lowered threshold

     Davidson diagonalization with overlap
     ethr =  9.25E-09,  avg # of iterations =  1.0

     negative rho (up, down):  7.460E-06 0.000E+00

     total cpu time spent up to now is       17.9 secs

     total energy              =     -34.18359388 Ry
     Harris-Foulkes estimate   =     -34.18359352 Ry
     estimated scf accuracy    <       0.00000078 Ry

     iteration #  2     ecut=    90.00 Ry     beta=0.70
     Davidson diagonalization with overlap
     ethr =  9.78E-09,  avg # of iterations =  2.0

     negative rho (up, down):  3.035E-06 0.000E+00

     total cpu time spent up to now is       18.1 secs

     total energy              =     -34.18359396 Ry
     Harris-Foulkes estimate   =     -34.18359439 Ry
     estimated scf accuracy    <       0.00000068 Ry

     iteration #  3     ecut=    90.00 Ry     beta=0.70
     Davidson diagonalization with overlap
     ethr =  8.51E-09,  avg # of iterations =  2.0

     negative rho (up, down):  9.317E-08 0.000E+00

     total cpu time spent up to now is       18.3 secs

     total energy              =     -34.18359415 Ry
     Harris-Foulkes estimate   =     -34.18359412 Ry
     estimated scf accuracy    <       0.00000001 Ry

     iteration #  4     ecut=    90.00 Ry     beta=0.70
     Davidson diagonalization with overlap
     ethr =  1.25E-10,  avg # of iterations =  2.0

     total cpu time spent up to now is       18.5 secs

     total energy              =     -34.18359413 Ry
     Harris-Foulkes estimate   =     -34.18359416 Ry
     estimated scf accuracy    <          2.5E-10 Ry

     iteration #  5     ecut=    90.00 Ry     beta=0.70
     Davidson diagonalization with overlap
     ethr =  3.16E-12,  avg # of iterations =  2.0

     total cpu time spent up to now is       18.7 secs

     End of self-consistent calculation

          k = 0.0000 0.0000 0.0000 (115313 PWs)   bands (ev):

   -25.1022 -12.7448  -9.1809  -7.0802  -0.9475   0.4256   0.7590   1.1476

     the Fermi energy is    -5.0747 ev

!    total energy              =     -34.18359415 Ry
     Harris-Foulkes estimate   =     -34.18359413 Ry
     estimated scf accuracy    <          1.4E-11 Ry

     The total energy is the sum of the following terms:

     one-electron contribution =     -63.66246874 Ry
     hartree contribution      =      33.25225175 Ry
     xc contribution           =      -8.35544562 Ry
     ewald contribution        =       4.58206846 Ry
     smearing contrib. (-TS)   =       0.00000000 Ry

     convergence has been achieved in   5 iterations

     Forces acting on atoms (Ry/au):

     atom    1 type  1   force =    -0.00030224    0.00057657   -0.00043030
     atom    2 type  1   force =     0.00013262   -0.00034421   -0.00017157
     atom    3 type  2   force =     0.00016962   -0.00023236    0.00060187

     Total force =     0.001104     Total SCF correction =     0.000063

     bfgs converged in   7 scf cycles and   5 bfgs steps
     (criteria: energy <  1.0E-04, force <  1.0E-03)

     End of BFGS Geometry Optimization

     Final energy   =     -34.1835941496 Ry
Begin final coordinates

ATOMIC_POSITIONS (angstrom)
H       -0.251341868   0.675251515   0.587464395
H        0.299582970  -0.759019264   0.503325447
O        0.004672898  -0.013885251  -0.062104842
End final coordinates



     Writing output data file pwscf.save
 
     init_run     :      0.51s CPU      0.55s WALL (       1 calls)
     electrons    :     12.76s CPU     15.24s WALL (       7 calls)
     update_pot   :      1.47s CPU      1.78s WALL (       6 calls)
     forces       :      0.48s CPU      0.49s WALL (       7 calls)

     Called by init_run:
     wfcinit      :      0.03s CPU      0.04s WALL (       1 calls)
     potinit      :      0.11s CPU      0.11s WALL (       1 calls)

     Called by electrons:
     c_bands      :      5.98s CPU      6.06s WALL (      59 calls)
     sum_band     :      1.31s CPU      1.45s WALL (      59 calls)
     v_of_rho     :      3.36s CPU      3.44s WALL (      65 calls)
     mix_rho      :      1.55s CPU      3.01s WALL (      59 calls)

     Called by c_bands:
     init_us_2    :      0.03s CPU      0.04s WALL (     119 calls)
     cegterg      :      5.94s CPU      6.00s WALL (      59 calls)

     Called by sum_band:

     Called by *egterg:
     h_psi        :      5.09s CPU      5.13s WALL (     362 calls)
     g_psi        :      0.05s CPU      0.05s WALL (     302 calls)
     cdiaghg      :      0.13s CPU      0.13s WALL (     354 calls)

     Called by h_psi:
     h_psi:pot    :      5.04s CPU      5.08s WALL (     362 calls)
     h_psi:calbec :      0.16s CPU      0.17s WALL (     362 calls)
     vloc_psi     :      4.84s CPU      4.87s WALL (     362 calls)
     add_vuspsi   :      0.04s CPU      0.04s WALL (     362 calls)

     General routines
     calbec       :      0.16s CPU      0.17s WALL (     390 calls)
     fft          :      2.40s CPU      2.74s WALL (     730 calls)
     fftw         :      4.86s CPU      4.90s WALL (    3826 calls)
     davcio       :      0.21s CPU      1.29s WALL (     582 calls)
 
     Parallel routines
     fft_scatter  :      2.62s CPU      2.96s WALL (    4556 calls)
 
     PWSCF        :    15.72s CPU        19.09s WALL

 
   This run was terminated on:   2:25:57  28Jul2018            

=------------------------------------------------------------------------------=
   JOB DONE.
=------------------------------------------------------------------------------=
