
     Program PWSCF v.6.0 (svn rev. 13079) starts on 28Jul2018 at  2:46:18 

     This program is part of the open-source Quantum ESPRESSO suite
     for quantum simulation of materials; please cite
         "P. Giannozzi et al., J. Phys.:Condens. Matter 21 395502 (2009);
          URL http://www.quantum-espresso.org", 
     in publications or presentations arising from this work. More details at
     http://www.quantum-espresso.org/quote

     Parallel version (MPI), running on    28 processors
     R & G space division:  proc/nbgrp/npool/nimage =      28
     Reading input from ../QMCmins/relax-85.in

     Current dimensions of program PWSCF are:
     Max number of different atomic species (ntypx) = 10
     Max number of k-points (npk) =  40000
     Max angular momentum in pseudopotentials (lmaxx) =  3
     Message from routine iosys:
     pot_extrapolation='second-order' not available, using 'atomic'
     Message from routine iosys:
     wfc_extrapolation='second-order' not available, using 'atomic'

     Subspace diagonalization in iterative solution of the eigenvalue problem:
     a serial algorithm will be used

 
     Parallelization info
     --------------------
     sticks:   dense  smooth     PW     G-vecs:    dense   smooth      PW
     Min         408     408    102                32936    32936    4116
     Max         409     409    103                32943    32943    4121
     Sum       11449   11449   2869               922329   922329  115313
 


     bravais-lattice index     =            1
     lattice parameter (alat)  =      20.0000  a.u.
     unit-cell volume          =    8000.0000 (a.u.)^3
     number of atoms/cell      =            3
     number of atomic types    =            2
     number of electrons       =         8.00
     number of Kohn-Sham states=            8
     kinetic-energy cutoff     =      90.0000  Ry
     charge density cutoff     =     360.0000  Ry
     convergence threshold     =      1.0E-08
     mixing beta               =       0.7000
     number of iterations used =            8  plain     mixing
     Exchange-correlation      = BLYP ( 1  3  1  3 0 0)
     nstep                     =           50


     celldm(1)=  20.000000  celldm(2)=   0.000000  celldm(3)=   0.000000
     celldm(4)=   0.000000  celldm(5)=   0.000000  celldm(6)=   0.000000

     crystal axes: (cart. coord. in units of alat)
               a(1) = (   1.000000   0.000000   0.000000 )  
               a(2) = (   0.000000   1.000000   0.000000 )  
               a(3) = (   0.000000   0.000000   1.000000 )  

     reciprocal axes: (cart. coord. in units 2 pi/alat)
               b(1) = (  1.000000  0.000000  0.000000 )  
               b(2) = (  0.000000  1.000000  0.000000 )  
               b(3) = (  0.000000  0.000000  1.000000 )  


     PseudoPot. # 1 for  H read from file:
     ../H.blyp-hgh.UPF
     MD5 check sum: c576e69559cde411e611be972c763230
     Pseudo is Norm-conserving, Zval =  1.0
     Generated in analytical, separable form
     Using radial grid of  929 points,  0 beta functions with: 

     PseudoPot. # 2 for  O read from file:
     ../O.blyp-hgh.UPF
     MD5 check sum: d0b7156309aa9befef28faac7bc56342
     Pseudo is Norm-conserving, Zval =  6.0
     Generated in analytical, separable form
     Using radial grid of 1095 points,  1 beta functions with: 
                l(1) =   0

     atomic species   valence    mass     pseudopotential
        H              1.00     1.01000      H( 1.00)
        O              6.00    16.00000      O( 1.00)

     No symmetry found



   Cartesian axes

     site n.     atom                  positions (alat units)
         1           H   tau(   1) = (   0.0294844   0.0702182   0.0620847  )
         2           H   tau(   2) = (  -0.0186624  -0.0583170   0.0629341  )
         3           O   tau(   3) = (  -0.0006831  -0.0007513  -0.0023139  )

     number of k points=     1  Marzari-Vanderbilt smearing, width (Ry)=  0.0250
                       cart. coord. in units 2pi/alat
        k(    1) = (   0.0000000   0.0000000   0.0000000), wk =   2.0000000

     Dense  grid:   922329 G-vectors     FFT dimensions: ( 125, 125, 125)

     Estimated max dynamical RAM per process >      31.67Mb

     Estimated total allocated dynamical RAM >     886.64Mb

     Initial potential from superposition of free atoms
     Check: negative starting charge=   -0.016017

     starting charge    7.99998, renormalised to    8.00000

     negative rho (up, down):  1.602E-02 0.000E+00
     Starting wfc are    6 randomized atomic wfcs +    2 random wfc

     total cpu time spent up to now is        0.7 secs

     per-process dynamical memory:    33.5 Mb

     Self-consistent Calculation

     iteration #  1     ecut=    90.00 Ry     beta=0.70
     Davidson diagonalization with overlap
     ethr =  1.00E-02,  avg # of iterations =  8.0

     negative rho (up, down):  4.666E-03 0.000E+00

     total cpu time spent up to now is        0.9 secs

     total energy              =     -34.02323669 Ry
     Harris-Foulkes estimate   =     -34.24853800 Ry
     estimated scf accuracy    <       0.34130534 Ry

     iteration #  2     ecut=    90.00 Ry     beta=0.70
     Davidson diagonalization with overlap
     ethr =  4.27E-03,  avg # of iterations =  2.0

     negative rho (up, down):  2.921E-03 0.000E+00

     total cpu time spent up to now is        1.3 secs

     total energy              =     -34.07140907 Ry
     Harris-Foulkes estimate   =     -34.26136666 Ry
     estimated scf accuracy    <       0.41718664 Ry

     iteration #  3     ecut=    90.00 Ry     beta=0.70
     Davidson diagonalization with overlap
     ethr =  4.27E-03,  avg # of iterations =  2.0

     negative rho (up, down):  1.434E-04 0.000E+00

     total cpu time spent up to now is        1.5 secs

     total energy              =     -34.16354215 Ry
     Harris-Foulkes estimate   =     -34.16432668 Ry
     estimated scf accuracy    <       0.00605730 Ry

     iteration #  4     ecut=    90.00 Ry     beta=0.70
     Davidson diagonalization with overlap
     ethr =  7.57E-05,  avg # of iterations =  5.0

     negative rho (up, down):  1.286E-05 0.000E+00

     total cpu time spent up to now is        1.7 secs

     total energy              =     -34.16521057 Ry
     Harris-Foulkes estimate   =     -34.16532897 Ry
     estimated scf accuracy    <       0.00031357 Ry

     iteration #  5     ecut=    90.00 Ry     beta=0.70
     Davidson diagonalization with overlap
     ethr =  3.92E-06,  avg # of iterations = 10.0

     negative rho (up, down):  1.574E-07 0.000E+00

     total cpu time spent up to now is        2.0 secs

     total energy              =     -34.16523089 Ry
     Harris-Foulkes estimate   =     -34.16523674 Ry
     estimated scf accuracy    <       0.00002150 Ry

     iteration #  6     ecut=    90.00 Ry     beta=0.70
     Davidson diagonalization with overlap
     ethr =  2.69E-07,  avg # of iterations =  2.0

     negative rho (up, down):  3.077E-07 0.000E+00

     total cpu time spent up to now is        2.2 secs

     total energy              =     -34.16523356 Ry
     Harris-Foulkes estimate   =     -34.16523345 Ry
     estimated scf accuracy    <       0.00000126 Ry

     iteration #  7     ecut=    90.00 Ry     beta=0.70
     Davidson diagonalization with overlap
     ethr =  1.57E-08,  avg # of iterations =  2.0

     total cpu time spent up to now is        2.4 secs

     total energy              =     -34.16523345 Ry
     Harris-Foulkes estimate   =     -34.16523369 Ry
     estimated scf accuracy    <       0.00000004 Ry

     iteration #  8     ecut=    90.00 Ry     beta=0.70
     Davidson diagonalization with overlap
     ethr =  4.59E-10,  avg # of iterations =  2.0

     total cpu time spent up to now is        2.5 secs

     End of self-consistent calculation

          k = 0.0000 0.0000 0.0000 (115313 PWs)   bands (ev):

   -25.1493 -12.0367  -9.6812  -7.1015  -1.0987   0.3549   0.7521   1.1487

     the Fermi energy is    -5.0856 ev

!    total energy              =     -34.16523333 Ry
     Harris-Foulkes estimate   =     -34.16523346 Ry
     estimated scf accuracy    <          4.0E-09 Ry

     The total energy is the sum of the following terms:

     one-electron contribution =     -63.30373912 Ry
     hartree contribution      =      33.06421282 Ry
     xc contribution           =      -8.32634007 Ry
     ewald contribution        =       4.40063303 Ry
     smearing contrib. (-TS)   =       0.00000000 Ry

     convergence has been achieved in   8 iterations

     Forces acting on atoms (Ry/au):

     atom    1 type  1   force =    -0.02694297   -0.05723039   -0.09148931
     atom    2 type  1   force =    -0.03041533   -0.08693518    0.05012576
     atom    3 type  2   force =     0.05735831    0.14416557    0.04136355

     Total force =     0.221702     Total SCF correction =     0.000120

     BFGS Geometry Optimization

     number of scf cycles    =   1
     number of bfgs steps    =   0

     energy   new            =     -34.1652333349 Ry

     new trust radius        =       0.1605759305 bohr
     new conv_thr            =       0.0000000100 Ry


ATOMIC_POSITIONS (angstrom)
H        0.297791393   0.712871983   0.608661942
H       -0.213609102  -0.663205116   0.692591412
O        0.023122708   0.068338133  -0.002600355



     Writing output data file pwscf.save
     Check: negative starting charge=   -0.016017
     NEW-OLD atomic charge density approx. for the potential
     Check: negative starting charge=   -0.016017

     negative rho (up, down):  2.592E-02 0.000E+00

     total cpu time spent up to now is        3.1 secs

     per-process dynamical memory:    45.8 Mb

     Self-consistent Calculation

     iteration #  1     ecut=    90.00 Ry     beta=0.70
     Davidson diagonalization with overlap
     c_bands:  1 eigenvalues not converged
     ethr =  1.00E-06,  avg # of iterations = 20.0

     negative rho (up, down):  6.790E-03 0.000E+00

     total cpu time spent up to now is        3.6 secs

     total energy              =     -34.17087955 Ry
     Harris-Foulkes estimate   =     -34.14765252 Ry
     estimated scf accuracy    <       0.00972636 Ry

     iteration #  2     ecut=    90.00 Ry     beta=0.70
     Davidson diagonalization with overlap
     ethr =  1.22E-04,  avg # of iterations =  5.0

     negative rho (up, down):  3.317E-03 0.000E+00

     total cpu time spent up to now is        3.8 secs

     total energy              =     -34.16239932 Ry
     Harris-Foulkes estimate   =     -34.17204788 Ry
     estimated scf accuracy    <       0.00306459 Ry

     iteration #  3     ecut=    90.00 Ry     beta=0.70
     Davidson diagonalization with overlap
     ethr =  3.83E-05,  avg # of iterations =  4.0

     negative rho (up, down):  1.067E-03 0.000E+00

     total cpu time spent up to now is        4.0 secs

     total energy              =     -34.16674124 Ry
     Harris-Foulkes estimate   =     -34.16468176 Ry
     estimated scf accuracy    <       0.00030711 Ry

     iteration #  4     ecut=    90.00 Ry     beta=0.70
     Davidson diagonalization with overlap
     ethr =  3.84E-06,  avg # of iterations = 17.0

     negative rho (up, down):  1.126E-04 0.000E+00

     total cpu time spent up to now is        4.4 secs

     total energy              =     -34.17095857 Ry
     Harris-Foulkes estimate   =     -34.17090849 Ry
     estimated scf accuracy    <       0.00002258 Ry

     iteration #  5     ecut=    90.00 Ry     beta=0.70
     Davidson diagonalization with overlap
     ethr =  2.82E-07,  avg # of iterations =  5.0

     negative rho (up, down):  1.122E-06 0.000E+00

     total cpu time spent up to now is        4.6 secs

     total energy              =     -34.17096351 Ry
     Harris-Foulkes estimate   =     -34.17096490 Ry
     estimated scf accuracy    <       0.00000097 Ry

     iteration #  6     ecut=    90.00 Ry     beta=0.70
     Davidson diagonalization with overlap
     ethr =  1.21E-08,  avg # of iterations =  2.0

     total cpu time spent up to now is        5.1 secs

     total energy              =     -34.17096346 Ry
     Harris-Foulkes estimate   =     -34.17096371 Ry
     estimated scf accuracy    <       0.00000003 Ry

     iteration #  7     ecut=    90.00 Ry     beta=0.70
     Davidson diagonalization with overlap
     ethr =  3.20E-10,  avg # of iterations =  3.0

     total cpu time spent up to now is        5.2 secs

     End of self-consistent calculation

          k = 0.0000 0.0000 0.0000 (115313 PWs)   bands (ev):

   -25.2611 -12.3907  -9.5127  -7.1103  -1.0093   0.3884   0.7807   1.1227

     the Fermi energy is    -5.1331 ev

!    total energy              =     -34.17096345 Ry
     Harris-Foulkes estimate   =     -34.17096347 Ry
     estimated scf accuracy    <          3.8E-09 Ry

     The total energy is the sum of the following terms:

     one-electron contribution =     -63.69076292 Ry
     hartree contribution      =      33.25507751 Ry
     xc contribution           =      -8.35712307 Ry
     ewald contribution        =       4.62184503 Ry
     smearing contrib. (-TS)   =       0.00000000 Ry

     convergence has been achieved in   7 iterations

     Forces acting on atoms (Ry/au):

     atom    1 type  1   force =     0.04042061    0.09957594    0.06369026
     atom    2 type  1   force =     0.01289695    0.04536638   -0.06905031
     atom    3 type  2   force =    -0.05331756   -0.14494232    0.00536005

     Total force =     0.215587     Total SCF correction =     0.000094

     number of scf cycles    =   2
     number of bfgs steps    =   1

     energy   old            =     -34.1652333349 Ry
     energy   new            =     -34.1709634456 Ry

     CASE: energy  _new < energy  _old

     new trust radius        =       0.0755102751 bohr
     new conv_thr            =       0.0000000057 Ry


ATOMIC_POSITIONS (angstrom)
H        0.308510283   0.739464533   0.624550695
H       -0.210634384  -0.652331907   0.674364062
O        0.009429101   0.030872374  -0.000261757



     Writing output data file pwscf.save
     Check: negative starting charge=   -0.016017
     NEW-OLD atomic charge density approx. for the potential
     Check: negative starting charge=   -0.016039

     negative rho (up, down):  1.368E-02 0.000E+00

     total cpu time spent up to now is        5.8 secs

     per-process dynamical memory:    45.8 Mb

     Self-consistent Calculation

     iteration #  1     ecut=    90.00 Ry     beta=0.70
     Davidson diagonalization with overlap
     c_bands:  1 eigenvalues not converged
     ethr =  1.00E-06,  avg # of iterations = 20.0

     negative rho (up, down):  3.578E-03 0.000E+00

     total cpu time spent up to now is        6.2 secs

     total energy              =     -34.17452278 Ry
     Harris-Foulkes estimate   =     -34.16526319 Ry
     estimated scf accuracy    <       0.00207448 Ry

     iteration #  2     ecut=    90.00 Ry     beta=0.70
     Davidson diagonalization with overlap
     ethr =  2.59E-05,  avg # of iterations =  5.0

     negative rho (up, down):  1.305E-03 0.000E+00

     total cpu time spent up to now is        6.5 secs

     total energy              =     -34.17750174 Ry
     Harris-Foulkes estimate   =     -34.17507402 Ry
     estimated scf accuracy    <       0.00016753 Ry

     iteration #  3     ecut=    90.00 Ry     beta=0.70
     Davidson diagonalization with overlap
     ethr =  2.09E-06,  avg # of iterations = 16.0

     negative rho (up, down):  4.521E-04 0.000E+00

     total cpu time spent up to now is        6.8 secs

     total energy              =     -34.17769926 Ry
     Harris-Foulkes estimate   =     -34.17756084 Ry
     estimated scf accuracy    <       0.00003520 Ry

     iteration #  4     ecut=    90.00 Ry     beta=0.70
     Davidson diagonalization with overlap
     ethr =  4.40E-07,  avg # of iterations = 14.0

     negative rho (up, down):  2.727E-05 0.000E+00

     total cpu time spent up to now is        7.1 secs

     total energy              =     -34.18179107 Ry
     Harris-Foulkes estimate   =     -34.18179052 Ry
     estimated scf accuracy    <       0.00000862 Ry

     iteration #  5     ecut=    90.00 Ry     beta=0.70
     Davidson diagonalization with overlap
     ethr =  1.08E-07,  avg # of iterations =  4.0

     negative rho (up, down):  4.841E-08 0.000E+00

     total cpu time spent up to now is        7.3 secs

     total energy              =     -34.18179266 Ry
     Harris-Foulkes estimate   =     -34.18179299 Ry
     estimated scf accuracy    <       0.00000004 Ry

     iteration #  6     ecut=    90.00 Ry     beta=0.70
     Davidson diagonalization with overlap
     ethr =  4.57E-10,  avg # of iterations =  3.0

     negative rho (up, down):  1.344E-08 0.000E+00

     total cpu time spent up to now is        7.6 secs

     total energy              =     -34.18179270 Ry
     Harris-Foulkes estimate   =     -34.18179270 Ry
     estimated scf accuracy    <          6.2E-09 Ry

     iteration #  7     ecut=    90.00 Ry     beta=0.70
     Davidson diagonalization with overlap
     ethr =  7.75E-11,  avg # of iterations =  2.0

     total cpu time spent up to now is        7.7 secs

     End of self-consistent calculation

          k = 0.0000 0.0000 0.0000 (115313 PWs)   bands (ev):

   -25.1309 -12.3965  -9.4620  -7.0953  -0.9851   0.4113   0.7587   1.1502

     the Fermi energy is    -5.0799 ev

!    total energy              =     -34.18179272 Ry
     Harris-Foulkes estimate   =     -34.18179270 Ry
     estimated scf accuracy    <          8.9E-10 Ry

     The total energy is the sum of the following terms:

     one-electron contribution =     -63.53321049 Ry
     hartree contribution      =      33.18157439 Ry
     xc contribution           =      -8.34362625 Ry
     ewald contribution        =       4.51346963 Ry
     smearing contrib. (-TS)   =       0.00000000 Ry

     convergence has been achieved in   7 iterations

     Forces acting on atoms (Ry/au):

     atom    1 type  1   force =    -0.00038219    0.00242833   -0.02121452
     atom    2 type  1   force =    -0.00469846   -0.00997182   -0.01374018
     atom    3 type  2   force =     0.00508064    0.00754349    0.03495470

     Total force =     0.045508     Total SCF correction =     0.000070

     number of scf cycles    =   3
     number of bfgs steps    =   2

     energy   old            =     -34.1709634456 Ry
     energy   new            =     -34.1817927228 Ry

     CASE: energy  _new < energy  _old

     new trust radius        =       0.0357885347 bohr
     new conv_thr            =       0.0000000035 Ry


ATOMIC_POSITIONS (angstrom)
H        0.309900879   0.744777545   0.615321467
H       -0.212922318  -0.656667907   0.664701330
O        0.010326439   0.029895362   0.018630203



     Writing output data file pwscf.save
     Check: negative starting charge=   -0.016039
     NEW-OLD atomic charge density approx. for the potential
     Check: negative starting charge=   -0.016014

     negative rho (up, down):  6.264E-03 0.000E+00

     total cpu time spent up to now is        8.3 secs

     per-process dynamical memory:    45.8 Mb

     Self-consistent Calculation

     iteration #  1     ecut=    90.00 Ry     beta=0.70
     Davidson diagonalization with overlap
     ethr =  1.00E-06,  avg # of iterations = 20.0

     negative rho (up, down):  1.639E-03 0.000E+00

     total cpu time spent up to now is        8.6 secs

     total energy              =     -34.17797539 Ry
     Harris-Foulkes estimate   =     -34.17199154 Ry
     estimated scf accuracy    <       0.00067288 Ry

     iteration #  2     ecut=    90.00 Ry     beta=0.70
     Davidson diagonalization with overlap
     ethr =  8.41E-06,  avg # of iterations = 12.0

     negative rho (up, down):  1.015E-03 0.000E+00

     total cpu time spent up to now is        8.9 secs

     total energy              =     -34.17849732 Ry
     Harris-Foulkes estimate   =     -34.17845237 Ry
     estimated scf accuracy    <       0.00067872 Ry

     iteration #  3     ecut=    90.00 Ry     beta=0.70
     Davidson diagonalization with overlap
     ethr =  8.41E-06,  avg # of iterations =  4.0

     negative rho (up, down):  1.451E-04 0.000E+00

     total cpu time spent up to now is        9.2 secs

     total energy              =     -34.18278493 Ry
     Harris-Foulkes estimate   =     -34.18271583 Ry
     estimated scf accuracy    <       0.00000564 Ry

     iteration #  4     ecut=    90.00 Ry     beta=0.70
     Davidson diagonalization with overlap
     ethr =  7.05E-08,  avg # of iterations =  5.0

     negative rho (up, down):  6.315E-06 0.000E+00

     total cpu time spent up to now is        9.4 secs

     total energy              =     -34.18278624 Ry
     Harris-Foulkes estimate   =     -34.18278845 Ry
     estimated scf accuracy    <       0.00000018 Ry

     iteration #  5     ecut=    90.00 Ry     beta=0.70
     Davidson diagonalization with overlap
     ethr =  2.25E-09,  avg # of iterations =  3.0

     total cpu time spent up to now is        9.6 secs

     total energy              =     -34.18278587 Ry
     Harris-Foulkes estimate   =     -34.18278634 Ry
     estimated scf accuracy    <          8.1E-09 Ry

     iteration #  6     ecut=    90.00 Ry     beta=0.70
     Davidson diagonalization with overlap
     ethr =  1.02E-10,  avg # of iterations =  2.0

     total cpu time spent up to now is        9.8 secs

     End of self-consistent calculation

          k = 0.0000 0.0000 0.0000 (115313 PWs)   bands (ev):

   -25.2356 -12.6711  -9.3367  -7.1082  -0.9340   0.4283   0.7834   1.1508

     the Fermi energy is    -5.1056 ev

!    total energy              =     -34.18278583 Ry
     Harris-Foulkes estimate   =     -34.18278588 Ry
     estimated scf accuracy    <          2.8E-10 Ry

     The total energy is the sum of the following terms:

     one-electron contribution =     -63.85030983 Ry
     hartree contribution      =      33.33739451 Ry
     xc contribution           =      -8.36932902 Ry
     ewald contribution        =       4.69945851 Ry
     smearing contrib. (-TS)   =       0.00000000 Ry

     convergence has been achieved in   6 iterations

     Forces acting on atoms (Ry/au):

     atom    1 type  1   force =     0.00422976    0.01193117   -0.00337984
     atom    2 type  1   force =    -0.00928866   -0.02581948    0.01003377
     atom    3 type  2   force =     0.00505890    0.01388831   -0.00665393

     Total force =     0.035889     Total SCF correction =     0.000030

     number of scf cycles    =   4
     number of bfgs steps    =   3

     energy   old            =     -34.1817927228 Ry
     energy   new            =     -34.1827858286 Ry

     CASE: energy  _new < energy  _old

     new trust radius        =       0.0313915340 bohr
     new conv_thr            =       0.0000000010 Ry


ATOMIC_POSITIONS (angstrom)
H        0.313779128   0.756209553   0.609637027
H       -0.218946154  -0.672090377   0.663356386
O        0.012472027   0.033885824   0.025659586



     Writing output data file pwscf.save
     Check: negative starting charge=   -0.016014
     NEW-OLD atomic charge density approx. for the potential
     Check: negative starting charge=   -0.015993

     negative rho (up, down):  2.628E-03 0.000E+00

     total cpu time spent up to now is       10.5 secs

     per-process dynamical memory:    45.8 Mb

     Self-consistent Calculation

     iteration #  1     ecut=    90.00 Ry     beta=0.70
     Davidson diagonalization with overlap
     ethr =  1.00E-06,  avg # of iterations = 16.0

     negative rho (up, down):  6.782E-04 0.000E+00

     total cpu time spent up to now is       10.9 secs

     total energy              =     -34.17942609 Ry
     Harris-Foulkes estimate   =     -34.17801988 Ry
     estimated scf accuracy    <       0.00009604 Ry

     iteration #  2     ecut=    90.00 Ry     beta=0.70
     Davidson diagonalization with overlap
     ethr =  1.20E-06,  avg # of iterations = 15.0

     negative rho (up, down):  2.549E-04 0.000E+00

     total cpu time spent up to now is       11.2 secs

     total energy              =     -34.18353291 Ry
     Harris-Foulkes estimate   =     -34.18352785 Ry
     estimated scf accuracy    <       0.00001801 Ry

     iteration #  3     ecut=    90.00 Ry     beta=0.70
     Davidson diagonalization with overlap
     ethr =  2.25E-07,  avg # of iterations =  3.0

     negative rho (up, down):  4.136E-05 0.000E+00

     total cpu time spent up to now is       11.4 secs

     total energy              =     -34.18353797 Ry
     Harris-Foulkes estimate   =     -34.18354094 Ry
     estimated scf accuracy    <       0.00000759 Ry

     iteration #  4     ecut=    90.00 Ry     beta=0.70
     Davidson diagonalization with overlap
     ethr =  9.49E-08,  avg # of iterations =  3.0

     negative rho (up, down):  4.394E-07 0.000E+00

     total cpu time spent up to now is       11.6 secs

     total energy              =     -34.18353885 Ry
     Harris-Foulkes estimate   =     -34.18353970 Ry
     estimated scf accuracy    <       0.00000016 Ry

     iteration #  5     ecut=    90.00 Ry     beta=0.70
     Davidson diagonalization with overlap
     ethr =  1.97E-09,  avg # of iterations =  3.0

     total cpu time spent up to now is       11.8 secs

     total energy              =     -34.18353870 Ry
     Harris-Foulkes estimate   =     -34.18353891 Ry
     estimated scf accuracy    <          4.4E-09 Ry

     iteration #  6     ecut=    90.00 Ry     beta=0.70
     Davidson diagonalization with overlap
     ethr =  5.45E-11,  avg # of iterations =  3.0

     total cpu time spent up to now is       11.9 secs

     End of self-consistent calculation

          k = 0.0000 0.0000 0.0000 (115313 PWs)   bands (ev):

   -25.1494 -12.7340  -9.2268  -7.0895  -0.9404   0.4276   0.7684   1.1483

     the Fermi energy is    -5.0860 ev

!    total energy              =     -34.18353870 Ry
     Harris-Foulkes estimate   =     -34.18353871 Ry
     estimated scf accuracy    <          2.5E-10 Ry

     The total energy is the sum of the following terms:

     one-electron contribution =     -63.73853180 Ry
     hartree contribution      =      33.28732372 Ry
     xc contribution           =      -8.36122608 Ry
     ewald contribution        =       4.62889545 Ry
     smearing contrib. (-TS)   =       0.00000000 Ry

     convergence has been achieved in   6 iterations

     Forces acting on atoms (Ry/au):

     atom    1 type  1   force =     0.00333355    0.00876505    0.00256087
     atom    2 type  1   force =    -0.00217554   -0.00536795   -0.00009509
     atom    3 type  2   force =    -0.00115801   -0.00339711   -0.00246578

     Total force =     0.012125     Total SCF correction =     0.000056

     number of scf cycles    =   5
     number of bfgs steps    =   4

     energy   old            =     -34.1827858286 Ry
     energy   new            =     -34.1835386957 Ry

     CASE: energy  _new < energy  _old

     new trust radius        =       0.0157386990 bohr
     new conv_thr            =       0.0000000008 Ry


ATOMIC_POSITIONS (angstrom)
H        0.316461502   0.763886714   0.607839535
H       -0.221863189  -0.679180293   0.661561433
O        0.012706686   0.033298579   0.029252032



     Writing output data file pwscf.save
     Check: negative starting charge=   -0.015993
     NEW-OLD atomic charge density approx. for the potential
     Check: negative starting charge=   -0.015983

     negative rho (up, down):  1.032E-03 0.000E+00

     total cpu time spent up to now is       12.5 secs

     per-process dynamical memory:    45.8 Mb

     Self-consistent Calculation

     iteration #  1     ecut=    90.00 Ry     beta=0.70
     Davidson diagonalization with overlap
     ethr =  1.00E-06,  avg # of iterations =  5.0

     negative rho (up, down):  2.563E-04 0.000E+00

     total cpu time spent up to now is       12.8 secs

     total energy              =     -34.18364272 Ry
     Harris-Foulkes estimate   =     -34.18358438 Ry
     estimated scf accuracy    <       0.00002498 Ry

     iteration #  2     ecut=    90.00 Ry     beta=0.70
     Davidson diagonalization with overlap
     ethr =  3.12E-07,  avg # of iterations =  4.0

     negative rho (up, down):  1.120E-04 0.000E+00

     total cpu time spent up to now is       13.0 secs

     total energy              =     -34.18364673 Ry
     Harris-Foulkes estimate   =     -34.18365022 Ry
     estimated scf accuracy    <       0.00000831 Ry

     iteration #  3     ecut=    90.00 Ry     beta=0.70
     Davidson diagonalization with overlap
     ethr =  1.04E-07,  avg # of iterations =  2.0

     negative rho (up, down):  5.425E-06 0.000E+00

     total cpu time spent up to now is       13.2 secs

     total energy              =     -34.18364682 Ry
     Harris-Foulkes estimate   =     -34.18364985 Ry
     estimated scf accuracy    <       0.00000205 Ry

     iteration #  4     ecut=    90.00 Ry     beta=0.70
     Davidson diagonalization with overlap
     ethr =  2.56E-08,  avg # of iterations =  3.0

     negative rho (up, down):  1.229E-08 0.000E+00

     total cpu time spent up to now is       13.4 secs

     total energy              =     -34.18364695 Ry
     Harris-Foulkes estimate   =     -34.18364728 Ry
     estimated scf accuracy    <       0.00000001 Ry

     iteration #  5     ecut=    90.00 Ry     beta=0.70
     Davidson diagonalization with overlap
     ethr =  1.77E-10,  avg # of iterations =  2.0

     total cpu time spent up to now is       13.6 secs

     total energy              =     -34.18364685 Ry
     Harris-Foulkes estimate   =     -34.18364696 Ry
     estimated scf accuracy    <          7.6E-10 Ry

     iteration #  6     ecut=    90.00 Ry     beta=0.70
     Davidson diagonalization with overlap
     ethr =  9.52E-12,  avg # of iterations =  2.0

     total cpu time spent up to now is       13.7 secs

     End of self-consistent calculation

          k = 0.0000 0.0000 0.0000 (115313 PWs)   bands (ev):

   -25.0995 -12.7597  -9.1690  -7.0788  -0.9463   0.4262   0.7593   1.1468

     the Fermi energy is    -5.0747 ev

!    total energy              =     -34.18364682 Ry
     Harris-Foulkes estimate   =     -34.18364685 Ry
     estimated scf accuracy    <          5.3E-11 Ry

     The total energy is the sum of the following terms:

     one-electron contribution =     -63.66729839 Ry
     hartree contribution      =      33.25509152 Ry
     xc contribution           =      -8.35597321 Ry
     ewald contribution        =       4.58453326 Ry
     smearing contrib. (-TS)   =       0.00000000 Ry

     convergence has been achieved in   6 iterations

     Forces acting on atoms (Ry/au):

     atom    1 type  1   force =     0.00016485    0.00057812    0.00052910
     atom    2 type  1   force =    -0.00010085    0.00020771   -0.00048444
     atom    3 type  2   force =    -0.00006401   -0.00078583   -0.00004467

     Total force =     0.001246     Total SCF correction =     0.000011

     number of scf cycles    =   6
     number of bfgs steps    =   5

     energy   old            =     -34.1835386957 Ry
     energy   new            =     -34.1836468222 Ry

     CASE: energy  _new < energy  _old

     new trust radius        =       0.0006070054 bohr
     new conv_thr            =            1.0E-10 Ry


ATOMIC_POSITIONS (angstrom)
H        0.316532914   0.764182576   0.607942221
H       -0.222007492  -0.679308197   0.661358431
O        0.012779577   0.033130621   0.029352348



     Writing output data file pwscf.save
     Check: negative starting charge=   -0.015983
     NEW-OLD atomic charge density approx. for the potential
     Check: negative starting charge=   -0.015982

     negative rho (up, down):  2.905E-05 0.000E+00

     total cpu time spent up to now is       14.3 secs

     per-process dynamical memory:    45.8 Mb

     Self-consistent Calculation

     iteration #  1     ecut=    90.00 Ry     beta=0.70
     Davidson diagonalization with overlap
     ethr =  1.00E-06,  avg # of iterations =  2.0

     Threshold (ethr) on eigenvalues was too large:
     Diagonalizing with lowered threshold

     Davidson diagonalization with overlap
     ethr =  6.01E-10,  avg # of iterations =  3.0

     negative rho (up, down):  3.316E-06 0.000E+00

     total cpu time spent up to now is       14.6 secs

     total energy              =     -34.18364740 Ry
     Harris-Foulkes estimate   =     -34.18364748 Ry
     estimated scf accuracy    <       0.00000007 Ry

     iteration #  2     ecut=    90.00 Ry     beta=0.70
     Davidson diagonalization with overlap
     ethr =  8.80E-10,  avg # of iterations =  2.0

     negative rho (up, down):  5.332E-07 0.000E+00

     total cpu time spent up to now is       14.9 secs

     total energy              =     -34.18364736 Ry
     Harris-Foulkes estimate   =     -34.18364743 Ry
     estimated scf accuracy    <       0.00000001 Ry

     iteration #  3     ecut=    90.00 Ry     beta=0.70
     Davidson diagonalization with overlap
     ethr =  1.76E-10,  avg # of iterations =  2.0

     negative rho (up, down):  2.573E-08 0.000E+00

     total cpu time spent up to now is       15.1 secs

     total energy              =     -34.18364737 Ry
     Harris-Foulkes estimate   =     -34.18364736 Ry
     estimated scf accuracy    <          4.6E-09 Ry

     iteration #  4     ecut=    90.00 Ry     beta=0.70
     Davidson diagonalization with overlap
     ethr =  5.70E-11,  avg # of iterations =  2.0

     total cpu time spent up to now is       15.3 secs

     total energy              =     -34.18364736 Ry
     Harris-Foulkes estimate   =     -34.18364737 Ry
     estimated scf accuracy    <          1.2E-10 Ry

     iteration #  5     ecut=    90.00 Ry     beta=0.70
     Davidson diagonalization with overlap
     ethr =  1.53E-12,  avg # of iterations =  2.0

     total cpu time spent up to now is       15.5 secs

     End of self-consistent calculation

          k = 0.0000 0.0000 0.0000 (115313 PWs)   bands (ev):

   -25.0980 -12.7604  -9.1673  -7.0785  -0.9465   0.4260   0.7590   1.1466

     the Fermi energy is    -5.0744 ev

!    total energy              =     -34.18364737 Ry
     Harris-Foulkes estimate   =     -34.18364736 Ry
     estimated scf accuracy    <          4.3E-12 Ry

     The total energy is the sum of the following terms:

     one-electron contribution =     -63.66511268 Ry
     hartree contribution      =      33.25409252 Ry
     xc contribution           =      -8.35580978 Ry
     ewald contribution        =       4.58318257 Ry
     smearing contrib. (-TS)   =       0.00000000 Ry

     convergence has been achieved in   5 iterations

     Forces acting on atoms (Ry/au):

     atom    1 type  1   force =    -0.00006817   -0.00001030    0.00020401
     atom    2 type  1   force =    -0.00014666    0.00003618   -0.00020538
     atom    3 type  2   force =     0.00021482   -0.00002588    0.00000137

     Total force =     0.000398     Total SCF correction =     0.000020

     bfgs converged in   7 scf cycles and   6 bfgs steps
     (criteria: energy <  1.0E-04, force <  1.0E-03)

     End of BFGS Geometry Optimization

     Final energy   =     -34.1836473656 Ry
Begin final coordinates

ATOMIC_POSITIONS (angstrom)
H        0.316532914   0.764182576   0.607942221
H       -0.222007492  -0.679308197   0.661358431
O        0.012779577   0.033130621   0.029352348
End final coordinates



     Writing output data file pwscf.save
 
     init_run     :      0.51s CPU      0.55s WALL (       1 calls)
     electrons    :     10.38s CPU     12.32s WALL (       7 calls)
     update_pot   :      1.45s CPU      1.71s WALL (       6 calls)
     forces       :      0.47s CPU      0.47s WALL (       7 calls)

     Called by init_run:
     wfcinit      :      0.03s CPU      0.04s WALL (       1 calls)
     potinit      :      0.11s CPU      0.12s WALL (       1 calls)

     Called by electrons:
     c_bands      :      5.09s CPU      5.32s WALL (      46 calls)
     sum_band     :      1.07s CPU      1.19s WALL (      46 calls)
     v_of_rho     :      2.66s CPU      2.72s WALL (      52 calls)
     mix_rho      :      1.14s CPU      1.96s WALL (      46 calls)

     Called by c_bands:
     init_us_2    :      0.02s CPU      0.03s WALL (      93 calls)
     cegterg      :      5.06s CPU      5.26s WALL (      46 calls)

     Called by sum_band:

     Called by *egterg:
     h_psi        :      4.31s CPU      4.36s WALL (     320 calls)
     g_psi        :      0.04s CPU      0.04s WALL (     273 calls)
     cdiaghg      :      0.08s CPU      0.10s WALL (     312 calls)

     Called by h_psi:
     h_psi:pot    :      4.27s CPU      4.32s WALL (     320 calls)
     h_psi:calbec :      0.05s CPU      0.05s WALL (     320 calls)
     vloc_psi     :      4.19s CPU      4.23s WALL (     320 calls)
     add_vuspsi   :      0.03s CPU      0.03s WALL (     320 calls)

     General routines
     calbec       :      0.05s CPU      0.05s WALL (     348 calls)
     fft          :      1.89s CPU      1.96s WALL (     587 calls)
     fftw         :      4.26s CPU      4.41s WALL (    3270 calls)
     davcio       :      0.11s CPU      0.79s WALL (     320 calls)
 
     Parallel routines
     fft_scatter  :      2.25s CPU      2.43s WALL (    3857 calls)
 
     PWSCF        :    13.30s CPU        15.90s WALL

 
   This run was terminated on:   2:46:34  28Jul2018            

=------------------------------------------------------------------------------=
   JOB DONE.
=------------------------------------------------------------------------------=
