
     Program PWSCF v.6.0 (svn rev. 13079) starts on 28Jul2018 at  2:31: 6 

     This program is part of the open-source Quantum ESPRESSO suite
     for quantum simulation of materials; please cite
         "P. Giannozzi et al., J. Phys.:Condens. Matter 21 395502 (2009);
          URL http://www.quantum-espresso.org", 
     in publications or presentations arising from this work. More details at
     http://www.quantum-espresso.org/quote

     Parallel version (MPI), running on    28 processors
     R & G space division:  proc/nbgrp/npool/nimage =      28
     Reading input from ../QMCmins/relax-47.in

     Current dimensions of program PWSCF are:
     Max number of different atomic species (ntypx) = 10
     Max number of k-points (npk) =  40000
     Max angular momentum in pseudopotentials (lmaxx) =  3
     Message from routine iosys:
     pot_extrapolation='second-order' not available, using 'atomic'
     Message from routine iosys:
     wfc_extrapolation='second-order' not available, using 'atomic'

     Subspace diagonalization in iterative solution of the eigenvalue problem:
     a serial algorithm will be used

 
     Parallelization info
     --------------------
     sticks:   dense  smooth     PW     G-vecs:    dense   smooth      PW
     Min         408     408    102                32936    32936    4116
     Max         409     409    103                32943    32943    4121
     Sum       11449   11449   2869               922329   922329  115313
 


     bravais-lattice index     =            1
     lattice parameter (alat)  =      20.0000  a.u.
     unit-cell volume          =    8000.0000 (a.u.)^3
     number of atoms/cell      =            3
     number of atomic types    =            2
     number of electrons       =         8.00
     number of Kohn-Sham states=            8
     kinetic-energy cutoff     =      90.0000  Ry
     charge density cutoff     =     360.0000  Ry
     convergence threshold     =      1.0E-08
     mixing beta               =       0.7000
     number of iterations used =            8  plain     mixing
     Exchange-correlation      = BLYP ( 1  3  1  3 0 0)
     nstep                     =           50


     celldm(1)=  20.000000  celldm(2)=   0.000000  celldm(3)=   0.000000
     celldm(4)=   0.000000  celldm(5)=   0.000000  celldm(6)=   0.000000

     crystal axes: (cart. coord. in units of alat)
               a(1) = (   1.000000   0.000000   0.000000 )  
               a(2) = (   0.000000   1.000000   0.000000 )  
               a(3) = (   0.000000   0.000000   1.000000 )  

     reciprocal axes: (cart. coord. in units 2 pi/alat)
               b(1) = (  1.000000  0.000000  0.000000 )  
               b(2) = (  0.000000  1.000000  0.000000 )  
               b(3) = (  0.000000  0.000000  1.000000 )  


     PseudoPot. # 1 for  H read from file:
     ../H.blyp-hgh.UPF
     MD5 check sum: c576e69559cde411e611be972c763230
     Pseudo is Norm-conserving, Zval =  1.0
     Generated in analytical, separable form
     Using radial grid of  929 points,  0 beta functions with: 

     PseudoPot. # 2 for  O read from file:
     ../O.blyp-hgh.UPF
     MD5 check sum: d0b7156309aa9befef28faac7bc56342
     Pseudo is Norm-conserving, Zval =  6.0
     Generated in analytical, separable form
     Using radial grid of 1095 points,  1 beta functions with: 
                l(1) =   0

     atomic species   valence    mass     pseudopotential
        H              1.00     1.01000      H( 1.00)
        O              6.00    16.00000      O( 1.00)

     No symmetry found



   Cartesian axes

     site n.     atom                  positions (alat units)
         1           H   tau(   1) = (  -0.0143157  -0.0769448  -0.0207251  )
         2           H   tau(   2) = (  -0.0277559   0.0603755  -0.0649449  )
         3           O   tau(   3) = (   0.0026557   0.0010460   0.0109859  )

     number of k points=     1  Marzari-Vanderbilt smearing, width (Ry)=  0.0250
                       cart. coord. in units 2pi/alat
        k(    1) = (   0.0000000   0.0000000   0.0000000), wk =   2.0000000

     Dense  grid:   922329 G-vectors     FFT dimensions: ( 125, 125, 125)

     Estimated max dynamical RAM per process >      31.67Mb

     Estimated total allocated dynamical RAM >     886.64Mb

     Initial potential from superposition of free atoms
     Check: negative starting charge=   -0.015955

     starting charge    7.99998, renormalised to    8.00000

     negative rho (up, down):  1.596E-02 0.000E+00
     Starting wfc are    6 randomized atomic wfcs +    2 random wfc

     total cpu time spent up to now is        0.7 secs

     per-process dynamical memory:    33.5 Mb

     Self-consistent Calculation

     iteration #  1     ecut=    90.00 Ry     beta=0.70
     Davidson diagonalization with overlap
     ethr =  1.00E-02,  avg # of iterations =  8.0

     negative rho (up, down):  4.652E-03 0.000E+00

     total cpu time spent up to now is        1.0 secs

     total energy              =     -34.00984673 Ry
     Harris-Foulkes estimate   =     -34.25198299 Ry
     estimated scf accuracy    <       0.36348404 Ry

     iteration #  2     ecut=    90.00 Ry     beta=0.70
     Davidson diagonalization with overlap
     ethr =  4.54E-03,  avg # of iterations =  2.0

     negative rho (up, down):  2.858E-03 0.000E+00

     total cpu time spent up to now is        1.2 secs

     total energy              =     -34.06431489 Ry
     Harris-Foulkes estimate   =     -34.26021724 Ry
     estimated scf accuracy    <       0.42654371 Ry

     iteration #  3     ecut=    90.00 Ry     beta=0.70
     Davidson diagonalization with overlap
     ethr =  4.54E-03,  avg # of iterations =  2.0

     negative rho (up, down):  1.733E-04 0.000E+00

     total cpu time spent up to now is        1.4 secs

     total energy              =     -34.15897681 Ry
     Harris-Foulkes estimate   =     -34.15998121 Ry
     estimated scf accuracy    <       0.00631383 Ry

     iteration #  4     ecut=    90.00 Ry     beta=0.70
     Davidson diagonalization with overlap
     ethr =  7.89E-05,  avg # of iterations =  6.0

     negative rho (up, down):  3.789E-06 0.000E+00

     total cpu time spent up to now is        1.6 secs

     total energy              =     -34.16075268 Ry
     Harris-Foulkes estimate   =     -34.16090232 Ry
     estimated scf accuracy    <       0.00038924 Ry

     iteration #  5     ecut=    90.00 Ry     beta=0.70
     Davidson diagonalization with overlap
     ethr =  4.87E-06,  avg # of iterations = 20.0

     negative rho (up, down):  2.215E-07 0.000E+00

     total cpu time spent up to now is        1.9 secs

     total energy              =     -34.16077398 Ry
     Harris-Foulkes estimate   =     -34.16078354 Ry
     estimated scf accuracy    <       0.00003048 Ry

     iteration #  6     ecut=    90.00 Ry     beta=0.70
     Davidson diagonalization with overlap
     ethr =  3.81E-07,  avg # of iterations = 10.0

     negative rho (up, down):  4.428E-07 0.000E+00

     total cpu time spent up to now is        2.2 secs

     total energy              =     -34.16077759 Ry
     Harris-Foulkes estimate   =     -34.16077738 Ry
     estimated scf accuracy    <       0.00000114 Ry

     iteration #  7     ecut=    90.00 Ry     beta=0.70
     Davidson diagonalization with overlap
     ethr =  1.43E-08,  avg # of iterations =  2.0

     total cpu time spent up to now is        2.4 secs

     total energy              =     -34.16077758 Ry
     Harris-Foulkes estimate   =     -34.16077775 Ry
     estimated scf accuracy    <       0.00000002 Ry

     iteration #  8     ecut=    90.00 Ry     beta=0.70
     Davidson diagonalization with overlap
     ethr =  2.76E-10,  avg # of iterations =  2.0

     total cpu time spent up to now is        2.5 secs

     End of self-consistent calculation

          k = 0.0000 0.0000 0.0000 (115313 PWs)   bands (ev):

   -25.1821 -12.5670  -9.2641  -7.0827  -1.0571   0.3568   0.7660   1.1128

     the Fermi energy is    -5.1208 ev

!    total energy              =     -34.16077747 Ry
     Harris-Foulkes estimate   =     -34.16077759 Ry
     estimated scf accuracy    <          6.1E-09 Ry

     The total energy is the sum of the following terms:

     one-electron contribution =     -63.57951146 Ry
     hartree contribution      =      33.20984088 Ry
     xc contribution           =      -8.35244123 Ry
     ewald contribution        =       4.56133433 Ry
     smearing contrib. (-TS)   =       0.00000000 Ry

     convergence has been achieved in   8 iterations

     Forces acting on atoms (Ry/au):

     atom    1 type  1   force =    -0.03307488   -0.16223124   -0.06074920
     atom    2 type  1   force =     0.03819108   -0.06909700    0.09490829
     atom    3 type  2   force =    -0.00511620    0.23132825   -0.03415909

     Total force =     0.317883     Total SCF correction =     0.000041

     BFGS Geometry Optimization

     number of scf cycles    =   1
     number of bfgs steps    =   0

     energy   new            =     -34.1607774716 Ry

     new trust radius        =       0.2338926615 bohr
     new conv_thr            =       0.0000000100 Ry


ATOMIC_POSITIONS (angstrom)
H       -0.169013474  -0.900198077  -0.251492091
H       -0.273546149   0.602422441  -0.637123696
O        0.025399623   0.133483636   0.098193787



     Writing output data file pwscf.save
     Check: negative starting charge=   -0.015955
     NEW-OLD atomic charge density approx. for the potential
     Check: negative starting charge=   -0.015924

     negative rho (up, down):  2.912E-02 0.000E+00

     total cpu time spent up to now is        3.3 secs

     per-process dynamical memory:    45.8 Mb

     Self-consistent Calculation

     iteration #  1     ecut=    90.00 Ry     beta=0.70
     Davidson diagonalization with overlap
     ethr =  1.00E-06,  avg # of iterations = 20.0

     negative rho (up, down):  7.569E-03 0.000E+00

     total cpu time spent up to now is        3.8 secs

     total energy              =     -34.13694747 Ry
     Harris-Foulkes estimate   =     -34.13457646 Ry
     estimated scf accuracy    <       0.01849771 Ry

     iteration #  2     ecut=    90.00 Ry     beta=0.70
     Davidson diagonalization with overlap
     ethr =  2.31E-04,  avg # of iterations =  4.0

     negative rho (up, down):  2.879E-03 0.000E+00

     total cpu time spent up to now is        4.0 secs

     total energy              =     -34.14763877 Ry
     Harris-Foulkes estimate   =     -34.14198175 Ry
     estimated scf accuracy    <       0.00175356 Ry

     iteration #  3     ecut=    90.00 Ry     beta=0.70
     Davidson diagonalization with overlap
     ethr =  2.19E-05,  avg # of iterations = 12.0

     negative rho (up, down):  9.548E-04 0.000E+00

     total cpu time spent up to now is        4.3 secs

     total energy              =     -34.14988686 Ry
     Harris-Foulkes estimate   =     -34.14812724 Ry
     estimated scf accuracy    <       0.00026044 Ry

     iteration #  4     ecut=    90.00 Ry     beta=0.70
     Davidson diagonalization with overlap
     ethr =  3.26E-06,  avg # of iterations =  8.0

     negative rho (up, down):  4.946E-05 0.000E+00

     total cpu time spent up to now is        4.6 secs

     total energy              =     -34.14999724 Ry
     Harris-Foulkes estimate   =     -34.15000342 Ry
     estimated scf accuracy    <       0.00011354 Ry

     iteration #  5     ecut=    90.00 Ry     beta=0.70
     Davidson diagonalization with overlap
     ethr =  1.42E-06,  avg # of iterations =  6.0

     total cpu time spent up to now is        4.9 secs

     total energy              =     -34.15409717 Ry
     Harris-Foulkes estimate   =     -34.15409770 Ry
     estimated scf accuracy    <       0.00000055 Ry

     iteration #  6     ecut=    90.00 Ry     beta=0.70
     Davidson diagonalization with overlap
     ethr =  6.87E-09,  avg # of iterations =  2.0

     negative rho (up, down):  5.132E-08 0.000E+00

     total cpu time spent up to now is        5.1 secs

     total energy              =     -34.15409740 Ry
     Harris-Foulkes estimate   =     -34.15409743 Ry
     estimated scf accuracy    <       0.00000003 Ry

     iteration #  7     ecut=    90.00 Ry     beta=0.70
     Davidson diagonalization with overlap
     ethr =  3.28E-10,  avg # of iterations =  2.0

     total cpu time spent up to now is        5.2 secs

     End of self-consistent calculation

          k = 0.0000 0.0000 0.0000 (115313 PWs)   bands (ev):

   -24.9783 -12.2630  -9.3105  -7.0479  -1.1898   0.3030   0.7214   1.1060

     the Fermi energy is    -5.0749 ev

!    total energy              =     -34.15409743 Ry
     Harris-Foulkes estimate   =     -34.15409741 Ry
     estimated scf accuracy    <          2.6E-09 Ry

     The total energy is the sum of the following terms:

     one-electron contribution =     -63.03644715 Ry
     hartree contribution      =      32.94726178 Ry
     xc contribution           =      -8.31111046 Ry
     ewald contribution        =       4.24619840 Ry
     smearing contrib. (-TS)   =       0.00000000 Ry

     convergence has been achieved in   7 iterations

     Forces acting on atoms (Ry/au):

     atom    1 type  1   force =     0.02917193    0.14055421    0.05338868
     atom    2 type  1   force =    -0.04402920    0.07866994   -0.10957597
     atom    3 type  2   force =     0.01485727   -0.21922415    0.05618729

     Total force =     0.308267     Total SCF correction =     0.000091

     number of scf cycles    =   2
     number of bfgs steps    =   1

     energy   old            =     -34.1607774716 Ry
     energy   new            =     -34.1540974257 Ry

     CASE: energy  _new > energy  _old

     new trust radius        =       0.1096947883 bohr
     new conv_thr            =       0.0000000100 Ry


ATOMIC_POSITIONS (angstrom)
H       -0.159719595  -0.854611898  -0.234421866
H       -0.284277655   0.621838358  -0.663792457
O        0.026837250   0.068481540   0.107792323



     Writing output data file pwscf.save
     Check: negative starting charge=   -0.015924
     NEW-OLD atomic charge density approx. for the potential
     Check: negative starting charge=   -0.015978

     negative rho (up, down):  2.121E-02 0.000E+00

     total cpu time spent up to now is        5.9 secs

     per-process dynamical memory:    45.8 Mb

     Self-consistent Calculation

     iteration #  1     ecut=    90.00 Ry     beta=0.70
     Davidson diagonalization with overlap
     ethr =  1.00E-06,  avg # of iterations = 15.0

     negative rho (up, down):  5.590E-03 0.000E+00

     total cpu time spent up to now is        6.4 secs

     total energy              =     -34.16958120 Ry
     Harris-Foulkes estimate   =     -34.16161828 Ry
     estimated scf accuracy    <       0.00539769 Ry

     iteration #  2     ecut=    90.00 Ry     beta=0.70
     Davidson diagonalization with overlap
     ethr =  6.75E-05,  avg # of iterations =  5.0

     negative rho (up, down):  2.671E-03 0.000E+00

     total cpu time spent up to now is        6.7 secs

     total energy              =     -34.17593882 Ry
     Harris-Foulkes estimate   =     -34.17247273 Ry
     estimated scf accuracy    <       0.00157440 Ry

     iteration #  3     ecut=    90.00 Ry     beta=0.70
     Davidson diagonalization with overlap
     ethr =  1.97E-05,  avg # of iterations =  5.0

     negative rho (up, down):  1.091E-03 0.000E+00

     total cpu time spent up to now is        6.9 secs

     total energy              =     -34.17787338 Ry
     Harris-Foulkes estimate   =     -34.17647712 Ry
     estimated scf accuracy    <       0.00032578 Ry

     iteration #  4     ecut=    90.00 Ry     beta=0.70
     Davidson diagonalization with overlap
     ethr =  4.07E-06,  avg # of iterations =  8.0

     negative rho (up, down):  2.169E-05 0.000E+00

     total cpu time spent up to now is        7.2 secs

     total energy              =     -34.18211896 Ry
     Harris-Foulkes estimate   =     -34.18203423 Ry
     estimated scf accuracy    <       0.00001518 Ry

     iteration #  5     ecut=    90.00 Ry     beta=0.70
     Davidson diagonalization with overlap
     ethr =  1.90E-07,  avg # of iterations =  6.0

     negative rho (up, down):  5.169E-07 0.000E+00

     total cpu time spent up to now is        7.4 secs

     total energy              =     -34.18212291 Ry
     Harris-Foulkes estimate   =     -34.18212336 Ry
     estimated scf accuracy    <       0.00000014 Ry

     iteration #  6     ecut=    90.00 Ry     beta=0.70
     Davidson diagonalization with overlap
     ethr =  1.75E-09,  avg # of iterations =  2.0

     total cpu time spent up to now is        7.6 secs

     End of self-consistent calculation

          k = 0.0000 0.0000 0.0000 (115313 PWs)   bands (ev):

   -24.9365 -12.4528  -9.2748  -7.0551  -1.0138   0.4046   0.7154   1.1105

     the Fermi energy is    -5.0611 ev

!    total energy              =     -34.18212291 Ry
     Harris-Foulkes estimate   =     -34.18212296 Ry
     estimated scf accuracy    <          8.9E-09 Ry

     The total energy is the sum of the following terms:

     one-electron contribution =     -63.22955735 Ry
     hartree contribution      =      33.04214414 Ry
     xc contribution           =      -8.32123836 Ry
     ewald contribution        =       4.32652866 Ry
     smearing contrib. (-TS)   =       0.00000000 Ry

     convergence has been achieved in   6 iterations

     Forces acting on atoms (Ry/au):

     atom    1 type  1   force =     0.00853582    0.03002113    0.01607565
     atom    2 type  1   force =     0.01069978   -0.01148281    0.02526682
     atom    3 type  2   force =    -0.01923560   -0.01853832   -0.04134248

     Total force =     0.067381     Total SCF correction =     0.000295

     number of scf cycles    =   3
     number of bfgs steps    =   1

     energy   old            =     -34.1607774716 Ry
     energy   new            =     -34.1821229078 Ry

     CASE: energy  _new < energy  _old

     new trust radius        =       0.0455452057 bohr
     new conv_thr            =       0.0000000041 Ry


ATOMIC_POSITIONS (angstrom)
H       -0.156558056  -0.845060900  -0.228415029
H       -0.277593266   0.613704349  -0.647846358
O        0.016991322   0.067064551   0.085839387



     Writing output data file pwscf.save
     Check: negative starting charge=   -0.015978
     NEW-OLD atomic charge density approx. for the potential
     Check: negative starting charge=   -0.015995

     negative rho (up, down):  8.200E-03 0.000E+00

     total cpu time spent up to now is        8.3 secs

     per-process dynamical memory:    45.8 Mb

     Self-consistent Calculation

     iteration #  1     ecut=    90.00 Ry     beta=0.70
     Davidson diagonalization with overlap
     ethr =  1.00E-06,  avg # of iterations = 20.0

     negative rho (up, down):  2.151E-03 0.000E+00

     total cpu time spent up to now is        9.0 secs

     total energy              =     -34.17664475 Ry
     Harris-Foulkes estimate   =     -34.17188136 Ry
     estimated scf accuracy    <       0.00242256 Ry

     iteration #  2     ecut=    90.00 Ry     beta=0.70
     Davidson diagonalization with overlap
     ethr =  3.03E-05,  avg # of iterations =  6.0

     negative rho (up, down):  1.347E-03 0.000E+00

     total cpu time spent up to now is        9.2 secs

     total energy              =     -34.17803959 Ry
     Harris-Foulkes estimate   =     -34.17858413 Ry
     estimated scf accuracy    <       0.00266690 Ry

     iteration #  3     ecut=    90.00 Ry     beta=0.70
     Davidson diagonalization with overlap
     ethr =  3.03E-05,  avg # of iterations =  9.0

     negative rho (up, down):  2.790E-04 0.000E+00

     total cpu time spent up to now is        9.5 secs

     total energy              =     -34.17875280 Ry
     Harris-Foulkes estimate   =     -34.17857279 Ry
     estimated scf accuracy    <       0.00001120 Ry

     iteration #  4     ecut=    90.00 Ry     beta=0.70
     Davidson diagonalization with overlap
     c_bands:  1 eigenvalues not converged
     ethr =  1.40E-07,  avg # of iterations = 20.0

     negative rho (up, down):  3.029E-05 0.000E+00

     total cpu time spent up to now is        9.8 secs

     total energy              =     -34.18284031 Ry
     Harris-Foulkes estimate   =     -34.18283868 Ry
     estimated scf accuracy    <       0.00000047 Ry

     iteration #  5     ecut=    90.00 Ry     beta=0.70
     Davidson diagonalization with overlap
     ethr =  5.85E-09,  avg # of iterations =  3.0

     total cpu time spent up to now is       10.0 secs

     total energy              =     -34.18283911 Ry
     Harris-Foulkes estimate   =     -34.18284047 Ry
     estimated scf accuracy    <       0.00000002 Ry

     iteration #  6     ecut=    90.00 Ry     beta=0.70
     Davidson diagonalization with overlap
     ethr =  2.78E-10,  avg # of iterations =  2.0

     total cpu time spent up to now is       10.2 secs

     End of self-consistent calculation

          k = 0.0000 0.0000 0.0000 (115313 PWs)   bands (ev):

   -25.2165 -12.8369  -9.2001  -7.0982  -0.9197   0.4341   0.7794   1.1168

     the Fermi energy is    -5.1264 ev

!    total energy              =     -34.18283898 Ry
     Harris-Foulkes estimate   =     -34.18283913 Ry
     estimated scf accuracy    <          6.0E-10 Ry

     The total energy is the sum of the following terms:

     one-electron contribution =     -63.90025700 Ry
     hartree contribution      =      33.36542329 Ry
     xc contribution           =      -8.37400532 Ry
     ewald contribution        =       4.72600004 Ry
     smearing contrib. (-TS)   =       0.00000000 Ry

     convergence has been achieved in   6 iterations

     Forces acting on atoms (Ry/au):

     atom    1 type  1   force =     0.00180964   -0.00151982    0.00076471
     atom    2 type  1   force =    -0.01060732    0.02455295   -0.03019237
     atom    3 type  2   force =     0.00879768   -0.02303314    0.02942766

     Total force =     0.055741     Total SCF correction =     0.000085

     number of scf cycles    =   4
     number of bfgs steps    =   2

     energy   old            =     -34.1821229078 Ry
     energy   new            =     -34.1828389753 Ry

     CASE: energy  _new < energy  _old

     new trust radius        =       0.0202118884 bohr
     new conv_thr            =       0.0000000007 Ry


ATOMIC_POSITIONS (angstrom)
H       -0.156229023  -0.846898796  -0.228603779
H       -0.280284450   0.620383759  -0.655754606
O        0.019353473   0.062223037   0.093936385



     Writing output data file pwscf.save
     Check: negative starting charge=   -0.015995
     NEW-OLD atomic charge density approx. for the potential
     Check: negative starting charge=   -0.015989

     negative rho (up, down):  3.093E-03 0.000E+00

     total cpu time spent up to now is       10.8 secs

     per-process dynamical memory:    45.8 Mb

     Self-consistent Calculation

     iteration #  1     ecut=    90.00 Ry     beta=0.70
     Davidson diagonalization with overlap
     c_bands:  1 eigenvalues not converged
     ethr =  1.00E-06,  avg # of iterations = 20.0

     negative rho (up, down):  7.985E-04 0.000E+00

     total cpu time spent up to now is       11.3 secs

     total energy              =     -34.17933861 Ry
     Harris-Foulkes estimate   =     -34.17749852 Ry
     estimated scf accuracy    <       0.00032626 Ry

     iteration #  2     ecut=    90.00 Ry     beta=0.70
     Davidson diagonalization with overlap
     ethr =  4.08E-06,  avg # of iterations = 16.0

     negative rho (up, down):  4.738E-04 0.000E+00

     total cpu time spent up to now is       11.6 secs

     total energy              =     -34.18349612 Ry
     Harris-Foulkes estimate   =     -34.18361867 Ry
     estimated scf accuracy    <       0.00026595 Ry

     iteration #  3     ecut=    90.00 Ry     beta=0.70
     Davidson diagonalization with overlap
     ethr =  3.32E-06,  avg # of iterations =  2.0

     negative rho (up, down):  1.091E-04 0.000E+00

     total cpu time spent up to now is       11.8 secs

     total energy              =     -34.18356094 Ry
     Harris-Foulkes estimate   =     -34.18355837 Ry
     estimated scf accuracy    <       0.00000538 Ry

     iteration #  4     ecut=    90.00 Ry     beta=0.70
     Davidson diagonalization with overlap
     ethr =  6.73E-08,  avg # of iterations =  4.0

     negative rho (up, down):  6.606E-06 0.000E+00

     total cpu time spent up to now is       12.0 secs

     total energy              =     -34.18356533 Ry
     Harris-Foulkes estimate   =     -34.18356261 Ry
     estimated scf accuracy    <       0.00000012 Ry

     iteration #  5     ecut=    90.00 Ry     beta=0.70
     Davidson diagonalization with overlap
     ethr =  1.46E-09,  avg # of iterations =  3.0

     negative rho (up, down):  1.205E-08 0.000E+00

     total cpu time spent up to now is       12.3 secs

     total energy              =     -34.18356545 Ry
     Harris-Foulkes estimate   =     -34.18356539 Ry
     estimated scf accuracy    <          4.9E-09 Ry

     iteration #  6     ecut=    90.00 Ry     beta=0.70
     Davidson diagonalization with overlap
     ethr =  6.11E-11,  avg # of iterations =  2.0

     total cpu time spent up to now is       12.4 secs

     End of self-consistent calculation

          k = 0.0000 0.0000 0.0000 (115313 PWs)   bands (ev):

   -25.1107 -12.7175  -9.2094  -7.0814  -0.9495   0.4249   0.7586   1.1154

     the Fermi energy is    -5.1010 ev

!    total energy              =     -34.18356553 Ry
     Harris-Foulkes estimate   =     -34.18356546 Ry
     estimated scf accuracy    <          2.6E-10 Ry

     The total energy is the sum of the following terms:

     one-electron contribution =     -63.66326732 Ry
     hartree contribution      =      33.25183176 Ry
     xc contribution           =      -8.35535490 Ry
     ewald contribution        =       4.58322493 Ry
     smearing contrib. (-TS)   =       0.00000000 Ry

     convergence has been achieved in   6 iterations

     Forces acting on atoms (Ry/au):

     atom    1 type  1   force =     0.00119502   -0.00187519    0.00111689
     atom    2 type  1   force =     0.00127019    0.00184454    0.00117837
     atom    3 type  2   force =    -0.00246521    0.00003065   -0.00229526

     Total force =     0.004893     Total SCF correction =     0.000157

     number of scf cycles    =   5
     number of bfgs steps    =   3

     energy   old            =     -34.1828389753 Ry
     energy   new            =     -34.1835655340 Ry

     CASE: energy  _new < energy  _old

     new trust radius        =       0.0028438746 bohr
     new conv_thr            =       0.0000000002 Ry


ATOMIC_POSITIONS (angstrom)
H       -0.155576700  -0.847889901  -0.228000532
H       -0.279739990   0.621644323  -0.655486149
O        0.018156690   0.061953578   0.093064682



     Writing output data file pwscf.save
     Check: negative starting charge=   -0.015989
     NEW-OLD atomic charge density approx. for the potential
     Check: negative starting charge=   -0.015988

     negative rho (up, down):  3.788E-04 0.000E+00

     total cpu time spent up to now is       13.0 secs

     per-process dynamical memory:    45.8 Mb

     Self-consistent Calculation

     iteration #  1     ecut=    90.00 Ry     beta=0.70
     Davidson diagonalization with overlap
     ethr =  1.00E-06,  avg # of iterations =  5.0

     Threshold (ethr) on eigenvalues was too large:
     Diagonalizing with lowered threshold

     Davidson diagonalization with overlap
     ethr =  2.25E-08,  avg # of iterations =  2.0

     negative rho (up, down):  8.575E-05 0.000E+00

     total cpu time spent up to now is       13.6 secs

     total energy              =     -34.18358391 Ry
     Harris-Foulkes estimate   =     -34.18357893 Ry
     estimated scf accuracy    <       0.00000155 Ry

     iteration #  2     ecut=    90.00 Ry     beta=0.70
     Davidson diagonalization with overlap
     ethr =  1.94E-08,  avg # of iterations =  3.0

     negative rho (up, down):  3.647E-05 0.000E+00

     total cpu time spent up to now is       13.8 secs

     total energy              =     -34.18358419 Ry
     Harris-Foulkes estimate   =     -34.18358452 Ry
     estimated scf accuracy    <       0.00000067 Ry

     iteration #  3     ecut=    90.00 Ry     beta=0.70
     Davidson diagonalization with overlap
     ethr =  8.41E-09,  avg # of iterations =  2.0

     negative rho (up, down):  7.273E-07 0.000E+00

     total cpu time spent up to now is       14.0 secs

     total energy              =     -34.18358401 Ry
     Harris-Foulkes estimate   =     -34.18358443 Ry
     estimated scf accuracy    <       0.00000011 Ry

     iteration #  4     ecut=    90.00 Ry     beta=0.70
     Davidson diagonalization with overlap
     ethr =  1.32E-09,  avg # of iterations =  2.0

     total cpu time spent up to now is       14.2 secs

     total energy              =     -34.18358388 Ry
     Harris-Foulkes estimate   =     -34.18358404 Ry
     estimated scf accuracy    <          6.6E-10 Ry

     iteration #  5     ecut=    90.00 Ry     beta=0.70
     Davidson diagonalization with overlap
     ethr =  8.21E-12,  avg # of iterations =  3.0

     total cpu time spent up to now is       14.3 secs

     End of self-consistent calculation

          k = 0.0000 0.0000 0.0000 (115313 PWs)   bands (ev):

   -25.1097 -12.7330  -9.1969  -7.0807  -0.9479   0.4254   0.7587   1.1152

     the Fermi energy is    -5.1009 ev

!    total energy              =     -34.18358386 Ry
     Harris-Foulkes estimate   =     -34.18358389 Ry
     estimated scf accuracy    <          2.3E-10 Ry

     The total energy is the sum of the following terms:

     one-electron contribution =     -63.66945665 Ry
     hartree contribution      =      33.25511954 Ry
     xc contribution           =      -8.35589814 Ry
     ewald contribution        =       4.58665140 Ry
     smearing contrib. (-TS)   =       0.00000000 Ry

     convergence has been achieved in   5 iterations

     Forces acting on atoms (Ry/au):

     atom    1 type  1   force =     0.00099259   -0.00164468    0.00044689
     atom    2 type  1   force =     0.00091563    0.00160002    0.00020749
     atom    3 type  2   force =    -0.00190823    0.00004466   -0.00065438

     Total force =     0.003377     Total SCF correction =     0.000069

     number of scf cycles    =   6
     number of bfgs steps    =   4

     energy   old            =     -34.1835655340 Ry
     energy   new            =     -34.1835838571 Ry

     CASE: energy  _new < energy  _old

     new trust radius        =       0.0031282620 bohr
     new conv_thr            =            1.0E-10 Ry


ATOMIC_POSITIONS (angstrom)
H       -0.154725240  -0.849124537  -0.227512713
H       -0.279049034   0.623138748  -0.655431909
O        0.016614274   0.061693789   0.092522622



     Writing output data file pwscf.save
     Check: negative starting charge=   -0.015988
     NEW-OLD atomic charge density approx. for the potential
     Check: negative starting charge=   -0.015988

     negative rho (up, down):  4.171E-04 0.000E+00

     total cpu time spent up to now is       14.9 secs

     per-process dynamical memory:    45.8 Mb

     Self-consistent Calculation

     iteration #  1     ecut=    90.00 Ry     beta=0.70
     Davidson diagonalization with overlap
     ethr =  1.00E-06,  avg # of iterations =  3.0

     Threshold (ethr) on eigenvalues was too large:
     Diagonalizing with lowered threshold

     Davidson diagonalization with overlap
     ethr =  2.12E-08,  avg # of iterations =  2.0

     negative rho (up, down):  9.550E-05 0.000E+00

     total cpu time spent up to now is       15.3 secs

     total energy              =     -34.18359806 Ry
     Harris-Foulkes estimate   =     -34.18359102 Ry
     estimated scf accuracy    <       0.00000161 Ry

     iteration #  2     ecut=    90.00 Ry     beta=0.70
     Davidson diagonalization with overlap
     ethr =  2.01E-08,  avg # of iterations =  2.0

     negative rho (up, down):  1.382E-05 0.000E+00

     total cpu time spent up to now is       15.5 secs

     total energy              =     -34.18359918 Ry
     Harris-Foulkes estimate   =     -34.18359845 Ry
     estimated scf accuracy    <       0.00000019 Ry

     iteration #  3     ecut=    90.00 Ry     beta=0.70
     Davidson diagonalization with overlap
     ethr =  2.38E-09,  avg # of iterations =  3.0

     negative rho (up, down):  7.463E-07 0.000E+00

     total cpu time spent up to now is       15.6 secs

     total energy              =     -34.18359893 Ry
     Harris-Foulkes estimate   =     -34.18359929 Ry
     estimated scf accuracy    <       0.00000013 Ry

     iteration #  4     ecut=    90.00 Ry     beta=0.70
     Davidson diagonalization with overlap
     ethr =  1.58E-09,  avg # of iterations =  2.0

     total cpu time spent up to now is       15.8 secs

     total energy              =     -34.18359887 Ry
     Harris-Foulkes estimate   =     -34.18359896 Ry
     estimated scf accuracy    <          1.3E-09 Ry

     iteration #  5     ecut=    90.00 Ry     beta=0.70
     Davidson diagonalization with overlap
     ethr =  1.60E-11,  avg # of iterations =  2.0

     total cpu time spent up to now is       16.0 secs

     End of self-consistent calculation

          k = 0.0000 0.0000 0.0000 (115313 PWs)   bands (ev):

   -25.1051 -12.7451  -9.1842  -7.0796  -0.9474   0.4257   0.7579   1.1154

     the Fermi energy is    -5.0996 ev

!    total energy              =     -34.18359887 Ry
     Harris-Foulkes estimate   =     -34.18359888 Ry
     estimated scf accuracy    <          5.9E-11 Ry

     The total energy is the sum of the following terms:

     one-electron contribution =     -63.66783973 Ry
     hartree contribution      =      33.25478255 Ry
     xc contribution           =      -8.35585389 Ry
     ewald contribution        =       4.58531221 Ry
     smearing contrib. (-TS)   =       0.00000000 Ry

     convergence has been achieved in   5 iterations

     Forces acting on atoms (Ry/au):

     atom    1 type  1   force =     0.00091356   -0.00096594   -0.00001188
     atom    2 type  1   force =     0.00082159    0.00083941   -0.00014544
     atom    3 type  2   force =    -0.00173515    0.00012653    0.00015732

     Total force =     0.002494     Total SCF correction =     0.000027

     number of scf cycles    =   7
     number of bfgs steps    =   5

     energy   old            =     -34.1835838571 Ry
     energy   new            =     -34.1835988678 Ry

     CASE: energy  _new < energy  _old

     new trust radius        =       0.0046923930 bohr
     new conv_thr            =            1.0E-10 Ry


ATOMIC_POSITIONS (angstrom)
H       -0.153389054  -0.850601535  -0.227093981
H       -0.277938585   0.624870448  -0.655511629
O        0.014167640   0.061439087   0.092183610



     Writing output data file pwscf.save
     Check: negative starting charge=   -0.015988
     NEW-OLD atomic charge density approx. for the potential
     Check: negative starting charge=   -0.015987

     negative rho (up, down):  6.582E-04 0.000E+00

     total cpu time spent up to now is       16.8 secs

     per-process dynamical memory:    45.8 Mb

     Self-consistent Calculation

     iteration #  1     ecut=    90.00 Ry     beta=0.70
     Davidson diagonalization with overlap
     ethr =  1.00E-06,  avg # of iterations =  4.0

     Threshold (ethr) on eigenvalues was too large:
     Diagonalizing with lowered threshold

     Davidson diagonalization with overlap
     ethr =  4.51E-08,  avg # of iterations =  2.0

     negative rho (up, down):  1.576E-04 0.000E+00

     total cpu time spent up to now is       17.3 secs

     total energy              =     -34.18360828 Ry
     Harris-Foulkes estimate   =     -34.18359893 Ry
     estimated scf accuracy    <       0.00000353 Ry

     iteration #  2     ecut=    90.00 Ry     beta=0.70
     Davidson diagonalization with overlap
     ethr =  4.41E-08,  avg # of iterations =  3.0

     negative rho (up, down):  1.394E-05 0.000E+00

     total cpu time spent up to now is       17.5 secs

     total energy              =     -34.18361270 Ry
     Harris-Foulkes estimate   =     -34.18360910 Ry
     estimated scf accuracy    <       0.00000027 Ry

     iteration #  3     ecut=    90.00 Ry     beta=0.70
     Davidson diagonalization with overlap
     ethr =  3.35E-09,  avg # of iterations =  3.0

     negative rho (up, down):  1.514E-06 0.000E+00

     total cpu time spent up to now is       17.7 secs

     total energy              =     -34.18361270 Ry
     Harris-Foulkes estimate   =     -34.18361284 Ry
     estimated scf accuracy    <       0.00000010 Ry

     iteration #  4     ecut=    90.00 Ry     beta=0.70
     Davidson diagonalization with overlap
     ethr =  1.24E-09,  avg # of iterations =  2.0

     total cpu time spent up to now is       17.9 secs

     total energy              =     -34.18361265 Ry
     Harris-Foulkes estimate   =     -34.18361273 Ry
     estimated scf accuracy    <          6.1E-09 Ry

     iteration #  5     ecut=    90.00 Ry     beta=0.70
     Davidson diagonalization with overlap
     ethr =  7.68E-11,  avg # of iterations =  2.0

     total cpu time spent up to now is       18.0 secs

     End of self-consistent calculation

          k = 0.0000 0.0000 0.0000 (115313 PWs)   bands (ev):

   -25.0993 -12.7584  -9.1694  -7.0782  -0.9469   0.4260   0.7571   1.1156

     the Fermi energy is    -5.0980 ev

!    total energy              =     -34.18361265 Ry
     Harris-Foulkes estimate   =     -34.18361266 Ry
     estimated scf accuracy    <          5.7E-11 Ry

     The total energy is the sum of the following terms:

     one-electron contribution =     -63.66491732 Ry
     hartree contribution      =      33.25386368 Ry
     xc contribution           =      -8.35572063 Ry
     ewald contribution        =       4.58316162 Ry
     smearing contrib. (-TS)   =       0.00000000 Ry

     convergence has been achieved in   5 iterations

     Forces acting on atoms (Ry/au):

     atom    1 type  1   force =     0.00081772   -0.00016625   -0.00049351
     atom    2 type  1   force =     0.00070595   -0.00014866   -0.00051503
     atom    3 type  2   force =    -0.00152367    0.00031492    0.00100854

     Total force =     0.002272     Total SCF correction =     0.000044

     number of scf cycles    =   8
     number of bfgs steps    =   6

     energy   old            =     -34.1835988678 Ry
     energy   new            =     -34.1836126498 Ry

     CASE: energy  _new < energy  _old

     new trust radius        =       0.0070385895 bohr
     new conv_thr            =            1.0E-10 Ry


ATOMIC_POSITIONS (angstrom)
H       -0.151365707  -0.852207727  -0.226877531
H       -0.276241709   0.626603179  -0.655858537
O        0.010447415   0.061312548   0.092314069



     Writing output data file pwscf.save
     Check: negative starting charge=   -0.015987
     NEW-OLD atomic charge density approx. for the potential
     Check: negative starting charge=   -0.015987

     negative rho (up, down):  1.037E-03 0.000E+00

     total cpu time spent up to now is       18.5 secs

     per-process dynamical memory:    45.8 Mb

     Self-consistent Calculation

     iteration #  1     ecut=    90.00 Ry     beta=0.70
     Davidson diagonalization with overlap
     ethr =  1.00E-06,  avg # of iterations =  5.0

     Threshold (ethr) on eigenvalues was too large:
     Diagonalizing with lowered threshold

     Davidson diagonalization with overlap
     ethr =  9.86E-08,  avg # of iterations =  1.0

     negative rho (up, down):  2.562E-04 0.000E+00

     total cpu time spent up to now is       19.1 secs

     total energy              =     -34.18361676 Ry
     Harris-Foulkes estimate   =     -34.18355337 Ry
     estimated scf accuracy    <       0.00000788 Ry

     iteration #  2     ecut=    90.00 Ry     beta=0.70
     Davidson diagonalization with overlap
     ethr =  9.85E-08,  avg # of iterations =  4.0

     negative rho (up, down):  2.273E-05 0.000E+00

     total cpu time spent up to now is       19.3 secs

     total energy              =     -34.18362468 Ry
     Harris-Foulkes estimate   =     -34.18361858 Ry
     estimated scf accuracy    <       0.00000053 Ry

     iteration #  3     ecut=    90.00 Ry     beta=0.70
     Davidson diagonalization with overlap
     ethr =  6.58E-09,  avg # of iterations =  3.0

     negative rho (up, down):  3.139E-06 0.000E+00

     total cpu time spent up to now is       19.5 secs

     total energy              =     -34.18362495 Ry
     Harris-Foulkes estimate   =     -34.18362494 Ry
     estimated scf accuracy    <       0.00000012 Ry

     iteration #  4     ecut=    90.00 Ry     beta=0.70
     Davidson diagonalization with overlap
     ethr =  1.47E-09,  avg # of iterations =  2.0

     total cpu time spent up to now is       19.7 secs

     total energy              =     -34.18362493 Ry
     Harris-Foulkes estimate   =     -34.18362500 Ry
     estimated scf accuracy    <       0.00000002 Ry

     iteration #  5     ecut=    90.00 Ry     beta=0.70
     Davidson diagonalization with overlap
     ethr =  2.04E-10,  avg # of iterations =  2.0

     total cpu time spent up to now is       19.9 secs

     total energy              =     -34.18362495 Ry
     Harris-Foulkes estimate   =     -34.18362494 Ry
     estimated scf accuracy    <          1.6E-10 Ry

     iteration #  6     ecut=    90.00 Ry     beta=0.70
     Davidson diagonalization with overlap
     ethr =  1.94E-12,  avg # of iterations =  2.0

     total cpu time spent up to now is       20.1 secs

     End of self-consistent calculation

          k = 0.0000 0.0000 0.0000 (115313 PWs)   bands (ev):

   -25.0927 -12.7713  -9.1541  -7.0768  -0.9466   0.4262   0.7562   1.1157

     the Fermi energy is    -5.0963 ev

!    total energy              =     -34.18362496 Ry
     Harris-Foulkes estimate   =     -34.18362495 Ry
     estimated scf accuracy    <          8.7E-12 Ry

     The total energy is the sum of the following terms:

     one-electron contribution =     -63.66070379 Ry
     hartree contribution      =      33.25234073 Ry
     xc contribution           =      -8.35549724 Ry
     ewald contribution        =       4.58023534 Ry
     smearing contrib. (-TS)   =       0.00000000 Ry

     convergence has been achieved in   6 iterations

     Forces acting on atoms (Ry/au):

     atom    1 type  1   force =     0.00068145    0.00073820   -0.00083408
     atom    2 type  1   force =     0.00050037   -0.00127035   -0.00089212
     atom    3 type  2   force =    -0.00118181    0.00053215    0.00172620

     Total force =     0.003004     Total SCF correction =     0.000014

     number of scf cycles    =   9
     number of bfgs steps    =   7

     energy   old            =     -34.1836126498 Ry
     energy   new            =     -34.1836249551 Ry

     CASE: energy  _new < energy  _old

     new trust radius        =       0.0087877496 bohr
     new conv_thr            =            1.0E-10 Ry


ATOMIC_POSITIONS (angstrom)
H       -0.148865357  -0.853398685  -0.227007182
H       -0.274178970   0.627599764  -0.656603826
O        0.005884327   0.061506922   0.093189008



     Writing output data file pwscf.save
     Check: negative starting charge=   -0.015987
     NEW-OLD atomic charge density approx. for the potential
     Check: negative starting charge=   -0.015988

     negative rho (up, down):  1.332E-03 0.000E+00

     total cpu time spent up to now is       20.6 secs

     per-process dynamical memory:    45.8 Mb

     Self-consistent Calculation

     iteration #  1     ecut=    90.00 Ry     beta=0.70
     Davidson diagonalization with overlap
     ethr =  1.00E-06,  avg # of iterations =  6.0

     negative rho (up, down):  3.331E-04 0.000E+00

     total cpu time spent up to now is       20.9 secs

     total energy              =     -34.17954822 Ry
     Harris-Foulkes estimate   =     -34.17936770 Ry
     estimated scf accuracy    <       0.00001202 Ry

     iteration #  2     ecut=    90.00 Ry     beta=0.70
     Davidson diagonalization with overlap
     ethr =  1.50E-07,  avg # of iterations =  5.0

     negative rho (up, down):  2.808E-05 0.000E+00

     total cpu time spent up to now is       21.1 secs

     total energy              =     -34.18363364 Ry
     Harris-Foulkes estimate   =     -34.18362854 Ry
     estimated scf accuracy    <       0.00000074 Ry

     iteration #  3     ecut=    90.00 Ry     beta=0.70
     Davidson diagonalization with overlap
     ethr =  9.28E-09,  avg # of iterations =  3.0

     negative rho (up, down):  3.505E-06 0.000E+00

     total cpu time spent up to now is       21.3 secs

     total energy              =     -34.18363408 Ry
     Harris-Foulkes estimate   =     -34.18363399 Ry
     estimated scf accuracy    <       0.00000011 Ry

     iteration #  4     ecut=    90.00 Ry     beta=0.70
     Davidson diagonalization with overlap
     ethr =  1.34E-09,  avg # of iterations =  2.0

     total cpu time spent up to now is       21.5 secs

     total energy              =     -34.18363415 Ry
     Harris-Foulkes estimate   =     -34.18363413 Ry
     estimated scf accuracy    <       0.00000003 Ry

     iteration #  5     ecut=    90.00 Ry     beta=0.70
     Davidson diagonalization with overlap
     ethr =  3.58E-10,  avg # of iterations =  2.0

     total cpu time spent up to now is       21.7 secs

     total energy              =     -34.18363412 Ry
     Harris-Foulkes estimate   =     -34.18363416 Ry
     estimated scf accuracy    <          2.0E-10 Ry

     iteration #  6     ecut=    90.00 Ry     beta=0.70
     Davidson diagonalization with overlap
     ethr =  2.50E-12,  avg # of iterations =  2.0

     total cpu time spent up to now is       21.9 secs

     End of self-consistent calculation

          k = 0.0000 0.0000 0.0000 (115313 PWs)   bands (ev):

   -25.0877 -12.7791  -9.1440  -7.0759  -0.9466   0.4262   0.7555   1.1159

     the Fermi energy is    -5.0949 ev

!    total energy              =     -34.18363412 Ry
     Harris-Foulkes estimate   =     -34.18363412 Ry
     estimated scf accuracy    <          1.6E-11 Ry

     The total energy is the sum of the following terms:

     one-electron contribution =     -63.65657853 Ry
     hartree contribution      =      33.25069882 Ry
     xc contribution           =      -8.35525428 Ry
     ewald contribution        =       4.57749987 Ry
     smearing contrib. (-TS)   =       0.00000000 Ry

     convergence has been achieved in   6 iterations

     Forces acting on atoms (Ry/au):

     atom    1 type  1   force =     0.00026460    0.00156452   -0.00075853
     atom    2 type  1   force =    -0.00004853   -0.00204751   -0.00115035
     atom    3 type  2   force =    -0.00021607    0.00048299    0.00190888

     Total force =     0.003540     Total SCF correction =     0.000016

     number of scf cycles    =  10
     number of bfgs steps    =   8

     energy   old            =     -34.1836249551 Ry
     energy   new            =     -34.1836341226 Ry

     CASE: energy  _new < energy  _old

     new trust radius        =       0.0030805614 bohr
     new conv_thr            =            1.0E-10 Ry


ATOMIC_POSITIONS (angstrom)
H       -0.148145309  -0.852903101  -0.227389208
H       -0.273669679   0.626690662  -0.657209303
O        0.004654989   0.061920439   0.094176511



     Writing output data file pwscf.save
     Check: negative starting charge=   -0.015988
     NEW-OLD atomic charge density approx. for the potential
     Check: negative starting charge=   -0.015988

     negative rho (up, down):  4.125E-04 0.000E+00

     total cpu time spent up to now is       22.4 secs

     per-process dynamical memory:    45.8 Mb

     Self-consistent Calculation

     iteration #  1     ecut=    90.00 Ry     beta=0.70
     Davidson diagonalization with overlap
     ethr =  1.00E-06,  avg # of iterations =  3.0

     Threshold (ethr) on eigenvalues was too large:
     Diagonalizing with lowered threshold

     Davidson diagonalization with overlap
     ethr =  1.87E-08,  avg # of iterations =  2.0

     negative rho (up, down):  9.411E-05 0.000E+00

     total cpu time spent up to now is       22.8 secs

     total energy              =     -34.18364204 Ry
     Harris-Foulkes estimate   =     -34.18364188 Ry
     estimated scf accuracy    <       0.00000152 Ry

     iteration #  2     ecut=    90.00 Ry     beta=0.70
     Davidson diagonalization with overlap
     ethr =  1.90E-08,  avg # of iterations =  2.0

     negative rho (up, down):  8.435E-06 0.000E+00

     total cpu time spent up to now is       23.0 secs

     total energy              =     -34.18364378 Ry
     Harris-Foulkes estimate   =     -34.18364238 Ry
     estimated scf accuracy    <       0.00000012 Ry

     iteration #  3     ecut=    90.00 Ry     beta=0.70
     Davidson diagonalization with overlap
     ethr =  1.50E-09,  avg # of iterations =  3.0

     negative rho (up, down):  8.362E-07 0.000E+00

     total cpu time spent up to now is       23.2 secs

     total energy              =     -34.18364399 Ry
     Harris-Foulkes estimate   =     -34.18364386 Ry
     estimated scf accuracy    <       0.00000006 Ry

     iteration #  4     ecut=    90.00 Ry     beta=0.70
     Davidson diagonalization with overlap
     ethr =  7.54E-10,  avg # of iterations =  2.0

     total cpu time spent up to now is       23.4 secs

     total energy              =     -34.18364401 Ry
     Harris-Foulkes estimate   =     -34.18364401 Ry
     estimated scf accuracy    <          2.2E-09 Ry

     iteration #  5     ecut=    90.00 Ry     beta=0.70
     Davidson diagonalization with overlap
     ethr =  2.78E-11,  avg # of iterations =  2.0

     total cpu time spent up to now is       23.5 secs

     End of self-consistent calculation

          k = 0.0000 0.0000 0.0000 (115313 PWs)   bands (ev):

   -25.0897 -12.7731  -9.1500  -7.0766  -0.9469   0.4261   0.7557   1.1159

     the Fermi energy is    -5.0953 ev

!    total energy              =     -34.18364402 Ry
     Harris-Foulkes estimate   =     -34.18364401 Ry
     estimated scf accuracy    <          4.0E-11 Ry

     The total energy is the sum of the following terms:

     one-electron contribution =     -63.65694498 Ry
     hartree contribution      =      33.25068637 Ry
     xc contribution           =      -8.35525824 Ry
     ewald contribution        =       4.57787283 Ry
     smearing contrib. (-TS)   =       0.00000000 Ry

     convergence has been achieved in   5 iterations

     Forces acting on atoms (Ry/au):

     atom    1 type  1   force =     0.00018430    0.00136041   -0.00029419
     atom    2 type  1   force =    -0.00020208   -0.00171299   -0.00097197
     atom    3 type  2   force =     0.00001778    0.00035258    0.00126615

     Total force =     0.002760     Total SCF correction =     0.000033

     number of scf cycles    =  11
     number of bfgs steps    =   9

     energy   old            =     -34.1836341226 Ry
     energy   new            =     -34.1836440199 Ry

     CASE: energy  _new < energy  _old

     new trust radius        =       0.0033886176 bohr
     new conv_thr            =            1.0E-10 Ry


ATOMIC_POSITIONS (angstrom)
H       -0.147839957  -0.851820443  -0.227720710
H       -0.273632122   0.625047556  -0.657926439
O        0.004312079   0.062480887   0.095225150



     Writing output data file pwscf.save
     Check: negative starting charge=   -0.015988
     NEW-OLD atomic charge density approx. for the potential
     Check: negative starting charge=   -0.015989

     negative rho (up, down):  3.014E-04 0.000E+00

     total cpu time spent up to now is       24.3 secs

     per-process dynamical memory:    45.8 Mb

     Self-consistent Calculation

     iteration #  1     ecut=    90.00 Ry     beta=0.70
     Davidson diagonalization with overlap
     ethr =  1.00E-06,  avg # of iterations =  3.0

     Threshold (ethr) on eigenvalues was too large:
     Diagonalizing with lowered threshold

     Davidson diagonalization with overlap
     ethr =  1.23E-08,  avg # of iterations =  2.0

     negative rho (up, down):  6.621E-05 0.000E+00

     total cpu time spent up to now is       24.7 secs

     total energy              =     -34.18365195 Ry
     Harris-Foulkes estimate   =     -34.18365033 Ry
     estimated scf accuracy    <       0.00000098 Ry

     iteration #  2     ecut=    90.00 Ry     beta=0.70
     Davidson diagonalization with overlap
     ethr =  1.23E-08,  avg # of iterations =  2.0

     negative rho (up, down):  5.165E-06 0.000E+00

     total cpu time spent up to now is       24.9 secs

     total energy              =     -34.18365336 Ry
     Harris-Foulkes estimate   =     -34.18365213 Ry
     estimated scf accuracy    <       0.00000009 Ry

     iteration #  3     ecut=    90.00 Ry     beta=0.70
     Davidson diagonalization with overlap
     ethr =  1.11E-09,  avg # of iterations =  3.0

     negative rho (up, down):  4.292E-07 0.000E+00

     total cpu time spent up to now is       25.1 secs

     total energy              =     -34.18365351 Ry
     Harris-Foulkes estimate   =     -34.18365342 Ry
     estimated scf accuracy    <       0.00000006 Ry

     iteration #  4     ecut=    90.00 Ry     beta=0.70
     Davidson diagonalization with overlap
     ethr =  7.22E-10,  avg # of iterations =  2.0

     total cpu time spent up to now is       25.3 secs

     total energy              =     -34.18365362 Ry
     Harris-Foulkes estimate   =     -34.18365353 Ry
     estimated scf accuracy    <          8.2E-10 Ry

     iteration #  5     ecut=    90.00 Ry     beta=0.70
     Davidson diagonalization with overlap
     ethr =  1.02E-11,  avg # of iterations =  2.0

     total cpu time spent up to now is       25.4 secs

     End of self-consistent calculation

          k = 0.0000 0.0000 0.0000 (115313 PWs)   bands (ev):

   -25.0945 -12.7632  -9.1613  -7.0779  -0.9471   0.4259   0.7564   1.1157

     the Fermi energy is    -5.0967 ev

!    total energy              =     -34.18365361 Ry
     Harris-Foulkes estimate   =     -34.18365362 Ry
     estimated scf accuracy    <          3.6E-11 Ry

     The total energy is the sum of the following terms:

     one-electron contribution =     -63.65995504 Ry
     hartree contribution      =      33.25176924 Ry
     xc contribution           =      -8.35543804 Ry
     ewald contribution        =       4.57997023 Ry
     smearing contrib. (-TS)   =       0.00000000 Ry

     convergence has been achieved in   5 iterations

     Forces acting on atoms (Ry/au):

     atom    1 type  1   force =     0.00026291    0.00064589    0.00025838
     atom    2 type  1   force =    -0.00018356   -0.00103485   -0.00070461
     atom    3 type  2   force =    -0.00007935    0.00038896    0.00044623

     Total force =     0.001585     Total SCF correction =     0.000035

     number of scf cycles    =  12
     number of bfgs steps    =  10

     energy   old            =     -34.1836440199 Ry
     energy   new            =     -34.1836536097 Ry

     CASE: energy  _new < energy  _old

     new trust radius        =       0.0049271014 bohr
     new conv_thr            =            1.0E-10 Ry


ATOMIC_POSITIONS (angstrom)
H       -0.146854659  -0.850610514  -0.227712550
H       -0.273385263   0.622848236  -0.659304886
O        0.003079922   0.063470278   0.096595435



     Writing output data file pwscf.save
     Check: negative starting charge=   -0.015989
     NEW-OLD atomic charge density approx. for the potential
     Check: negative starting charge=   -0.015990

     negative rho (up, down):  5.579E-04 0.000E+00

     total cpu time spent up to now is       26.0 secs

     per-process dynamical memory:    45.8 Mb

     Self-consistent Calculation

     iteration #  1     ecut=    90.00 Ry     beta=0.70
     Davidson diagonalization with overlap
     ethr =  1.00E-06,  avg # of iterations =  4.0

     Threshold (ethr) on eigenvalues was too large:
     Diagonalizing with lowered threshold

     Davidson diagonalization with overlap
     ethr =  3.53E-08,  avg # of iterations =  2.0

     negative rho (up, down):  1.315E-04 0.000E+00

     total cpu time spent up to now is       26.3 secs

     total energy              =     -34.18365631 Ry
     Harris-Foulkes estimate   =     -34.18365259 Ry
     estimated scf accuracy    <       0.00000283 Ry

     iteration #  2     ecut=    90.00 Ry     beta=0.70
     Davidson diagonalization with overlap
     ethr =  3.54E-08,  avg # of iterations =  3.0

     negative rho (up, down):  1.108E-05 0.000E+00

     total cpu time spent up to now is       26.5 secs

     total energy              =     -34.18365876 Ry
     Harris-Foulkes estimate   =     -34.18365685 Ry
     estimated scf accuracy    <       0.00000020 Ry

     iteration #  3     ecut=    90.00 Ry     beta=0.70
     Davidson diagonalization with overlap
     ethr =  2.45E-09,  avg # of iterations =  3.0

     negative rho (up, down):  1.238E-06 0.000E+00

     total cpu time spent up to now is       26.7 secs

     total energy              =     -34.18365906 Ry
     Harris-Foulkes estimate   =     -34.18365886 Ry
     estimated scf accuracy    <       0.00000006 Ry

     iteration #  4     ecut=    90.00 Ry     beta=0.70
     Davidson diagonalization with overlap
     ethr =  7.51E-10,  avg # of iterations =  2.0

     total cpu time spent up to now is       26.9 secs

     total energy              =     -34.18365913 Ry
     Harris-Foulkes estimate   =     -34.18365908 Ry
     estimated scf accuracy    <          6.1E-09 Ry

     iteration #  5     ecut=    90.00 Ry     beta=0.70
     Davidson diagonalization with overlap
     ethr =  7.67E-11,  avg # of iterations =  2.0

     total cpu time spent up to now is       27.0 secs

     End of self-consistent calculation

          k = 0.0000 0.0000 0.0000 (115313 PWs)   bands (ev):

   -25.1001 -12.7524  -9.1738  -7.0793  -0.9472   0.4258   0.7572   1.1157

     the Fermi energy is    -5.0981 ev

!    total energy              =     -34.18365915 Ry
     Harris-Foulkes estimate   =     -34.18365913 Ry
     estimated scf accuracy    <          5.3E-11 Ry

     The total energy is the sum of the following terms:

     one-electron contribution =     -63.66392418 Ry
     hartree contribution      =      33.25326396 Ry
     xc contribution           =      -8.35568431 Ry
     ewald contribution        =       4.58268538 Ry
     smearing contrib. (-TS)   =       0.00000000 Ry

     convergence has been achieved in   5 iterations

     Forces acting on atoms (Ry/au):

     atom    1 type  1   force =     0.00019282   -0.00007218    0.00099919
     atom    2 type  1   force =    -0.00038167   -0.00016711   -0.00048016
     atom    3 type  2   force =     0.00018885    0.00023929   -0.00051902

     Total force =     0.001344     Total SCF correction =     0.000066

     bfgs converged in  13 scf cycles and  11 bfgs steps
     (criteria: energy <  1.0E-04, force <  1.0E-03)

     End of BFGS Geometry Optimization

     Final energy   =     -34.1836591492 Ry
Begin final coordinates

ATOMIC_POSITIONS (angstrom)
H       -0.146854659  -0.850610514  -0.227712550
H       -0.273385263   0.622848236  -0.659304886
O        0.003079922   0.063470278   0.096595435
End final coordinates



     Writing output data file pwscf.save
 
     init_run     :      0.52s CPU      0.56s WALL (       1 calls)
     electrons    :     17.44s CPU     20.55s WALL (      13 calls)
     update_pot   :      2.97s CPU      3.61s WALL (      12 calls)
     forces       :      0.92s CPU      0.97s WALL (      13 calls)

     Called by init_run:
     wfcinit      :      0.03s CPU      0.04s WALL (       1 calls)
     potinit      :      0.11s CPU      0.12s WALL (       1 calls)

     Called by electrons:
     c_bands      :      8.13s CPU      8.39s WALL (      82 calls)
     sum_band     :      1.73s CPU      1.78s WALL (      82 calls)
     v_of_rho     :      4.46s CPU      4.55s WALL (      88 calls)
     mix_rho      :      1.55s CPU      2.78s WALL (      82 calls)

     Called by c_bands:
     init_us_2    :      0.04s CPU      0.05s WALL (     165 calls)
     cegterg      :      8.08s CPU      8.31s WALL (      82 calls)

     Called by sum_band:

     Called by *egterg:
     h_psi        :      6.98s CPU      7.13s WALL (     467 calls)
     g_psi        :      0.06s CPU      0.06s WALL (     384 calls)
     cdiaghg      :      0.15s CPU      0.20s WALL (     447 calls)

     Called by h_psi:
     h_psi:pot    :      6.91s CPU      7.06s WALL (     467 calls)
     h_psi:calbec :      0.12s CPU      0.21s WALL (     467 calls)
     vloc_psi     :      6.74s CPU      6.80s WALL (     467 calls)
     add_vuspsi   :      0.05s CPU      0.05s WALL (     467 calls)

     General routines
     calbec       :      0.16s CPU      0.31s WALL (     519 calls)
     fft          :      3.28s CPU      3.46s WALL (    1007 calls)
     fftw         :      6.81s CPU      6.90s WALL (    5228 calls)
     davcio       :      0.17s CPU      1.20s WALL (     480 calls)
 
     Parallel routines
     fft_scatter  :      3.75s CPU      3.96s WALL (    6235 calls)
 
     PWSCF        :    22.57s CPU        27.47s WALL

 
   This run was terminated on:   2:31:34  28Jul2018            

=------------------------------------------------------------------------------=
   JOB DONE.
=------------------------------------------------------------------------------=
