
     Program PWSCF v.6.0 (svn rev. 13079) starts on 28Jul2018 at  2:38:53 

     This program is part of the open-source Quantum ESPRESSO suite
     for quantum simulation of materials; please cite
         "P. Giannozzi et al., J. Phys.:Condens. Matter 21 395502 (2009);
          URL http://www.quantum-espresso.org", 
     in publications or presentations arising from this work. More details at
     http://www.quantum-espresso.org/quote

     Parallel version (MPI), running on    28 processors
     R & G space division:  proc/nbgrp/npool/nimage =      28
     Reading input from ../QMCmins/relax-66.in

     Current dimensions of program PWSCF are:
     Max number of different atomic species (ntypx) = 10
     Max number of k-points (npk) =  40000
     Max angular momentum in pseudopotentials (lmaxx) =  3
     Message from routine iosys:
     pot_extrapolation='second-order' not available, using 'atomic'
     Message from routine iosys:
     wfc_extrapolation='second-order' not available, using 'atomic'

     Subspace diagonalization in iterative solution of the eigenvalue problem:
     a serial algorithm will be used

 
     Parallelization info
     --------------------
     sticks:   dense  smooth     PW     G-vecs:    dense   smooth      PW
     Min         408     408    102                32936    32936    4116
     Max         409     409    103                32943    32943    4121
     Sum       11449   11449   2869               922329   922329  115313
 


     bravais-lattice index     =            1
     lattice parameter (alat)  =      20.0000  a.u.
     unit-cell volume          =    8000.0000 (a.u.)^3
     number of atoms/cell      =            3
     number of atomic types    =            2
     number of electrons       =         8.00
     number of Kohn-Sham states=            8
     kinetic-energy cutoff     =      90.0000  Ry
     charge density cutoff     =     360.0000  Ry
     convergence threshold     =      1.0E-08
     mixing beta               =       0.7000
     number of iterations used =            8  plain     mixing
     Exchange-correlation      = BLYP ( 1  3  1  3 0 0)
     nstep                     =           50


     celldm(1)=  20.000000  celldm(2)=   0.000000  celldm(3)=   0.000000
     celldm(4)=   0.000000  celldm(5)=   0.000000  celldm(6)=   0.000000

     crystal axes: (cart. coord. in units of alat)
               a(1) = (   1.000000   0.000000   0.000000 )  
               a(2) = (   0.000000   1.000000   0.000000 )  
               a(3) = (   0.000000   0.000000   1.000000 )  

     reciprocal axes: (cart. coord. in units 2 pi/alat)
               b(1) = (  1.000000  0.000000  0.000000 )  
               b(2) = (  0.000000  1.000000  0.000000 )  
               b(3) = (  0.000000  0.000000  1.000000 )  


     PseudoPot. # 1 for  H read from file:
     ../H.blyp-hgh.UPF
     MD5 check sum: c576e69559cde411e611be972c763230
     Pseudo is Norm-conserving, Zval =  1.0
     Generated in analytical, separable form
     Using radial grid of  929 points,  0 beta functions with: 

     PseudoPot. # 2 for  O read from file:
     ../O.blyp-hgh.UPF
     MD5 check sum: d0b7156309aa9befef28faac7bc56342
     Pseudo is Norm-conserving, Zval =  6.0
     Generated in analytical, separable form
     Using radial grid of 1095 points,  1 beta functions with: 
                l(1) =   0

     atomic species   valence    mass     pseudopotential
        H              1.00     1.01000      H( 1.00)
        O              6.00    16.00000      O( 1.00)

     No symmetry found



   Cartesian axes

     site n.     atom                  positions (alat units)
         1           H   tau(   1) = (   0.0644138  -0.0452950   0.0535186  )
         2           H   tau(   2) = (  -0.0617146  -0.0266871   0.0546127  )
         3           O   tau(   3) = (  -0.0001704   0.0045438  -0.0012478  )

     number of k points=     1  Marzari-Vanderbilt smearing, width (Ry)=  0.0250
                       cart. coord. in units 2pi/alat
        k(    1) = (   0.0000000   0.0000000   0.0000000), wk =   2.0000000

     Dense  grid:   922329 G-vectors     FFT dimensions: ( 125, 125, 125)

     Estimated max dynamical RAM per process >      31.67Mb

     Estimated total allocated dynamical RAM >     886.64Mb

     Initial potential from superposition of free atoms
     Check: negative starting charge=   -0.016101

     starting charge    7.99998, renormalised to    8.00000

     negative rho (up, down):  1.610E-02 0.000E+00
     Starting wfc are    6 randomized atomic wfcs +    2 random wfc

     total cpu time spent up to now is        0.7 secs

     per-process dynamical memory:    33.5 Mb

     Self-consistent Calculation

     iteration #  1     ecut=    90.00 Ry     beta=0.70
     Davidson diagonalization with overlap
     ethr =  1.00E-02,  avg # of iterations =  8.0

     negative rho (up, down):  4.691E-03 0.000E+00

     total cpu time spent up to now is        0.9 secs

     total energy              =     -34.01737131 Ry
     Harris-Foulkes estimate   =     -34.24338252 Ry
     estimated scf accuracy    <       0.34214625 Ry

     iteration #  2     ecut=    90.00 Ry     beta=0.70
     Davidson diagonalization with overlap
     ethr =  4.28E-03,  avg # of iterations =  2.0

     negative rho (up, down):  2.877E-03 0.000E+00

     total cpu time spent up to now is        1.2 secs

     total energy              =     -34.06659818 Ry
     Harris-Foulkes estimate   =     -34.25304772 Ry
     estimated scf accuracy    <       0.40687352 Ry

     iteration #  3     ecut=    90.00 Ry     beta=0.70
     Davidson diagonalization with overlap
     ethr =  4.28E-03,  avg # of iterations =  2.0

     negative rho (up, down):  1.455E-04 0.000E+00

     total cpu time spent up to now is        1.4 secs

     total energy              =     -34.15711351 Ry
     Harris-Foulkes estimate   =     -34.15798575 Ry
     estimated scf accuracy    <       0.00610886 Ry

     iteration #  4     ecut=    90.00 Ry     beta=0.70
     Davidson diagonalization with overlap
     ethr =  7.64E-05,  avg # of iterations =  6.0

     negative rho (up, down):  2.737E-05 0.000E+00

     total cpu time spent up to now is        1.7 secs

     total energy              =     -34.15881052 Ry
     Harris-Foulkes estimate   =     -34.15893955 Ry
     estimated scf accuracy    <       0.00032486 Ry

     iteration #  5     ecut=    90.00 Ry     beta=0.70
     Davidson diagonalization with overlap
     ethr =  4.06E-06,  avg # of iterations = 19.0

     negative rho (up, down):  5.021E-08 0.000E+00

     total cpu time spent up to now is        2.0 secs

     total energy              =     -34.15883984 Ry
     Harris-Foulkes estimate   =     -34.15884222 Ry
     estimated scf accuracy    <       0.00001239 Ry

     iteration #  6     ecut=    90.00 Ry     beta=0.70
     Davidson diagonalization with overlap
     ethr =  1.55E-07,  avg # of iterations =  2.0

     negative rho (up, down):  1.236E-07 0.000E+00

     total cpu time spent up to now is        2.3 secs

     total energy              =     -34.15884082 Ry
     Harris-Foulkes estimate   =     -34.15884083 Ry
     estimated scf accuracy    <       0.00000235 Ry

     iteration #  7     ecut=    90.00 Ry     beta=0.70
     Davidson diagonalization with overlap
     ethr =  2.94E-08,  avg # of iterations =  2.0

     total cpu time spent up to now is        2.5 secs

     total energy              =     -34.15884096 Ry
     Harris-Foulkes estimate   =     -34.15884112 Ry
     estimated scf accuracy    <       0.00000007 Ry

     iteration #  8     ecut=    90.00 Ry     beta=0.70
     Davidson diagonalization with overlap
     ethr =  8.38E-10,  avg # of iterations =  2.0

     total cpu time spent up to now is        2.6 secs

     End of self-consistent calculation

          k = 0.0000 0.0000 0.0000 (115313 PWs)   bands (ev):

   -25.4098 -11.7499 -10.0691  -7.1548  -1.0893   0.3622   0.7990   1.1007

     the Fermi energy is    -5.1868 ev

!    total energy              =     -34.15884084 Ry
     Harris-Foulkes estimate   =     -34.15884098 Ry
     estimated scf accuracy    <          2.1E-09 Ry

     The total energy is the sum of the following terms:

     one-electron contribution =     -63.60453312 Ry
     hartree contribution      =      33.19663032 Ry
     xc contribution           =      -8.34532294 Ry
     ewald contribution        =       4.59438490 Ry
     smearing contrib. (-TS)   =       0.00000000 Ry

     convergence has been achieved in   8 iterations

     Forces acting on atoms (Ry/au):

     atom    1 type  1   force =    -0.00415953    0.05276618   -0.07055768
     atom    2 type  1   force =    -0.12005213   -0.00897327    0.03871511
     atom    3 type  2   force =     0.12421166   -0.04379291    0.03184257

     Total force =     0.205261     Total SCF correction =     0.000127

     BFGS Geometry Optimization

     number of scf cycles    =   1
     number of bfgs steps    =   0

     energy   new            =     -34.1588408420 Ry

     new trust radius        =       0.1355002030 bohr
     new conv_thr            =       0.0000000100 Ry


ATOMIC_POSITIONS (angstrom)
H        0.679524872  -0.451459339   0.529078484
H       -0.716687852  -0.287192450   0.598483155
O        0.063926980   0.024915789   0.003644361



     Writing output data file pwscf.save
     Check: negative starting charge=   -0.016101
     NEW-OLD atomic charge density approx. for the potential
     Check: negative starting charge=   -0.016056

     negative rho (up, down):  2.303E-02 0.000E+00

     total cpu time spent up to now is        3.3 secs

     per-process dynamical memory:    45.8 Mb

     Self-consistent Calculation

     iteration #  1     ecut=    90.00 Ry     beta=0.70
     Davidson diagonalization with overlap
     c_bands:  2 eigenvalues not converged
     ethr =  1.00E-06,  avg # of iterations = 20.0

     negative rho (up, down):  6.031E-03 0.000E+00

     total cpu time spent up to now is        3.8 secs

     total energy              =     -34.16548708 Ry
     Harris-Foulkes estimate   =     -34.13993661 Ry
     estimated scf accuracy    <       0.00574594 Ry

     iteration #  2     ecut=    90.00 Ry     beta=0.70
     Davidson diagonalization with overlap
     ethr =  7.18E-05,  avg # of iterations =  6.0

     negative rho (up, down):  2.317E-03 0.000E+00

     total cpu time spent up to now is        4.0 secs

     total energy              =     -34.16288325 Ry
     Harris-Foulkes estimate   =     -34.16312455 Ry
     estimated scf accuracy    <       0.00072212 Ry

     iteration #  3     ecut=    90.00 Ry     beta=0.70
     Davidson diagonalization with overlap
     ethr =  9.03E-06,  avg # of iterations = 13.0

     negative rho (up, down):  7.912E-04 0.000E+00

     total cpu time spent up to now is        4.4 secs

     total energy              =     -34.16437933 Ry
     Harris-Foulkes estimate   =     -34.16343804 Ry
     estimated scf accuracy    <       0.00016385 Ry

     iteration #  4     ecut=    90.00 Ry     beta=0.70
     Davidson diagonalization with overlap
     ethr =  2.05E-06,  avg # of iterations = 16.0

     negative rho (up, down):  8.585E-05 0.000E+00

     total cpu time spent up to now is        5.4 secs

     total energy              =     -34.16852227 Ry
     Harris-Foulkes estimate   =     -34.16851538 Ry
     estimated scf accuracy    <       0.00002841 Ry

     iteration #  5     ecut=    90.00 Ry     beta=0.70
     Davidson diagonalization with overlap
     ethr =  3.55E-07,  avg # of iterations =  5.0

     negative rho (up, down):  2.161E-07 0.000E+00

     total cpu time spent up to now is        5.6 secs

     total energy              =     -34.16852825 Ry
     Harris-Foulkes estimate   =     -34.16852867 Ry
     estimated scf accuracy    <       0.00000032 Ry

     iteration #  6     ecut=    90.00 Ry     beta=0.70
     Davidson diagonalization with overlap
     ethr =  3.98E-09,  avg # of iterations =  3.0

     total cpu time spent up to now is        5.8 secs

     total energy              =     -34.16852826 Ry
     Harris-Foulkes estimate   =     -34.16852838 Ry
     estimated scf accuracy    <       0.00000002 Ry

     iteration #  7     ecut=    90.00 Ry     beta=0.70
     Davidson diagonalization with overlap
     ethr =  2.69E-10,  avg # of iterations =  2.0

     total cpu time spent up to now is        5.9 secs

     End of self-consistent calculation

          k = 0.0000 0.0000 0.0000 (115313 PWs)   bands (ev):

   -25.3421 -12.0884  -9.7955  -7.1361  -1.0311   0.3837   0.7938   1.1045

     the Fermi energy is    -5.1670 ev

!    total energy              =     -34.16852825 Ry
     Harris-Foulkes estimate   =     -34.16852826 Ry
     estimated scf accuracy    <          9.0E-10 Ry

     The total energy is the sum of the following terms:

     one-electron contribution =     -63.68357520 Ry
     hartree contribution      =      33.24320348 Ry
     xc contribution           =      -8.35387208 Ry
     ewald contribution        =       4.62571554 Ry
     smearing contrib. (-TS)   =       0.00000000 Ry

     convergence has been achieved in   7 iterations

     Forces acting on atoms (Ry/au):

     atom    1 type  1   force =     0.10078900   -0.04024479    0.03449392
     atom    2 type  1   force =     0.02516095    0.03917748   -0.05874222
     atom    3 type  2   force =    -0.12594995    0.00106731    0.02424830

     Total force =     0.187187     Total SCF correction =     0.000056

     number of scf cycles    =   2
     number of bfgs steps    =   1

     energy   old            =     -34.1588408420 Ry
     energy   new            =     -34.1685282525 Ry

     CASE: energy  _new < energy  _old

     new trust radius        =       0.0645241773 bohr
     new conv_thr            =       0.0000000097 Ry


ATOMIC_POSITIONS (angstrom)
H        0.712333999  -0.459694971   0.533725819
H       -0.719826903  -0.275139580   0.582815925
O        0.034256904   0.021098550   0.014664256



     Writing output data file pwscf.save
     Check: negative starting charge=   -0.016056
     NEW-OLD atomic charge density approx. for the potential
     Check: negative starting charge=   -0.016045

     negative rho (up, down):  1.084E-02 0.000E+00

     total cpu time spent up to now is        6.6 secs

     per-process dynamical memory:    45.8 Mb

     Self-consistent Calculation

     iteration #  1     ecut=    90.00 Ry     beta=0.70
     Davidson diagonalization with overlap
     c_bands:  2 eigenvalues not converged
     ethr =  1.00E-06,  avg # of iterations = 20.0

     negative rho (up, down):  2.864E-03 0.000E+00

     total cpu time spent up to now is        7.1 secs

     total energy              =     -34.17311655 Ry
     Harris-Foulkes estimate   =     -34.16396420 Ry
     estimated scf accuracy    <       0.00112099 Ry

     iteration #  2     ecut=    90.00 Ry     beta=0.70
     Davidson diagonalization with overlap
     ethr =  1.40E-05,  avg # of iterations =  8.0

     negative rho (up, down):  9.495E-04 0.000E+00

     total cpu time spent up to now is        7.3 secs

     total energy              =     -34.17520921 Ry
     Harris-Foulkes estimate   =     -34.17344431 Ry
     estimated scf accuracy    <       0.00007612 Ry

     iteration #  3     ecut=    90.00 Ry     beta=0.70
     Davidson diagonalization with overlap
     ethr =  9.51E-07,  avg # of iterations = 19.0

     negative rho (up, down):  1.972E-04 0.000E+00

     total cpu time spent up to now is        7.8 secs

     total energy              =     -34.17934848 Ry
     Harris-Foulkes estimate   =     -34.17930819 Ry
     estimated scf accuracy    <       0.00000892 Ry

     iteration #  4     ecut=    90.00 Ry     beta=0.70
     Davidson diagonalization with overlap
     c_bands:  1 eigenvalues not converged
     ethr =  1.11E-07,  avg # of iterations = 20.0

     negative rho (up, down):  1.427E-05 0.000E+00

     total cpu time spent up to now is        8.1 secs

     total energy              =     -34.17935175 Ry
     Harris-Foulkes estimate   =     -34.17935314 Ry
     estimated scf accuracy    <       0.00000477 Ry

     iteration #  5     ecut=    90.00 Ry     beta=0.70
     Davidson diagonalization with overlap
     ethr =  5.96E-08,  avg # of iterations = 10.0

     total cpu time spent up to now is        8.4 secs

     total energy              =     -34.17935249 Ry
     Harris-Foulkes estimate   =     -34.17935287 Ry
     estimated scf accuracy    <       0.00000006 Ry

     iteration #  6     ecut=    90.00 Ry     beta=0.70
     Davidson diagonalization with overlap
     ethr =  7.28E-10,  avg # of iterations =  2.0

     total cpu time spent up to now is        8.5 secs

     End of self-consistent calculation

          k = 0.0000 0.0000 0.0000 (115313 PWs)   bands (ev):

   -25.2289 -12.2600  -9.6302  -7.1163  -0.9894   0.4081   0.7786   1.1082

     the Fermi energy is    -5.1359 ev

!    total energy              =     -34.17935253 Ry
     Harris-Foulkes estimate   =     -34.17935252 Ry
     estimated scf accuracy    <          1.5E-09 Ry

     The total energy is the sum of the following terms:

     one-electron contribution =     -63.62683577 Ry
     hartree contribution      =      33.22130580 Ry
     xc contribution           =      -8.34964089 Ry
     ewald contribution        =       4.57581832 Ry
     smearing contrib. (-TS)   =       0.00000000 Ry

     convergence has been achieved in   6 iterations

     Forces acting on atoms (Ry/au):

     atom    1 type  1   force =     0.02852877    0.00358590   -0.01165379
     atom    2 type  1   force =    -0.01436139    0.01622819   -0.02003447
     atom    3 type  2   force =    -0.01416737   -0.01981409    0.03168825

     Total force =     0.058575     Total SCF correction =     0.000108

     number of scf cycles    =   3
     number of bfgs steps    =   2

     energy   old            =     -34.1685282525 Ry
     energy   new            =     -34.1793525252 Ry

     CASE: energy  _new < energy  _old

     new trust radius        =       0.0672487010 bohr
     new conv_thr            =       0.0000000032 Ry


ATOMIC_POSITIONS (angstrom)
H        0.743222439  -0.455913159   0.521683546
H       -0.740229640  -0.260325294   0.566386585
O        0.023771202   0.002502453   0.043135870



     Writing output data file pwscf.save
     Check: negative starting charge=   -0.016045
     NEW-OLD atomic charge density approx. for the potential
     Check: negative starting charge=   -0.016022

     negative rho (up, down):  1.224E-02 0.000E+00

     total cpu time spent up to now is        9.1 secs

     per-process dynamical memory:    45.8 Mb

     Self-consistent Calculation

     iteration #  1     ecut=    90.00 Ry     beta=0.70
     Davidson diagonalization with overlap
     c_bands:  1 eigenvalues not converged
     ethr =  1.00E-06,  avg # of iterations = 20.0

     negative rho (up, down):  3.230E-03 0.000E+00

     total cpu time spent up to now is        9.6 secs

     total energy              =     -34.17516715 Ry
     Harris-Foulkes estimate   =     -34.16959965 Ry
     estimated scf accuracy    <       0.00147410 Ry

     iteration #  2     ecut=    90.00 Ry     beta=0.70
     Davidson diagonalization with overlap
     ethr =  1.84E-05,  avg # of iterations =  7.0

     negative rho (up, down):  2.017E-03 0.000E+00

     total cpu time spent up to now is        9.9 secs

     total energy              =     -34.17740242 Ry
     Harris-Foulkes estimate   =     -34.17652682 Ry
     estimated scf accuracy    <       0.00152986 Ry

     iteration #  3     ecut=    90.00 Ry     beta=0.70
     Davidson diagonalization with overlap
     ethr =  1.84E-05,  avg # of iterations =  9.0

     negative rho (up, down):  2.558E-04 0.000E+00

     total cpu time spent up to now is       10.2 secs

     total energy              =     -34.17843770 Ry
     Harris-Foulkes estimate   =     -34.17770673 Ry
     estimated scf accuracy    <       0.00002041 Ry

     iteration #  4     ecut=    90.00 Ry     beta=0.70
     Davidson diagonalization with overlap
     ethr =  2.55E-07,  avg # of iterations = 18.0

     negative rho (up, down):  1.997E-05 0.000E+00

     total cpu time spent up to now is       10.6 secs

     total energy              =     -34.18252650 Ry
     Harris-Foulkes estimate   =     -34.18252549 Ry
     estimated scf accuracy    <       0.00000072 Ry

     iteration #  5     ecut=    90.00 Ry     beta=0.70
     Davidson diagonalization with overlap
     ethr =  9.06E-09,  avg # of iterations =  4.0

     total cpu time spent up to now is       10.8 secs

     total energy              =     -34.18252553 Ry
     Harris-Foulkes estimate   =     -34.18252666 Ry
     estimated scf accuracy    <       0.00000003 Ry

     iteration #  6     ecut=    90.00 Ry     beta=0.70
     Davidson diagonalization with overlap
     ethr =  4.28E-10,  avg # of iterations =  2.0

     total cpu time spent up to now is       10.9 secs

     End of self-consistent calculation

          k = 0.0000 0.0000 0.0000 (115313 PWs)   bands (ev):

   -25.2626 -12.7241  -9.3177  -7.1113  -0.9250   0.4317   0.7929   1.1126

     the Fermi energy is    -5.1411 ev

!    total energy              =     -34.18252548 Ry
     Harris-Foulkes estimate   =     -34.18252554 Ry
     estimated scf accuracy    <          7.3E-10 Ry

     The total energy is the sum of the following terms:

     one-electron contribution =     -63.92148046 Ry
     hartree contribution      =      33.37202552 Ry
     xc contribution           =      -8.37503836 Ry
     ewald contribution        =       4.74196782 Ry
     smearing contrib. (-TS)   =       0.00000000 Ry

     convergence has been achieved in   6 iterations

     Forces acting on atoms (Ry/au):

     atom    1 type  1   force =     0.01130578   -0.00025029   -0.00224006
     atom    2 type  1   force =    -0.03763595   -0.00584773    0.01584899
     atom    3 type  2   force =     0.02633017    0.00609802   -0.01360893

     Total force =     0.052444     Total SCF correction =     0.000092

     number of scf cycles    =   4
     number of bfgs steps    =   3

     energy   old            =     -34.1793525252 Ry
     energy   new            =     -34.1825254790 Ry

     CASE: energy  _new < energy  _old

     new trust radius        =       0.0516093272 bohr
     new conv_thr            =       0.0000000032 Ry


ATOMIC_POSITIONS (angstrom)
H        0.766449167  -0.456881192   0.517971404
H       -0.767207493  -0.256083792   0.566126874
O        0.027522326  -0.000771016   0.047107722



     Writing output data file pwscf.save
     Check: negative starting charge=   -0.016022
     NEW-OLD atomic charge density approx. for the potential
     Check: negative starting charge=   -0.015999

     negative rho (up, down):  1.972E-03 0.000E+00

     total cpu time spent up to now is       11.5 secs

     per-process dynamical memory:    45.8 Mb

     Self-consistent Calculation

     iteration #  1     ecut=    90.00 Ry     beta=0.70
     Davidson diagonalization with overlap
     c_bands:  1 eigenvalues not converged
     ethr =  1.00E-06,  avg # of iterations = 20.0

     negative rho (up, down):  5.053E-04 0.000E+00

     total cpu time spent up to now is       12.0 secs

     total energy              =     -34.17925825 Ry
     Harris-Foulkes estimate   =     -34.17892183 Ry
     estimated scf accuracy    <       0.00053847 Ry

     iteration #  2     ecut=    90.00 Ry     beta=0.70
     Davidson diagonalization with overlap
     ethr =  6.73E-06,  avg # of iterations =  6.0

     negative rho (up, down):  2.936E-04 0.000E+00

     total cpu time spent up to now is       12.3 secs

     total energy              =     -34.18342064 Ry
     Harris-Foulkes estimate   =     -34.18363080 Ry
     estimated scf accuracy    <       0.00041988 Ry

     iteration #  3     ecut=    90.00 Ry     beta=0.70
     Davidson diagonalization with overlap
     ethr =  5.25E-06,  avg # of iterations =  2.0

     negative rho (up, down):  3.103E-05 0.000E+00

     total cpu time spent up to now is       12.5 secs

     total energy              =     -34.18351971 Ry
     Harris-Foulkes estimate   =     -34.18352223 Ry
     estimated scf accuracy    <       0.00001282 Ry

     iteration #  4     ecut=    90.00 Ry     beta=0.70
     Davidson diagonalization with overlap
     c_bands:  1 eigenvalues not converged
     ethr =  1.60E-07,  avg # of iterations = 20.0

     negative rho (up, down):  6.917E-07 0.000E+00

     total cpu time spent up to now is       12.8 secs

     total energy              =     -34.18352165 Ry
     Harris-Foulkes estimate   =     -34.18352239 Ry
     estimated scf accuracy    <       0.00000017 Ry

     iteration #  5     ecut=    90.00 Ry     beta=0.70
     Davidson diagonalization with overlap
     ethr =  2.13E-09,  avg # of iterations = 16.0

     total cpu time spent up to now is       13.0 secs

     total energy              =     -34.18352158 Ry
     Harris-Foulkes estimate   =     -34.18352170 Ry
     estimated scf accuracy    <          8.3E-09 Ry

     iteration #  6     ecut=    90.00 Ry     beta=0.70
     Davidson diagonalization with overlap
     ethr =  1.04E-10,  avg # of iterations =  2.0

     total cpu time spent up to now is       13.2 secs

     End of self-consistent calculation

          k = 0.0000 0.0000 0.0000 (115313 PWs)   bands (ev):

   -25.0511 -12.7122  -9.1670  -7.0700  -0.9616   0.4216   0.7532   1.1117

     the Fermi energy is    -5.0889 ev

!    total energy              =     -34.18352159 Ry
     Harris-Foulkes estimate   =     -34.18352158 Ry
     estimated scf accuracy    <          5.4E-10 Ry

     The total energy is the sum of the following terms:

     one-electron contribution =     -63.55916845 Ry
     hartree contribution      =      33.20340112 Ry
     xc contribution           =      -8.34749765 Ry
     ewald contribution        =       4.51974340 Ry
     smearing contrib. (-TS)   =       0.00000000 Ry

     convergence has been achieved in   6 iterations

     Forces acting on atoms (Ry/au):

     atom    1 type  1   force =    -0.01039238    0.00575969   -0.00578117
     atom    2 type  1   force =     0.00283316    0.00077579   -0.00165611
     atom    3 type  2   force =     0.00755921   -0.00653548    0.00743728

     Total force =     0.018470     Total SCF correction =     0.000089

     number of scf cycles    =   5
     number of bfgs steps    =   4

     energy   old            =     -34.1825254790 Ry
     energy   new            =     -34.1835215868 Ry

     CASE: energy  _new < energy  _old

     new trust radius        =       0.0089856131 bohr
     new conv_thr            =       0.0000000010 Ry


ATOMIC_POSITIONS (angstrom)
H        0.761936475  -0.455607092   0.517182648
H       -0.764640860  -0.256203225   0.565794468
O        0.029468385  -0.001925683   0.048228883



     Writing output data file pwscf.save
     Check: negative starting charge=   -0.015999
     NEW-OLD atomic charge density approx. for the potential
     Check: negative starting charge=   -0.015999

     negative rho (up, down):  7.024E-04 0.000E+00

     total cpu time spent up to now is       13.8 secs

     per-process dynamical memory:    45.8 Mb

     Self-consistent Calculation

     iteration #  1     ecut=    90.00 Ry     beta=0.70
     Davidson diagonalization with overlap
     ethr =  1.00E-06,  avg # of iterations =  5.0

     negative rho (up, down):  1.692E-04 0.000E+00

     total cpu time spent up to now is       14.1 secs

     total energy              =     -34.18359909 Ry
     Harris-Foulkes estimate   =     -34.18361513 Ry
     estimated scf accuracy    <       0.00004263 Ry

     iteration #  2     ecut=    90.00 Ry     beta=0.70
     Davidson diagonalization with overlap
     ethr =  5.33E-07,  avg # of iterations =  3.0

     negative rho (up, down):  9.551E-05 0.000E+00

     total cpu time spent up to now is       14.3 secs

     total energy              =     -34.18360871 Ry
     Harris-Foulkes estimate   =     -34.18362640 Ry
     estimated scf accuracy    <       0.00003738 Ry

     iteration #  3     ecut=    90.00 Ry     beta=0.70
     Davidson diagonalization with overlap
     ethr =  4.67E-07,  avg # of iterations =  2.0

     negative rho (up, down):  1.408E-05 0.000E+00

     total cpu time spent up to now is       14.5 secs

     total energy              =     -34.18361653 Ry
     Harris-Foulkes estimate   =     -34.18361714 Ry
     estimated scf accuracy    <       0.00000055 Ry

     iteration #  4     ecut=    90.00 Ry     beta=0.70
     Davidson diagonalization with overlap
     ethr =  6.93E-09,  avg # of iterations =  2.0

     negative rho (up, down):  3.063E-07 0.000E+00

     total cpu time spent up to now is       14.7 secs

     total energy              =     -34.18361669 Ry
     Harris-Foulkes estimate   =     -34.18361671 Ry
     estimated scf accuracy    <       0.00000001 Ry

     iteration #  5     ecut=    90.00 Ry     beta=0.70
     Davidson diagonalization with overlap
     ethr =  1.60E-10,  avg # of iterations =  3.0

     total cpu time spent up to now is       14.8 secs

     End of self-consistent calculation

          k = 0.0000 0.0000 0.0000 (115313 PWs)   bands (ev):

   -25.0968 -12.7475  -9.1763  -7.0781  -0.9491   0.4259   0.7632   1.1124

     the Fermi energy is    -5.0998 ev

!    total energy              =     -34.18361662 Ry
     Harris-Foulkes estimate   =     -34.18361670 Ry
     estimated scf accuracy    <          7.3E-10 Ry

     The total energy is the sum of the following terms:

     one-electron contribution =     -63.65561467 Ry
     hartree contribution      =      33.24917779 Ry
     xc contribution           =      -8.35497046 Ry
     ewald contribution        =       4.57779072 Ry
     smearing contrib. (-TS)   =       0.00000000 Ry

     convergence has been achieved in   5 iterations

     Forces acting on atoms (Ry/au):

     atom    1 type  1   force =    -0.00023394    0.00007386   -0.00006162
     atom    2 type  1   force =     0.00029275    0.00037668   -0.00052100
     atom    3 type  2   force =    -0.00005881   -0.00045054    0.00058261

     Total force =     0.001053     Total SCF correction =     0.000386
     SCF correction compared to forces is large: reduce conv_thr to get better values

     bfgs converged in   6 scf cycles and   5 bfgs steps
     (criteria: energy <  1.0E-04, force <  1.0E-03)

     End of BFGS Geometry Optimization

     Final energy   =     -34.1836166222 Ry
Begin final coordinates

ATOMIC_POSITIONS (angstrom)
H        0.761936475  -0.455607092   0.517182648
H       -0.764640860  -0.256203225   0.565794468
O        0.029468385  -0.001925683   0.048228883
End final coordinates



     Writing output data file pwscf.save
 
     init_run     :      0.51s CPU      0.55s WALL (       1 calls)
     electrons    :     10.25s CPU     12.03s WALL (       6 calls)
     update_pot   :      1.23s CPU      1.48s WALL (       5 calls)
     forces       :      0.40s CPU      0.40s WALL (       6 calls)

     Called by init_run:
     wfcinit      :      0.03s CPU      0.04s WALL (       1 calls)
     potinit      :      0.11s CPU      0.11s WALL (       1 calls)

     Called by electrons:
     c_bands      :      5.26s CPU      5.41s WALL (      38 calls)
     sum_band     :      0.79s CPU      0.81s WALL (      38 calls)
     v_of_rho     :      2.26s CPU      2.38s WALL (      44 calls)
     mix_rho      :      1.47s CPU      2.16s WALL (      38 calls)

     Called by c_bands:
     init_us_2    :      0.02s CPU      0.02s WALL (      77 calls)
     cegterg      :      5.24s CPU      5.37s WALL (      38 calls)

     Called by sum_band:

     Called by *egterg:
     h_psi        :      4.43s CPU      4.55s WALL (     367 calls)
     g_psi        :      0.04s CPU      0.04s WALL (     328 calls)
     cdiaghg      :      0.09s CPU      0.09s WALL (     361 calls)

     Called by h_psi:
     h_psi:pot    :      4.39s CPU      4.51s WALL (     367 calls)
     h_psi:calbec :      0.14s CPU      0.15s WALL (     367 calls)
     vloc_psi     :      4.22s CPU      4.32s WALL (     367 calls)
     add_vuspsi   :      0.03s CPU      0.03s WALL (     367 calls)

     General routines
     calbec       :      0.14s CPU      0.16s WALL (     391 calls)
     fft          :      1.58s CPU      1.71s WALL (     495 calls)
     fftw         :      4.10s CPU      4.21s WALL (    3108 calls)
     davcio       :      0.10s CPU      0.63s WALL (     267 calls)
 
     Parallel routines
     fft_scatter  :      2.03s CPU      2.26s WALL (    3603 calls)
 
     PWSCF        :    12.88s CPU        15.31s WALL

 
   This run was terminated on:   2:39: 9  28Jul2018            

=------------------------------------------------------------------------------=
   JOB DONE.
=------------------------------------------------------------------------------=
