
     Program PWSCF v.6.0 (svn rev. 13079) starts on 28Jul2018 at  2:44:46 

     This program is part of the open-source Quantum ESPRESSO suite
     for quantum simulation of materials; please cite
         "P. Giannozzi et al., J. Phys.:Condens. Matter 21 395502 (2009);
          URL http://www.quantum-espresso.org", 
     in publications or presentations arising from this work. More details at
     http://www.quantum-espresso.org/quote

     Parallel version (MPI), running on    28 processors
     R & G space division:  proc/nbgrp/npool/nimage =      28
     Reading input from ../QMCmins/relax-81.in

     Current dimensions of program PWSCF are:
     Max number of different atomic species (ntypx) = 10
     Max number of k-points (npk) =  40000
     Max angular momentum in pseudopotentials (lmaxx) =  3
     Message from routine iosys:
     pot_extrapolation='second-order' not available, using 'atomic'
     Message from routine iosys:
     wfc_extrapolation='second-order' not available, using 'atomic'

     Subspace diagonalization in iterative solution of the eigenvalue problem:
     a serial algorithm will be used

 
     Parallelization info
     --------------------
     sticks:   dense  smooth     PW     G-vecs:    dense   smooth      PW
     Min         408     408    102                32936    32936    4116
     Max         409     409    103                32943    32943    4121
     Sum       11449   11449   2869               922329   922329  115313
 


     bravais-lattice index     =            1
     lattice parameter (alat)  =      20.0000  a.u.
     unit-cell volume          =    8000.0000 (a.u.)^3
     number of atoms/cell      =            3
     number of atomic types    =            2
     number of electrons       =         8.00
     number of Kohn-Sham states=            8
     kinetic-energy cutoff     =      90.0000  Ry
     charge density cutoff     =     360.0000  Ry
     convergence threshold     =      1.0E-08
     mixing beta               =       0.7000
     number of iterations used =            8  plain     mixing
     Exchange-correlation      = BLYP ( 1  3  1  3 0 0)
     nstep                     =           50


     celldm(1)=  20.000000  celldm(2)=   0.000000  celldm(3)=   0.000000
     celldm(4)=   0.000000  celldm(5)=   0.000000  celldm(6)=   0.000000

     crystal axes: (cart. coord. in units of alat)
               a(1) = (   1.000000   0.000000   0.000000 )  
               a(2) = (   0.000000   1.000000   0.000000 )  
               a(3) = (   0.000000   0.000000   1.000000 )  

     reciprocal axes: (cart. coord. in units 2 pi/alat)
               b(1) = (  1.000000  0.000000  0.000000 )  
               b(2) = (  0.000000  1.000000  0.000000 )  
               b(3) = (  0.000000  0.000000  1.000000 )  


     PseudoPot. # 1 for  H read from file:
     ../H.blyp-hgh.UPF
     MD5 check sum: c576e69559cde411e611be972c763230
     Pseudo is Norm-conserving, Zval =  1.0
     Generated in analytical, separable form
     Using radial grid of  929 points,  0 beta functions with: 

     PseudoPot. # 2 for  O read from file:
     ../O.blyp-hgh.UPF
     MD5 check sum: d0b7156309aa9befef28faac7bc56342
     Pseudo is Norm-conserving, Zval =  6.0
     Generated in analytical, separable form
     Using radial grid of 1095 points,  1 beta functions with: 
                l(1) =   0

     atomic species   valence    mass     pseudopotential
        H              1.00     1.01000      H( 1.00)
        O              6.00    16.00000      O( 1.00)

     No symmetry found



   Cartesian axes

     site n.     atom                  positions (alat units)
         1           H   tau(   1) = (  -0.0582236  -0.0339823   0.0663292  )
         2           H   tau(   2) = (   0.0025642  -0.0572256  -0.0739263  )
         3           O   tau(   3) = (   0.0035135   0.0057575   0.0060575  )

     number of k points=     1  Marzari-Vanderbilt smearing, width (Ry)=  0.0250
                       cart. coord. in units 2pi/alat
        k(    1) = (   0.0000000   0.0000000   0.0000000), wk =   2.0000000

     Dense  grid:   922329 G-vectors     FFT dimensions: ( 125, 125, 125)

     Estimated max dynamical RAM per process >      31.67Mb

     Estimated total allocated dynamical RAM >     886.64Mb

     Initial potential from superposition of free atoms
     Check: negative starting charge=   -0.015889

     starting charge    7.99998, renormalised to    8.00000

     negative rho (up, down):  1.589E-02 0.000E+00
     Starting wfc are    6 randomized atomic wfcs +    2 random wfc

     total cpu time spent up to now is        0.8 secs

     per-process dynamical memory:    33.5 Mb

     Self-consistent Calculation

     iteration #  1     ecut=    90.00 Ry     beta=0.70
     Davidson diagonalization with overlap
     ethr =  1.00E-02,  avg # of iterations =  7.0

     negative rho (up, down):  4.602E-03 0.000E+00

     total cpu time spent up to now is        1.0 secs

     total energy              =     -34.02663563 Ry
     Harris-Foulkes estimate   =     -34.24304711 Ry
     estimated scf accuracy    <       0.33017594 Ry

     iteration #  2     ecut=    90.00 Ry     beta=0.70
     Davidson diagonalization with overlap
     ethr =  4.13E-03,  avg # of iterations =  2.0

     negative rho (up, down):  2.932E-03 0.000E+00

     total cpu time spent up to now is        1.2 secs

     total energy              =     -34.06901237 Ry
     Harris-Foulkes estimate   =     -34.27294176 Ry
     estimated scf accuracy    <       0.45913273 Ry

     iteration #  3     ecut=    90.00 Ry     beta=0.70
     Davidson diagonalization with overlap
     ethr =  4.13E-03,  avg # of iterations =  2.0

     negative rho (up, down):  1.440E-04 0.000E+00

     total cpu time spent up to now is        1.4 secs

     total energy              =     -34.16763694 Ry
     Harris-Foulkes estimate   =     -34.16816009 Ry
     estimated scf accuracy    <       0.00581780 Ry

     iteration #  4     ecut=    90.00 Ry     beta=0.70
     Davidson diagonalization with overlap
     ethr =  7.27E-05,  avg # of iterations =  5.0

     negative rho (up, down):  7.509E-06 0.000E+00

     total cpu time spent up to now is        1.7 secs

     total energy              =     -34.16916333 Ry
     Harris-Foulkes estimate   =     -34.16926355 Ry
     estimated scf accuracy    <       0.00027433 Ry

     iteration #  5     ecut=    90.00 Ry     beta=0.70
     Davidson diagonalization with overlap
     c_bands:  1 eigenvalues not converged
     ethr =  3.43E-06,  avg # of iterations = 20.0

     negative rho (up, down):  4.579E-06 0.000E+00

     total cpu time spent up to now is        2.0 secs

     total energy              =     -34.16918166 Ry
     Harris-Foulkes estimate   =     -34.16918593 Ry
     estimated scf accuracy    <       0.00001869 Ry

     iteration #  6     ecut=    90.00 Ry     beta=0.70
     Davidson diagonalization with overlap
     ethr =  2.34E-07,  avg # of iterations = 15.0

     negative rho (up, down):  9.749E-08 0.000E+00

     total cpu time spent up to now is        2.3 secs

     total energy              =     -34.16918356 Ry
     Harris-Foulkes estimate   =     -34.16918404 Ry
     estimated scf accuracy    <       0.00000024 Ry

     iteration #  7     ecut=    90.00 Ry     beta=0.70
     Davidson diagonalization with overlap
     ethr =  3.01E-09,  avg # of iterations =  2.0

     total cpu time spent up to now is        2.5 secs

     total energy              =     -34.16918340 Ry
     Harris-Foulkes estimate   =     -34.16918362 Ry
     estimated scf accuracy    <       0.00000002 Ry

     iteration #  8     ecut=    90.00 Ry     beta=0.70
     Davidson diagonalization with overlap
     ethr =  1.99E-10,  avg # of iterations =  2.0

     total cpu time spent up to now is        2.6 secs

     End of self-consistent calculation

          k = 0.0000 0.0000 0.0000 (115313 PWs)   bands (ev):

   -24.5170 -12.2271  -9.0809  -6.9728  -1.1726   0.3467   0.6032   1.1116

     the Fermi energy is    -4.9554 ev

!    total energy              =     -34.16918332 Ry
     Harris-Foulkes estimate   =     -34.16918341 Ry
     estimated scf accuracy    <          4.8E-09 Ry

     The total energy is the sum of the following terms:

     one-electron contribution =     -62.34414577 Ry
     hartree contribution      =      32.62371610 Ry
     xc contribution           =      -8.25515398 Ry
     ewald contribution        =       3.80640033 Ry
     smearing contrib. (-TS)   =       0.00000000 Ry

     convergence has been achieved in   8 iterations

     Forces acting on atoms (Ry/au):

     atom    1 type  1   force =     0.02529482    0.01273858   -0.02973482
     atom    2 type  1   force =    -0.00299188    0.07813606    0.10662758
     atom    3 type  2   force =    -0.02230294   -0.09087464   -0.07689276

     Total force =     0.183951     Total SCF correction =     0.000150

     BFGS Geometry Optimization

     number of scf cycles    =   1
     number of bfgs steps    =   0

     energy   new            =     -34.1691833214 Ry

     new trust radius        =       0.1322256963 bohr
     new conv_thr            =       0.0000000100 Ry


ATOMIC_POSITIONS (angstrom)
H       -0.602826556  -0.352912032   0.686263011
H        0.025554764  -0.564302179  -0.725977117
O        0.025382793   0.012846211   0.023420106



     Writing output data file pwscf.save
     Check: negative starting charge=   -0.015889
     NEW-OLD atomic charge density approx. for the potential
     Check: negative starting charge=   -0.015956

     negative rho (up, down):  2.159E-02 0.000E+00

     total cpu time spent up to now is        3.3 secs

     per-process dynamical memory:    45.8 Mb

     Self-consistent Calculation

     iteration #  1     ecut=    90.00 Ry     beta=0.70
     Davidson diagonalization with overlap
     ethr =  1.00E-06,  avg # of iterations = 20.0

     negative rho (up, down):  5.656E-03 0.000E+00

     total cpu time spent up to now is        3.7 secs

     total energy              =     -34.16533289 Ry
     Harris-Foulkes estimate   =     -34.15523674 Ry
     estimated scf accuracy    <       0.01548915 Ry

     iteration #  2     ecut=    90.00 Ry     beta=0.70
     Davidson diagonalization with overlap
     ethr =  1.94E-04,  avg # of iterations =  3.0

     negative rho (up, down):  3.447E-03 0.000E+00

     total cpu time spent up to now is        3.9 secs

     total energy              =     -34.17095704 Ry
     Harris-Foulkes estimate   =     -34.17579668 Ry
     estimated scf accuracy    <       0.01474880 Ry

     iteration #  3     ecut=    90.00 Ry     beta=0.70
     Davidson diagonalization with overlap
     ethr =  1.84E-04,  avg # of iterations =  2.0

     negative rho (up, down):  6.952E-04 0.000E+00

     total cpu time spent up to now is        4.1 secs

     total energy              =     -34.17640050 Ry
     Harris-Foulkes estimate   =     -34.17406986 Ry
     estimated scf accuracy    <       0.00011295 Ry

     iteration #  4     ecut=    90.00 Ry     beta=0.70
     Davidson diagonalization with overlap
     ethr =  1.41E-06,  avg # of iterations = 18.0

     negative rho (up, down):  1.410E-04 0.000E+00

     total cpu time spent up to now is        4.5 secs

     total energy              =     -34.18056611 Ry
     Harris-Foulkes estimate   =     -34.18054919 Ry
     estimated scf accuracy    <       0.00000403 Ry

     iteration #  5     ecut=    90.00 Ry     beta=0.70
     Davidson diagonalization with overlap
     ethr =  5.04E-08,  avg # of iterations = 12.0

     negative rho (up, down):  1.913E-07 0.000E+00

     total cpu time spent up to now is        4.9 secs

     total energy              =     -34.18056305 Ry
     Harris-Foulkes estimate   =     -34.18056713 Ry
     estimated scf accuracy    <       0.00000028 Ry

     iteration #  6     ecut=    90.00 Ry     beta=0.70
     Davidson diagonalization with overlap
     ethr =  3.52E-09,  avg # of iterations =  4.0

     total cpu time spent up to now is        5.1 secs

     End of self-consistent calculation

          k = 0.0000 0.0000 0.0000 (115313 PWs)   bands (ev):

   -25.2053 -13.1087  -8.9835  -7.0888  -0.8970   0.4420   0.7785   1.1270

     the Fermi energy is    -5.1159 ev

!    total energy              =     -34.18056274 Ry
     Harris-Foulkes estimate   =     -34.18056316 Ry
     estimated scf accuracy    <          6.5E-09 Ry

     The total energy is the sum of the following terms:

     one-electron contribution =     -64.01699345 Ry
     hartree contribution      =      33.42802810 Ry
     xc contribution           =      -8.38439054 Ry
     ewald contribution        =       4.79279316 Ry
     smearing contrib. (-TS)   =       0.00000000 Ry

     convergence has been achieved in   6 iterations

     Forces acting on atoms (Ry/au):

     atom    1 type  1   force =     0.00447574   -0.00458260   -0.01449575
     atom    2 type  1   force =    -0.00762758   -0.04978169   -0.05131869
     atom    3 type  2   force =     0.00315185    0.05436429    0.06581444

     Total force =     0.112775     Total SCF correction =     0.000305

     number of scf cycles    =   2
     number of bfgs steps    =   1

     energy   old            =     -34.1691833214 Ry
     energy   new            =     -34.1805627376 Ry

     CASE: energy  _new < energy  _old

     new trust radius        =       0.0517298733 bohr
     new conv_thr            =       0.0000000066 Ry


ATOMIC_POSITIONS (angstrom)
H       -0.600960321  -0.354292368   0.680935258
H        0.022925064  -0.580124180  -0.741929575
O        0.026146256   0.030048548   0.044700317



     Writing output data file pwscf.save
     Check: negative starting charge=   -0.015956
     NEW-OLD atomic charge density approx. for the potential
     Check: negative starting charge=   -0.015939

     negative rho (up, down):  9.325E-03 0.000E+00

     total cpu time spent up to now is        5.7 secs

     per-process dynamical memory:    45.8 Mb

     Self-consistent Calculation

     iteration #  1     ecut=    90.00 Ry     beta=0.70
     Davidson diagonalization with overlap
     c_bands:  1 eigenvalues not converged
     ethr =  1.00E-06,  avg # of iterations = 20.0

     negative rho (up, down):  2.431E-03 0.000E+00

     total cpu time spent up to now is        6.2 secs

     total energy              =     -34.17693783 Ry
     Harris-Foulkes estimate   =     -34.16771862 Ry
     estimated scf accuracy    <       0.00164097 Ry

     iteration #  2     ecut=    90.00 Ry     beta=0.70
     Davidson diagonalization with overlap
     ethr =  2.05E-05,  avg # of iterations =  7.0

     negative rho (up, down):  1.393E-03 0.000E+00

     total cpu time spent up to now is        6.5 secs

     total energy              =     -34.17833982 Ry
     Harris-Foulkes estimate   =     -34.17781001 Ry
     estimated scf accuracy    <       0.00101098 Ry

     iteration #  3     ecut=    90.00 Ry     beta=0.70
     Davidson diagonalization with overlap
     ethr =  1.26E-05,  avg # of iterations = 10.0

     negative rho (up, down):  4.295E-04 0.000E+00

     total cpu time spent up to now is        6.7 secs

     total energy              =     -34.17878131 Ry
     Harris-Foulkes estimate   =     -34.17861056 Ry
     estimated scf accuracy    <       0.00005251 Ry

     iteration #  4     ecut=    90.00 Ry     beta=0.70
     Davidson diagonalization with overlap
     ethr =  6.56E-07,  avg # of iterations = 16.0

     negative rho (up, down):  1.719E-05 0.000E+00

     total cpu time spent up to now is        7.0 secs

     total energy              =     -34.18287802 Ry
     Harris-Foulkes estimate   =     -34.18287101 Ry
     estimated scf accuracy    <       0.00000098 Ry

     iteration #  5     ecut=    90.00 Ry     beta=0.70
     Davidson diagonalization with overlap
     c_bands:  1 eigenvalues not converged
     ethr =  1.23E-08,  avg # of iterations = 20.0

     negative rho (up, down):  3.588E-08 0.000E+00

     total cpu time spent up to now is        7.3 secs

     total energy              =     -34.18287837 Ry
     Harris-Foulkes estimate   =     -34.18287846 Ry
     estimated scf accuracy    <       0.00000003 Ry

     iteration #  6     ecut=    90.00 Ry     beta=0.70
     Davidson diagonalization with overlap
     ethr =  3.75E-10,  avg # of iterations =  2.0

     total cpu time spent up to now is        7.5 secs

     End of self-consistent calculation

          k = 0.0000 0.0000 0.0000 (115313 PWs)   bands (ev):

   -25.0272 -12.8327  -9.0533  -7.0613  -0.9539   0.4238   0.7426   1.1234

     the Fermi energy is    -5.0741 ev

!    total energy              =     -34.18287843 Ry
     Harris-Foulkes estimate   =     -34.18287838 Ry
     estimated scf accuracy    <          1.8E-09 Ry

     The total energy is the sum of the following terms:

     one-electron contribution =     -63.57910515 Ry
     hartree contribution      =      33.21675272 Ry
     xc contribution           =      -8.34975565 Ry
     ewald contribution        =       4.52922965 Ry
     smearing contrib. (-TS)   =       0.00000000 Ry

     convergence has been achieved in   6 iterations

     Forces acting on atoms (Ry/au):

     atom    1 type  1   force =    -0.01091262   -0.01119171    0.00498093
     atom    2 type  1   force =    -0.00482148    0.01364880    0.02624687
     atom    3 type  2   force =     0.01573411   -0.00245709   -0.03122780

     Total force =     0.048953     Total SCF correction =     0.000172

     number of scf cycles    =   3
     number of bfgs steps    =   2

     energy   old            =     -34.1805627376 Ry
     energy   new            =     -34.1828784326 Ry

     CASE: energy  _new < energy  _old

     new trust radius        =       0.0198632718 bohr
     new conv_thr            =       0.0000000023 Ry


ATOMIC_POSITIONS (angstrom)
H       -0.605128592  -0.359114425   0.682096388
H        0.020512279  -0.578476059  -0.735534188
O        0.032727313   0.033222484   0.037143800



     Writing output data file pwscf.save
     Check: negative starting charge=   -0.015939
     NEW-OLD atomic charge density approx. for the potential
     Check: negative starting charge=   -0.015940

     negative rho (up, down):  3.401E-03 0.000E+00

     total cpu time spent up to now is        8.0 secs

     per-process dynamical memory:    45.8 Mb

     Self-consistent Calculation

     iteration #  1     ecut=    90.00 Ry     beta=0.70
     Davidson diagonalization with overlap
     c_bands:  1 eigenvalues not converged
     ethr =  1.00E-06,  avg # of iterations = 20.0

     negative rho (up, down):  8.785E-04 0.000E+00

     total cpu time spent up to now is        8.5 secs

     total energy              =     -34.17926116 Ry
     Harris-Foulkes estimate   =     -34.17686889 Ry
     estimated scf accuracy    <       0.00014666 Ry

     iteration #  2     ecut=    90.00 Ry     beta=0.70
     Davidson diagonalization with overlap
     ethr =  1.83E-06,  avg # of iterations = 20.0

     negative rho (up, down):  3.976E-04 0.000E+00

     total cpu time spent up to now is        8.8 secs

     total energy              =     -34.18339580 Ry
     Harris-Foulkes estimate   =     -34.18339383 Ry
     estimated scf accuracy    <       0.00003620 Ry

     iteration #  3     ecut=    90.00 Ry     beta=0.70
     Davidson diagonalization with overlap
     ethr =  4.53E-07,  avg # of iterations =  4.0

     negative rho (up, down):  1.396E-04 0.000E+00

     total cpu time spent up to now is        9.0 secs

     total energy              =     -34.18340886 Ry
     Harris-Foulkes estimate   =     -34.18340948 Ry
     estimated scf accuracy    <       0.00000831 Ry

     iteration #  4     ecut=    90.00 Ry     beta=0.70
     Davidson diagonalization with overlap
     ethr =  1.04E-07,  avg # of iterations = 10.0

     negative rho (up, down):  1.306E-06 0.000E+00

     total cpu time spent up to now is        9.3 secs

     total energy              =     -34.18341346 Ry
     Harris-Foulkes estimate   =     -34.18341088 Ry
     estimated scf accuracy    <       0.00000025 Ry

     iteration #  5     ecut=    90.00 Ry     beta=0.70
     Davidson diagonalization with overlap
     ethr =  3.13E-09,  avg # of iterations =  4.0

     total cpu time spent up to now is        9.5 secs

     total energy              =     -34.18341377 Ry
     Harris-Foulkes estimate   =     -34.18341357 Ry
     estimated scf accuracy    <          3.9E-09 Ry

     iteration #  6     ecut=    90.00 Ry     beta=0.70
     Davidson diagonalization with overlap
     ethr =  4.82E-11,  avg # of iterations =  3.0

     total cpu time spent up to now is        9.8 secs

     End of self-consistent calculation

          k = 0.0000 0.0000 0.0000 (115313 PWs)   bands (ev):

   -25.0090 -12.7639  -9.0938  -7.0600  -0.9625   0.4216   0.7379   1.1211

     the Fermi energy is    -5.0712 ev

!    total energy              =     -34.18341382 Ry
     Harris-Foulkes estimate   =     -34.18341377 Ry
     estimated scf accuracy    <          2.9E-10 Ry

     The total energy is the sum of the following terms:

     one-electron contribution =     -63.51535351 Ry
     hartree contribution      =      33.18483673 Ry
     xc contribution           =      -8.34450594 Ry
     ewald contribution        =       4.49160890 Ry
     smearing contrib. (-TS)   =       0.00000000 Ry

     convergence has been achieved in   6 iterations

     Forces acting on atoms (Ry/au):

     atom    1 type  1   force =     0.00867040    0.00227875   -0.01310036
     atom    2 type  1   force =    -0.00320962    0.00334226    0.00981632
     atom    3 type  2   force =    -0.00546078   -0.00562101    0.00328404

     Total force =     0.021024     Total SCF correction =     0.000041

     number of scf cycles    =   4
     number of bfgs steps    =   3

     energy   old            =     -34.1828784326 Ry
     energy   new            =     -34.1834138200 Ry

     CASE: energy  _new < energy  _old

     new trust radius        =       0.0136717525 bohr
     new conv_thr            =       0.0000000005 Ry


ATOMIC_POSITIONS (angstrom)
H       -0.601862345  -0.359325419   0.675690794
H        0.018169293  -0.576533480  -0.728970741
O        0.031804052   0.031490899   0.036985947



     Writing output data file pwscf.save
     Check: negative starting charge=   -0.015940
     NEW-OLD atomic charge density approx. for the potential
     Check: negative starting charge=   -0.015946

     negative rho (up, down):  5.230E-04 0.000E+00

     total cpu time spent up to now is       10.4 secs

     per-process dynamical memory:    45.8 Mb

     Self-consistent Calculation

     iteration #  1     ecut=    90.00 Ry     beta=0.70
     Davidson diagonalization with overlap
     ethr =  1.00E-06,  avg # of iterations =  4.0

     negative rho (up, down):  1.223E-04 0.000E+00

     total cpu time spent up to now is       10.6 secs

     total energy              =     -34.18354654 Ry
     Harris-Foulkes estimate   =     -34.18361892 Ry
     estimated scf accuracy    <       0.00011810 Ry

     iteration #  2     ecut=    90.00 Ry     beta=0.70
     Davidson diagonalization with overlap
     ethr =  1.48E-06,  avg # of iterations =  2.0

     negative rho (up, down):  6.902E-05 0.000E+00

     total cpu time spent up to now is       10.8 secs

     total energy              =     -34.18357094 Ry
     Harris-Foulkes estimate   =     -34.18362614 Ry
     estimated scf accuracy    <       0.00011434 Ry

     iteration #  3     ecut=    90.00 Ry     beta=0.70
     Davidson diagonalization with overlap
     ethr =  1.43E-06,  avg # of iterations =  2.0

     negative rho (up, down):  6.655E-06 0.000E+00

     total cpu time spent up to now is       11.0 secs

     total energy              =     -34.18359494 Ry
     Harris-Foulkes estimate   =     -34.18359560 Ry
     estimated scf accuracy    <       0.00000106 Ry

     iteration #  4     ecut=    90.00 Ry     beta=0.70
     Davidson diagonalization with overlap
     ethr =  1.32E-08,  avg # of iterations =  2.0

     negative rho (up, down):  1.272E-07 0.000E+00

     total cpu time spent up to now is       11.2 secs

     total energy              =     -34.18359544 Ry
     Harris-Foulkes estimate   =     -34.18359528 Ry
     estimated scf accuracy    <       0.00000002 Ry

     iteration #  5     ecut=    90.00 Ry     beta=0.70
     Davidson diagonalization with overlap
     ethr =  3.05E-10,  avg # of iterations =  2.0

     total cpu time spent up to now is       11.4 secs

     total energy              =     -34.18359550 Ry
     Harris-Foulkes estimate   =     -34.18359544 Ry
     estimated scf accuracy    <          1.1E-09 Ry

     iteration #  6     ecut=    90.00 Ry     beta=0.70
     Davidson diagonalization with overlap
     ethr =  1.42E-11,  avg # of iterations =  2.0

     total cpu time spent up to now is       11.6 secs

     End of self-consistent calculation

          k = 0.0000 0.0000 0.0000 (115313 PWs)   bands (ev):

   -25.0926 -12.8213  -9.1174  -7.0755  -0.9405   0.4285   0.7554   1.1221

     the Fermi energy is    -5.0915 ev

!    total energy              =     -34.18359550 Ry
     Harris-Foulkes estimate   =     -34.18359550 Ry
     estimated scf accuracy    <          6.1E-11 Ry

     The total energy is the sum of the following terms:

     one-electron contribution =     -63.68762234 Ry
     hartree contribution      =      33.26647434 Ry
     xc contribution           =      -8.35784182 Ry
     ewald contribution        =       4.59539432 Ry
     smearing contrib. (-TS)   =       0.00000000 Ry

     convergence has been achieved in   6 iterations

     Forces acting on atoms (Ry/au):

     atom    1 type  1   force =     0.00002289   -0.00208614   -0.00312294
     atom    2 type  1   force =    -0.00240706   -0.00469634   -0.00210056
     atom    3 type  2   force =     0.00238416    0.00678249    0.00522350

     Total force =     0.011195     Total SCF correction =     0.000010

     number of scf cycles    =   5
     number of bfgs steps    =   4

     energy   old            =     -34.1834138200 Ry
     energy   new            =     -34.1835954981 Ry

     CASE: energy  _new < energy  _old

     new trust radius        =       0.0058849324 bohr
     new conv_thr            =       0.0000000002 Ry


ATOMIC_POSITIONS (angstrom)
H       -0.601506282  -0.360681859   0.673050271
H        0.016407762  -0.577692976  -0.727510385
O        0.033209520   0.034006835   0.038166114



     Writing output data file pwscf.save
     Check: negative starting charge=   -0.015946
     NEW-OLD atomic charge density approx. for the potential
     Check: negative starting charge=   -0.015948

     negative rho (up, down):  8.810E-04 0.000E+00

     total cpu time spent up to now is       12.2 secs

     per-process dynamical memory:    45.8 Mb

     Self-consistent Calculation

     iteration #  1     ecut=    90.00 Ry     beta=0.70
     Davidson diagonalization with overlap
     ethr =  1.00E-06,  avg # of iterations =  4.0

     negative rho (up, down):  2.159E-04 0.000E+00

     total cpu time spent up to now is       12.4 secs

     total energy              =     -34.18364859 Ry
     Harris-Foulkes estimate   =     -34.18363256 Ry
     estimated scf accuracy    <       0.00000877 Ry

     iteration #  2     ecut=    90.00 Ry     beta=0.70
     Davidson diagonalization with overlap
     ethr =  1.10E-07,  avg # of iterations =  3.0

     negative rho (up, down):  1.183E-04 0.000E+00

     total cpu time spent up to now is       12.6 secs

     total energy              =     -34.18365161 Ry
     Harris-Foulkes estimate   =     -34.18365377 Ry
     estimated scf accuracy    <       0.00000645 Ry

     iteration #  3     ecut=    90.00 Ry     beta=0.70
     Davidson diagonalization with overlap
     ethr =  8.06E-08,  avg # of iterations =  2.0

     negative rho (up, down):  7.296E-06 0.000E+00

     total cpu time spent up to now is       12.8 secs

     total energy              =     -34.18365584 Ry
     Harris-Foulkes estimate   =     -34.18365321 Ry
     estimated scf accuracy    <       0.00000025 Ry

     iteration #  4     ecut=    90.00 Ry     beta=0.70
     Davidson diagonalization with overlap
     ethr =  3.12E-09,  avg # of iterations =  3.0

     negative rho (up, down):  8.590E-08 0.000E+00

     total cpu time spent up to now is       13.0 secs

     total energy              =     -34.18365605 Ry
     Harris-Foulkes estimate   =     -34.18365594 Ry
     estimated scf accuracy    <          6.3E-09 Ry

     iteration #  5     ecut=    90.00 Ry     beta=0.70
     Davidson diagonalization with overlap
     ethr =  7.93E-11,  avg # of iterations =  3.0

     total cpu time spent up to now is       13.2 secs

     total energy              =     -34.18365612 Ry
     Harris-Foulkes estimate   =     -34.18365606 Ry
     estimated scf accuracy    <          2.4E-10 Ry

     iteration #  6     ecut=    90.00 Ry     beta=0.70
     Davidson diagonalization with overlap
     ethr =  2.94E-12,  avg # of iterations =  2.0

     total cpu time spent up to now is       13.4 secs

     End of self-consistent calculation

          k = 0.0000 0.0000 0.0000 (115313 PWs)   bands (ev):

   -25.0926 -12.7855  -9.1446  -7.0766  -0.9443   0.4271   0.7547   1.1214

     the Fermi energy is    -5.0920 ev

!    total energy              =     -34.18365612 Ry
     Harris-Foulkes estimate   =     -34.18365612 Ry
     estimated scf accuracy    <          8.1E-12 Ry

     The total energy is the sum of the following terms:

     one-electron contribution =     -63.66930514 Ry
     hartree contribution      =      33.25688094 Ry
     xc contribution           =      -8.35628513 Ry
     ewald contribution        =       4.58505321 Ry
     smearing contrib. (-TS)   =       0.00000000 Ry

     convergence has been achieved in   6 iterations

     Forces acting on atoms (Ry/au):

     atom    1 type  1   force =    -0.00037392   -0.00127962   -0.00133544
     atom    2 type  1   force =    -0.00125832   -0.00154579   -0.00005096
     atom    3 type  2   force =     0.00163225    0.00282542    0.00138641

     Total force =     0.004484     Total SCF correction =     0.000008

     number of scf cycles    =   6
     number of bfgs steps    =   5

     energy   old            =     -34.1835954981 Ry
     energy   new            =     -34.1836561202 Ry

     CASE: energy  _new < energy  _old

     new trust radius        =       0.0061685696 bohr
     new conv_thr            =            1.0E-10 Ry


ATOMIC_POSITIONS (angstrom)
H       -0.601280849  -0.362249501   0.670195956
H        0.014451968  -0.578477201  -0.725364702
O        0.034939881   0.036358702   0.038874746



     Writing output data file pwscf.save
     Check: negative starting charge=   -0.015948
     NEW-OLD atomic charge density approx. for the potential
     Check: negative starting charge=   -0.015951

     negative rho (up, down):  8.454E-04 0.000E+00

     total cpu time spent up to now is       13.9 secs

     per-process dynamical memory:    45.8 Mb

     Self-consistent Calculation

     iteration #  1     ecut=    90.00 Ry     beta=0.70
     Davidson diagonalization with overlap
     ethr =  1.00E-06,  avg # of iterations =  4.0

     Threshold (ethr) on eigenvalues was too large:
     Diagonalizing with lowered threshold

     Davidson diagonalization with overlap
     ethr =  8.26E-08,  avg # of iterations =  1.0

     negative rho (up, down):  2.065E-04 0.000E+00

     total cpu time spent up to now is       14.3 secs

     total energy              =     -34.18366877 Ry
     Harris-Foulkes estimate   =     -34.18365348 Ry
     estimated scf accuracy    <       0.00000619 Ry

     iteration #  2     ecut=    90.00 Ry     beta=0.70
     Davidson diagonalization with overlap
     ethr =  7.74E-08,  avg # of iterations =  3.0

     negative rho (up, down):  1.015E-04 0.000E+00

     total cpu time spent up to now is       14.5 secs

     total energy              =     -34.18367153 Ry
     Harris-Foulkes estimate   =     -34.18367147 Ry
     estimated scf accuracy    <       0.00000324 Ry

     iteration #  3     ecut=    90.00 Ry     beta=0.70
     Davidson diagonalization with overlap
     ethr =  4.05E-08,  avg # of iterations =  2.0

     negative rho (up, down):  2.919E-06 0.000E+00

     total cpu time spent up to now is       14.9 secs

     total energy              =     -34.18367449 Ry
     Harris-Foulkes estimate   =     -34.18367253 Ry
     estimated scf accuracy    <       0.00000036 Ry

     iteration #  4     ecut=    90.00 Ry     beta=0.70
     Davidson diagonalization with overlap
     ethr =  4.56E-09,  avg # of iterations =  3.0

     total cpu time spent up to now is       15.1 secs

     total energy              =     -34.18367468 Ry
     Harris-Foulkes estimate   =     -34.18367459 Ry
     estimated scf accuracy    <          3.8E-09 Ry

     iteration #  5     ecut=    90.00 Ry     beta=0.70
     Davidson diagonalization with overlap
     ethr =  4.79E-11,  avg # of iterations =  3.0

     total cpu time spent up to now is       15.3 secs

     total energy              =     -34.18367469 Ry
     Harris-Foulkes estimate   =     -34.18367468 Ry
     estimated scf accuracy    <          5.4E-10 Ry

     iteration #  6     ecut=    90.00 Ry     beta=0.70
     Davidson diagonalization with overlap
     ethr =  6.73E-12,  avg # of iterations =  2.0

     total cpu time spent up to now is       15.5 secs

     End of self-consistent calculation

          k = 0.0000 0.0000 0.0000 (115313 PWs)   bands (ev):

   -25.0970 -12.7512  -9.1739  -7.0785  -0.9471   0.4259   0.7549   1.1209

     the Fermi energy is    -5.0934 ev

!    total energy              =     -34.18367474 Ry
     Harris-Foulkes estimate   =     -34.18367469 Ry
     estimated scf accuracy    <          2.0E-11 Ry

     The total energy is the sum of the following terms:

     one-electron contribution =     -63.65923016 Ry
     hartree contribution      =      33.25114386 Ry
     xc contribution           =      -8.35535265 Ry
     ewald contribution        =       4.57976421 Ry
     smearing contrib. (-TS)   =       0.00000000 Ry

     convergence has been achieved in   6 iterations

     Forces acting on atoms (Ry/au):

     atom    1 type  1   force =    -0.00013119    0.00000161   -0.00008802
     atom    2 type  1   force =    -0.00003935    0.00018179    0.00001954
     atom    3 type  2   force =     0.00017054   -0.00018340    0.00006848

     Total force =     0.000357     Total SCF correction =     0.000008

     bfgs converged in   7 scf cycles and   6 bfgs steps
     (criteria: energy <  1.0E-04, force <  1.0E-03)

     End of BFGS Geometry Optimization

     Final energy   =     -34.1836747354 Ry
Begin final coordinates

ATOMIC_POSITIONS (angstrom)
H       -0.601280849  -0.362249501   0.670195956
H        0.014451968  -0.578477201  -0.725364702
O        0.034939881   0.036358702   0.038874746
End final coordinates



     Writing output data file pwscf.save
 
     init_run     :      0.55s CPU      0.59s WALL (       1 calls)
     electrons    :     10.25s CPU     12.23s WALL (       7 calls)
     update_pot   :      1.46s CPU      1.73s WALL (       6 calls)
     forces       :      0.48s CPU      0.48s WALL (       7 calls)

     Called by init_run:
     wfcinit      :      0.02s CPU      0.04s WALL (       1 calls)
     potinit      :      0.11s CPU      0.11s WALL (       1 calls)

     Called by electrons:
     c_bands      :      5.19s CPU      5.53s WALL (      45 calls)
     sum_band     :      0.91s CPU      0.94s WALL (      45 calls)
     v_of_rho     :      2.77s CPU      2.86s WALL (      51 calls)
     mix_rho      :      0.93s CPU      1.73s WALL (      45 calls)

     Called by c_bands:
     init_us_2    :      0.02s CPU      0.03s WALL (      91 calls)
     cegterg      :      5.16s CPU      5.48s WALL (      45 calls)

     Called by sum_band:

     Called by *egterg:
     h_psi        :      4.40s CPU      4.68s WALL (     345 calls)
     g_psi        :      0.04s CPU      0.04s WALL (     299 calls)
     cdiaghg      :      0.09s CPU      0.09s WALL (     337 calls)

     Called by h_psi:
     h_psi:pot    :      4.35s CPU      4.64s WALL (     345 calls)
     h_psi:calbec :      0.14s CPU      0.30s WALL (     345 calls)
     vloc_psi     :      4.18s CPU      4.31s WALL (     345 calls)
     add_vuspsi   :      0.03s CPU      0.03s WALL (     345 calls)

     General routines
     calbec       :      0.14s CPU      0.30s WALL (     373 calls)
     fft          :      1.79s CPU      1.86s WALL (     576 calls)
     fftw         :      4.12s CPU      4.26s WALL (    3208 calls)
     davcio       :      0.12s CPU      0.77s WALL (     304 calls)
 
     Parallel routines
     fft_scatter  :      2.08s CPU      2.27s WALL (    3784 calls)
 
     PWSCF        :    13.20s CPU        15.92s WALL

 
   This run was terminated on:   2:45: 2  28Jul2018            

=------------------------------------------------------------------------------=
   JOB DONE.
=------------------------------------------------------------------------------=
