
     Program PWSCF v.6.0 (svn rev. 13079) starts on 28Jul2018 at  2:31:38 

     This program is part of the open-source Quantum ESPRESSO suite
     for quantum simulation of materials; please cite
         "P. Giannozzi et al., J. Phys.:Condens. Matter 21 395502 (2009);
          URL http://www.quantum-espresso.org", 
     in publications or presentations arising from this work. More details at
     http://www.quantum-espresso.org/quote

     Parallel version (MPI), running on    28 processors
     R & G space division:  proc/nbgrp/npool/nimage =      28
     Reading input from ../QMCmins/relax-48.in

     Current dimensions of program PWSCF are:
     Max number of different atomic species (ntypx) = 10
     Max number of k-points (npk) =  40000
     Max angular momentum in pseudopotentials (lmaxx) =  3
     Message from routine iosys:
     pot_extrapolation='second-order' not available, using 'atomic'
     Message from routine iosys:
     wfc_extrapolation='second-order' not available, using 'atomic'

     Subspace diagonalization in iterative solution of the eigenvalue problem:
     a serial algorithm will be used

 
     Parallelization info
     --------------------
     sticks:   dense  smooth     PW     G-vecs:    dense   smooth      PW
     Min         408     408    102                32936    32936    4116
     Max         409     409    103                32943    32943    4121
     Sum       11449   11449   2869               922329   922329  115313
 


     bravais-lattice index     =            1
     lattice parameter (alat)  =      20.0000  a.u.
     unit-cell volume          =    8000.0000 (a.u.)^3
     number of atoms/cell      =            3
     number of atomic types    =            2
     number of electrons       =         8.00
     number of Kohn-Sham states=            8
     kinetic-energy cutoff     =      90.0000  Ry
     charge density cutoff     =     360.0000  Ry
     convergence threshold     =      1.0E-08
     mixing beta               =       0.7000
     number of iterations used =            8  plain     mixing
     Exchange-correlation      = BLYP ( 1  3  1  3 0 0)
     nstep                     =           50


     celldm(1)=  20.000000  celldm(2)=   0.000000  celldm(3)=   0.000000
     celldm(4)=   0.000000  celldm(5)=   0.000000  celldm(6)=   0.000000

     crystal axes: (cart. coord. in units of alat)
               a(1) = (   1.000000   0.000000   0.000000 )  
               a(2) = (   0.000000   1.000000   0.000000 )  
               a(3) = (   0.000000   0.000000   1.000000 )  

     reciprocal axes: (cart. coord. in units 2 pi/alat)
               b(1) = (  1.000000  0.000000  0.000000 )  
               b(2) = (  0.000000  1.000000  0.000000 )  
               b(3) = (  0.000000  0.000000  1.000000 )  


     PseudoPot. # 1 for  H read from file:
     ../H.blyp-hgh.UPF
     MD5 check sum: c576e69559cde411e611be972c763230
     Pseudo is Norm-conserving, Zval =  1.0
     Generated in analytical, separable form
     Using radial grid of  929 points,  0 beta functions with: 

     PseudoPot. # 2 for  O read from file:
     ../O.blyp-hgh.UPF
     MD5 check sum: d0b7156309aa9befef28faac7bc56342
     Pseudo is Norm-conserving, Zval =  6.0
     Generated in analytical, separable form
     Using radial grid of 1095 points,  1 beta functions with: 
                l(1) =   0

     atomic species   valence    mass     pseudopotential
        H              1.00     1.01000      H( 1.00)
        O              6.00    16.00000      O( 1.00)

     No symmetry found



   Cartesian axes

     site n.     atom                  positions (alat units)
         1           H   tau(   1) = (  -0.0343871  -0.0716237  -0.0245419  )
         2           H   tau(   2) = (  -0.0763369   0.0502102   0.0045355  )
         3           O   tau(   3) = (   0.0069894   0.0013517   0.0068409  )

     number of k points=     1  Marzari-Vanderbilt smearing, width (Ry)=  0.0250
                       cart. coord. in units 2pi/alat
        k(    1) = (   0.0000000   0.0000000   0.0000000), wk =   2.0000000

     Dense  grid:   922329 G-vectors     FFT dimensions: ( 125, 125, 125)

     Estimated max dynamical RAM per process >      31.67Mb

     Estimated total allocated dynamical RAM >     886.64Mb

     Initial potential from superposition of free atoms
     Check: negative starting charge=   -0.016069

     starting charge    7.99998, renormalised to    8.00000

     negative rho (up, down):  1.607E-02 0.000E+00
     Starting wfc are    6 randomized atomic wfcs +    2 random wfc

     total cpu time spent up to now is        0.7 secs

     per-process dynamical memory:    33.5 Mb

     Self-consistent Calculation

     iteration #  1     ecut=    90.00 Ry     beta=0.70
     Davidson diagonalization with overlap
     ethr =  1.00E-02,  avg # of iterations =  8.0

     negative rho (up, down):  4.681E-03 0.000E+00

     total cpu time spent up to now is        1.0 secs

     total energy              =     -34.02833506 Ry
     Harris-Foulkes estimate   =     -34.25539072 Ry
     estimated scf accuracy    <       0.34361604 Ry

     iteration #  2     ecut=    90.00 Ry     beta=0.70
     Davidson diagonalization with overlap
     ethr =  4.30E-03,  avg # of iterations =  2.0

     negative rho (up, down):  2.811E-03 0.000E+00

     total cpu time spent up to now is        1.2 secs

     total energy              =     -34.07942841 Ry
     Harris-Foulkes estimate   =     -34.26217983 Ry
     estimated scf accuracy    <       0.39627419 Ry

     iteration #  3     ecut=    90.00 Ry     beta=0.70
     Davidson diagonalization with overlap
     ethr =  4.30E-03,  avg # of iterations =  2.0

     negative rho (up, down):  1.715E-04 0.000E+00

     total cpu time spent up to now is        1.4 secs

     total energy              =     -34.16808618 Ry
     Harris-Foulkes estimate   =     -34.16904958 Ry
     estimated scf accuracy    <       0.00610083 Ry

     iteration #  4     ecut=    90.00 Ry     beta=0.70
     Davidson diagonalization with overlap
     ethr =  7.63E-05,  avg # of iterations =  6.0

     negative rho (up, down):  1.175E-05 0.000E+00

     total cpu time spent up to now is        1.7 secs

     total energy              =     -34.16981066 Ry
     Harris-Foulkes estimate   =     -34.16994826 Ry
     estimated scf accuracy    <       0.00035756 Ry

     iteration #  5     ecut=    90.00 Ry     beta=0.70
     Davidson diagonalization with overlap
     ethr =  4.47E-06,  avg # of iterations = 10.0

     negative rho (up, down):  3.925E-08 0.000E+00

     total cpu time spent up to now is        1.9 secs

     total energy              =     -34.16983624 Ry
     Harris-Foulkes estimate   =     -34.16984096 Ry
     estimated scf accuracy    <       0.00002006 Ry

     iteration #  6     ecut=    90.00 Ry     beta=0.70
     Davidson diagonalization with overlap
     ethr =  2.51E-07,  avg # of iterations =  2.0

     negative rho (up, down):  2.704E-07 0.000E+00

     total cpu time spent up to now is        2.1 secs

     total energy              =     -34.16983801 Ry
     Harris-Foulkes estimate   =     -34.16983799 Ry
     estimated scf accuracy    <       0.00000248 Ry

     iteration #  7     ecut=    90.00 Ry     beta=0.70
     Davidson diagonalization with overlap
     ethr =  3.10E-08,  avg # of iterations =  2.0

     total cpu time spent up to now is        2.3 secs

     total energy              =     -34.16983803 Ry
     Harris-Foulkes estimate   =     -34.16983838 Ry
     estimated scf accuracy    <       0.00000010 Ry

     iteration #  8     ecut=    90.00 Ry     beta=0.70
     Davidson diagonalization with overlap
     ethr =  1.21E-09,  avg # of iterations =  3.0

     total cpu time spent up to now is        2.5 secs

     total energy              =     -34.16983789 Ry
     Harris-Foulkes estimate   =     -34.16983806 Ry
     estimated scf accuracy    <       0.00000001 Ry

     iteration #  9     ecut=    90.00 Ry     beta=0.70
     Davidson diagonalization with overlap
     ethr =  1.32E-10,  avg # of iterations =  1.0

     total cpu time spent up to now is        2.8 secs

     End of self-consistent calculation

          k = 0.0000 0.0000 0.0000 (115313 PWs)   bands (ev):

   -25.3384 -12.0359  -9.8394  -7.1381  -1.0291   0.3861   0.7856   1.1137

     the Fermi energy is    -5.1591 ev

!    total energy              =     -34.16983786 Ry
     Harris-Foulkes estimate   =     -34.16983789 Ry
     estimated scf accuracy    <          9.8E-10 Ry

     The total energy is the sum of the following terms:

     one-electron contribution =     -63.66154623 Ry
     hartree contribution      =      33.23120223 Ry
     xc contribution           =      -8.35131319 Ry
     ewald contribution        =       4.61181933 Ry
     smearing contrib. (-TS)   =       0.00000000 Ry

     convergence has been achieved in   9 iterations

     Forces acting on atoms (Ry/au):

     atom    1 type  1   force =    -0.00083442   -0.09136166   -0.03007243
     atom    2 type  1   force =     0.06503289    0.00683231    0.01426775
     atom    3 type  2   force =    -0.06419847    0.08452936    0.01580468

     Total force =     0.158896     Total SCF correction =     0.000085

     BFGS Geometry Optimization

     number of scf cycles    =   1
     number of bfgs steps    =   0

     energy   new            =     -34.1698378649 Ry

     new trust radius        =       0.1073146951 bohr
     new conv_thr            =       0.0000000100 Ry


ATOMIC_POSITIONS (angstrom)
H       -0.364378555  -0.806379510  -0.275653647
H       -0.773501079   0.535017500   0.055552171
O        0.040000633   0.059037010   0.080764476



     Writing output data file pwscf.save
     Check: negative starting charge=   -0.016069
     NEW-OLD atomic charge density approx. for the potential
     Check: negative starting charge=   -0.016047

     negative rho (up, down):  1.902E-02 0.000E+00

     total cpu time spent up to now is        3.4 secs

     per-process dynamical memory:    45.8 Mb

     Self-consistent Calculation

     iteration #  1     ecut=    90.00 Ry     beta=0.70
     Davidson diagonalization with overlap
     c_bands:  2 eigenvalues not converged
     ethr =  1.00E-06,  avg # of iterations = 20.0

     negative rho (up, down):  5.023E-03 0.000E+00

     total cpu time spent up to now is        3.8 secs

     total energy              =     -34.16267733 Ry
     Harris-Foulkes estimate   =     -34.17600644 Ry
     estimated scf accuracy    <       0.00402863 Ry

     iteration #  2     ecut=    90.00 Ry     beta=0.70
     Davidson diagonalization with overlap
     ethr =  5.04E-05,  avg # of iterations =  6.0

     negative rho (up, down):  2.509E-03 0.000E+00

     total cpu time spent up to now is        4.1 secs

     total energy              =     -34.16825485 Ry
     Harris-Foulkes estimate   =     -34.16545005 Ry
     estimated scf accuracy    <       0.00149708 Ry

     iteration #  3     ecut=    90.00 Ry     beta=0.70
     Davidson diagonalization with overlap
     ethr =  1.87E-05,  avg # of iterations =  5.0

     negative rho (up, down):  8.393E-04 0.000E+00

     total cpu time spent up to now is        4.3 secs

     total energy              =     -34.16993990 Ry
     Harris-Foulkes estimate   =     -34.16874802 Ry
     estimated scf accuracy    <       0.00024779 Ry

     iteration #  4     ecut=    90.00 Ry     beta=0.70
     Davidson diagonalization with overlap
     ethr =  3.10E-06,  avg # of iterations = 18.0

     negative rho (up, down):  2.105E-05 0.000E+00

     total cpu time spent up to now is        4.6 secs

     total energy              =     -34.17410354 Ry
     Harris-Foulkes estimate   =     -34.17407945 Ry
     estimated scf accuracy    <       0.00000802 Ry

     iteration #  5     ecut=    90.00 Ry     beta=0.70
     Davidson diagonalization with overlap
     ethr =  1.00E-07,  avg # of iterations =  5.0

     negative rho (up, down):  4.369E-07 0.000E+00

     total cpu time spent up to now is        4.9 secs

     total energy              =     -34.17410566 Ry
     Harris-Foulkes estimate   =     -34.17410607 Ry
     estimated scf accuracy    <       0.00000014 Ry

     iteration #  6     ecut=    90.00 Ry     beta=0.70
     Davidson diagonalization with overlap
     ethr =  1.70E-09,  avg # of iterations =  2.0

     total cpu time spent up to now is        5.0 secs

     End of self-consistent calculation

          k = 0.0000 0.0000 0.0000 (115313 PWs)   bands (ev):

   -25.2984 -12.2910  -9.6316  -7.1260  -0.9964   0.3984   0.7813   1.1162

     the Fermi energy is    -5.1473 ev

!    total energy              =     -34.17410563 Ry
     Harris-Foulkes estimate   =     -34.17410569 Ry
     estimated scf accuracy    <          6.5E-09 Ry

     The total energy is the sum of the following terms:

     one-electron contribution =     -63.73026763 Ry
     hartree contribution      =      33.27088271 Ry
     xc contribution           =      -8.35867714 Ry
     ewald contribution        =       4.64395642 Ry
     smearing contrib. (-TS)   =       0.00000000 Ry

     convergence has been achieved in   6 iterations

     Forces acting on atoms (Ry/au):

     atom    1 type  1   force =     0.04653427    0.03450929    0.02065104
     atom    2 type  1   force =    -0.06580959    0.07167356    0.00831634
     atom    3 type  2   force =     0.01927532   -0.10618285   -0.02896738

     Total force =     0.160641     Total SCF correction =     0.000195

     number of scf cycles    =   2
     number of bfgs steps    =   1

     energy   old            =     -34.1698378649 Ry
     energy   new            =     -34.1741056346 Ry

     CASE: energy  _new < energy  _old

     new trust radius        =       0.0512652327 bohr
     new conv_thr            =       0.0000000043 Ry


ATOMIC_POSITIONS (angstrom)
H       -0.350129446  -0.804018681  -0.272016211
H       -0.787878017   0.557698520   0.059402452
O        0.040128463   0.033995161   0.073276759



     Writing output data file pwscf.save
     Check: negative starting charge=   -0.016047
     NEW-OLD atomic charge density approx. for the potential
     Check: negative starting charge=   -0.016034

     negative rho (up, down):  8.816E-03 0.000E+00

     total cpu time spent up to now is        5.6 secs

     per-process dynamical memory:    45.8 Mb

     Self-consistent Calculation

     iteration #  1     ecut=    90.00 Ry     beta=0.70
     Davidson diagonalization with overlap
     c_bands:  1 eigenvalues not converged
     ethr =  1.00E-06,  avg # of iterations = 20.0

     negative rho (up, down):  2.321E-03 0.000E+00

     total cpu time spent up to now is        6.0 secs

     total energy              =     -34.17579604 Ry
     Harris-Foulkes estimate   =     -34.16682659 Ry
     estimated scf accuracy    <       0.00082585 Ry

     iteration #  2     ecut=    90.00 Ry     beta=0.70
     Davidson diagonalization with overlap
     ethr =  1.03E-05,  avg # of iterations =  8.0

     negative rho (up, down):  7.812E-04 0.000E+00

     total cpu time spent up to now is        6.3 secs

     total energy              =     -34.17710903 Ry
     Harris-Foulkes estimate   =     -34.17600335 Ry
     estimated scf accuracy    <       0.00005265 Ry

     iteration #  3     ecut=    90.00 Ry     beta=0.70
     Davidson diagonalization with overlap
     c_bands:  1 eigenvalues not converged
     ethr =  6.58E-07,  avg # of iterations = 20.0

     negative rho (up, down):  1.262E-04 0.000E+00

     total cpu time spent up to now is        6.6 secs

     total energy              =     -34.18122236 Ry
     Harris-Foulkes estimate   =     -34.18120143 Ry
     estimated scf accuracy    <       0.00000550 Ry

     iteration #  4     ecut=    90.00 Ry     beta=0.70
     Davidson diagonalization with overlap
     ethr =  6.88E-08,  avg # of iterations = 11.0

     negative rho (up, down):  1.396E-05 0.000E+00

     total cpu time spent up to now is        6.9 secs

     total energy              =     -34.18122353 Ry
     Harris-Foulkes estimate   =     -34.18122530 Ry
     estimated scf accuracy    <       0.00000317 Ry

     iteration #  5     ecut=    90.00 Ry     beta=0.70
     Davidson diagonalization with overlap
     ethr =  3.96E-08,  avg # of iterations =  2.0

     negative rho (up, down):  1.278E-08 0.000E+00

     total cpu time spent up to now is        7.1 secs

     total energy              =     -34.18122417 Ry
     Harris-Foulkes estimate   =     -34.18122422 Ry
     estimated scf accuracy    <       0.00000002 Ry

     iteration #  6     ecut=    90.00 Ry     beta=0.70
     Davidson diagonalization with overlap
     ethr =  2.67E-10,  avg # of iterations =  2.0

     total cpu time spent up to now is        7.6 secs

     End of self-consistent calculation

          k = 0.0000 0.0000 0.0000 (115313 PWs)   bands (ev):

   -25.2007 -12.3881  -9.5185  -7.1085  -0.9751   0.4136   0.7674   1.1199

     the Fermi energy is    -5.1201 ev

!    total energy              =     -34.18122418 Ry
     Harris-Foulkes estimate   =     -34.18122419 Ry
     estimated scf accuracy    <          1.4E-09 Ry

     The total energy is the sum of the following terms:

     one-electron contribution =     -63.64650476 Ry
     hartree contribution      =      33.23425349 Ry
     xc contribution           =      -8.35209645 Ry
     ewald contribution        =       4.58312354 Ry
     smearing contrib. (-TS)   =       0.00000000 Ry

     convergence has been achieved in   6 iterations

     Forces acting on atoms (Ry/au):

     atom    1 type  1   force =     0.02038409   -0.00680923    0.00247823
     atom    2 type  1   force =     0.00218815    0.02200061    0.00765098
     atom    3 type  2   force =    -0.02257224   -0.01519138   -0.01012921

     Total force =     0.043107     Total SCF correction =     0.000109

     number of scf cycles    =   3
     number of bfgs steps    =   2

     energy   old            =     -34.1741056346 Ry
     energy   new            =     -34.1812241793 Ry

     CASE: energy  _new < energy  _old

     new trust radius        =       0.0437018610 bohr
     new conv_thr            =       0.0000000023 Ry


ATOMIC_POSITIONS (angstrom)
H       -0.333185254  -0.814008228  -0.271478801
H       -0.785713075   0.578341279   0.066359259
O        0.021019329   0.023341949   0.065782542



     Writing output data file pwscf.save
     Check: negative starting charge=   -0.016034
     NEW-OLD atomic charge density approx. for the potential
     Check: negative starting charge=   -0.015999

     negative rho (up, down):  7.864E-03 0.000E+00

     total cpu time spent up to now is        8.2 secs

     per-process dynamical memory:    45.8 Mb

     Self-consistent Calculation

     iteration #  1     ecut=    90.00 Ry     beta=0.70
     Davidson diagonalization with overlap
     c_bands:  1 eigenvalues not converged
     ethr =  1.00E-06,  avg # of iterations = 20.0

     negative rho (up, down):  2.064E-03 0.000E+00

     total cpu time spent up to now is        8.6 secs

     total energy              =     -34.17784450 Ry
     Harris-Foulkes estimate   =     -34.17042338 Ry
     estimated scf accuracy    <       0.00052591 Ry

     iteration #  2     ecut=    90.00 Ry     beta=0.70
     Davidson diagonalization with overlap
     ethr =  6.57E-06,  avg # of iterations = 15.0

     negative rho (up, down):  1.210E-03 0.000E+00

     total cpu time spent up to now is        9.0 secs

     total energy              =     -34.17863495 Ry
     Harris-Foulkes estimate   =     -34.17815595 Ry
     estimated scf accuracy    <       0.00039387 Ry

     iteration #  3     ecut=    90.00 Ry     beta=0.70
     Davidson diagonalization with overlap
     ethr =  4.92E-06,  avg # of iterations =  6.0

     negative rho (up, down):  1.426E-04 0.000E+00

     total cpu time spent up to now is        9.2 secs

     total energy              =     -34.18290722 Ry
     Harris-Foulkes estimate   =     -34.18280613 Ry
     estimated scf accuracy    <       0.00001302 Ry

     iteration #  4     ecut=    90.00 Ry     beta=0.70
     Davidson diagonalization with overlap
     ethr =  1.63E-07,  avg # of iterations =  6.0

     negative rho (up, down):  4.158E-06 0.000E+00

     total cpu time spent up to now is        9.5 secs

     total energy              =     -34.18290983 Ry
     Harris-Foulkes estimate   =     -34.18291224 Ry
     estimated scf accuracy    <       0.00000025 Ry

     iteration #  5     ecut=    90.00 Ry     beta=0.70
     Davidson diagonalization with overlap
     ethr =  3.16E-09,  avg # of iterations =  4.0

     total cpu time spent up to now is        9.7 secs

     total energy              =     -34.18290958 Ry
     Harris-Foulkes estimate   =     -34.18290994 Ry
     estimated scf accuracy    <       0.00000001 Ry

     iteration #  6     ecut=    90.00 Ry     beta=0.70
     Davidson diagonalization with overlap
     ethr =  1.37E-10,  avg # of iterations =  2.0

     total cpu time spent up to now is        9.8 secs

     End of self-consistent calculation

          k = 0.0000 0.0000 0.0000 (115313 PWs)   bands (ev):

   -25.2176 -12.6835  -9.3152  -7.1028  -0.9355   0.4280   0.7757   1.1577

     the Fermi energy is    -5.0960 ev

!    total energy              =     -34.18290954 Ry
     Harris-Foulkes estimate   =     -34.18290958 Ry
     estimated scf accuracy    <          5.6E-10 Ry

     The total energy is the sum of the following terms:

     one-electron contribution =     -63.82563205 Ry
     hartree contribution      =      33.32616100 Ry
     xc contribution           =      -8.36741391 Ry
     ewald contribution        =       4.68397542 Ry
     smearing contrib. (-TS)   =       0.00000000 Ry

     convergence has been achieved in   6 iterations

     Forces acting on atoms (Ry/au):

     atom    1 type  1   force =    -0.00138288   -0.02580434   -0.00780242
     atom    2 type  1   force =    -0.00068925    0.00940586    0.00342125
     atom    3 type  2   force =     0.00207213    0.01639848    0.00438117

     Total force =     0.033492     Total SCF correction =     0.000028

     number of scf cycles    =   4
     number of bfgs steps    =   3

     energy   old            =     -34.1812241793 Ry
     energy   new            =     -34.1829095422 Ry

     CASE: energy  _new < energy  _old

     new trust radius        =       0.0413485382 bohr
     new conv_thr            =       0.0000000017 Ry


ATOMIC_POSITIONS (angstrom)
H       -0.324279167  -0.833606605  -0.275396766
H       -0.788201866   0.597260848   0.072079944
O        0.014602033   0.024020757   0.063979822



     Writing output data file pwscf.save
     Check: negative starting charge=   -0.015999
     NEW-OLD atomic charge density approx. for the potential
     Check: negative starting charge=   -0.015984

     negative rho (up, down):  2.037E-03 0.000E+00

     total cpu time spent up to now is       10.4 secs

     per-process dynamical memory:    45.8 Mb

     Self-consistent Calculation

     iteration #  1     ecut=    90.00 Ry     beta=0.70
     Davidson diagonalization with overlap
     c_bands:  1 eigenvalues not converged
     ethr =  1.00E-06,  avg # of iterations = 20.0

     negative rho (up, down):  5.202E-04 0.000E+00

     total cpu time spent up to now is       10.8 secs

     total energy              =     -34.17932555 Ry
     Harris-Foulkes estimate   =     -34.17866760 Ry
     estimated scf accuracy    <       0.00025132 Ry

     iteration #  2     ecut=    90.00 Ry     beta=0.70
     Davidson diagonalization with overlap
     ethr =  3.14E-06,  avg # of iterations =  6.0

     negative rho (up, down):  2.891E-04 0.000E+00

     total cpu time spent up to now is       11.1 secs

     total energy              =     -34.18344129 Ry
     Harris-Foulkes estimate   =     -34.18351929 Ry
     estimated scf accuracy    <       0.00016012 Ry

     iteration #  3     ecut=    90.00 Ry     beta=0.70
     Davidson diagonalization with overlap
     c_bands:  1 eigenvalues not converged
     ethr =  2.00E-06,  avg # of iterations = 20.0

     negative rho (up, down):  2.194E-05 0.000E+00

     total cpu time spent up to now is       11.3 secs

     total energy              =     -34.18348224 Ry
     Harris-Foulkes estimate   =     -34.18348468 Ry
     estimated scf accuracy    <       0.00000988 Ry

     iteration #  4     ecut=    90.00 Ry     beta=0.70
     Davidson diagonalization with overlap
     ethr =  1.23E-07,  avg # of iterations =  4.0

     negative rho (up, down):  3.966E-07 0.000E+00

     total cpu time spent up to now is       11.5 secs

     total energy              =     -34.18348373 Ry
     Harris-Foulkes estimate   =     -34.18348418 Ry
     estimated scf accuracy    <       0.00000008 Ry

     iteration #  5     ecut=    90.00 Ry     beta=0.70
     Davidson diagonalization with overlap
     ethr =  1.00E-09,  avg # of iterations =  2.0

     total cpu time spent up to now is       11.7 secs

     total energy              =     -34.18348361 Ry
     Harris-Foulkes estimate   =     -34.18348377 Ry
     estimated scf accuracy    <          5.2E-09 Ry

     iteration #  6     ecut=    90.00 Ry     beta=0.70
     Davidson diagonalization with overlap
     ethr =  6.46E-11,  avg # of iterations =  2.0

     total cpu time spent up to now is       11.9 secs

     End of self-consistent calculation

          k = 0.0000 0.0000 0.0000 (115313 PWs)   bands (ev):

   -25.0641 -12.7086  -9.1803  -7.0715  -0.9587   0.4221   0.7470   1.1228

     the Fermi energy is    -5.0838 ev

!    total energy              =     -34.18348361 Ry
     Harris-Foulkes estimate   =     -34.18348361 Ry
     estimated scf accuracy    <          5.0E-10 Ry

     The total energy is the sum of the following terms:

     one-electron contribution =     -63.57906637 Ry
     hartree contribution      =      33.21249103 Ry
     xc contribution           =      -8.34888092 Ry
     ewald contribution        =       4.53197266 Ry
     smearing contrib. (-TS)   =       0.00000000 Ry

     convergence has been achieved in   6 iterations

     Forces acting on atoms (Ry/au):

     atom    1 type  1   force =     0.00101072    0.00170297    0.00128721
     atom    2 type  1   force =     0.00808086   -0.00653579    0.00030358
     atom    3 type  2   force =    -0.00909159    0.00483282   -0.00159079

     Total force =     0.014907     Total SCF correction =     0.000050

     number of scf cycles    =   5
     number of bfgs steps    =   4

     energy   old            =     -34.1829095422 Ry
     energy   new            =     -34.1834836078 Ry

     CASE: energy  _new < energy  _old

     new trust radius        =       0.0058009766 bohr
     new conv_thr            =       0.0000000006 Ry


ATOMIC_POSITIONS (angstrom)
H       -0.324081454  -0.832432593  -0.274722222
H       -0.786305389   0.594847376   0.072036842
O        0.012507843   0.025260217   0.063348379



     Writing output data file pwscf.save
     Check: negative starting charge=   -0.015984
     NEW-OLD atomic charge density approx. for the potential
     Check: negative starting charge=   -0.015987

     negative rho (up, down):  6.907E-04 0.000E+00

     total cpu time spent up to now is       12.7 secs

     per-process dynamical memory:    45.8 Mb

     Self-consistent Calculation

     iteration #  1     ecut=    90.00 Ry     beta=0.70
     Davidson diagonalization with overlap
     ethr =  1.00E-06,  avg # of iterations =  5.0

     negative rho (up, down):  1.663E-04 0.000E+00

     total cpu time spent up to now is       13.0 secs

     total energy              =     -34.18353371 Ry
     Harris-Foulkes estimate   =     -34.18354014 Ry
     estimated scf accuracy    <       0.00002744 Ry

     iteration #  2     ecut=    90.00 Ry     beta=0.70
     Davidson diagonalization with overlap
     ethr =  3.43E-07,  avg # of iterations =  3.0

     negative rho (up, down):  9.457E-05 0.000E+00

     total cpu time spent up to now is       13.2 secs

     total energy              =     -34.18354036 Ry
     Harris-Foulkes estimate   =     -34.18355192 Ry
     estimated scf accuracy    <       0.00002491 Ry

     iteration #  3     ecut=    90.00 Ry     beta=0.70
     Davidson diagonalization with overlap
     ethr =  3.11E-07,  avg # of iterations =  2.0

     negative rho (up, down):  1.301E-05 0.000E+00

     total cpu time spent up to now is       13.4 secs

     total energy              =     -34.18354529 Ry
     Harris-Foulkes estimate   =     -34.18354588 Ry
     estimated scf accuracy    <       0.00000031 Ry

     iteration #  4     ecut=    90.00 Ry     beta=0.70
     Davidson diagonalization with overlap
     ethr =  3.82E-09,  avg # of iterations =  3.0

     negative rho (up, down):  3.249E-07 0.000E+00

     total cpu time spent up to now is       13.6 secs

     total energy              =     -34.18354537 Ry
     Harris-Foulkes estimate   =     -34.18354541 Ry
     estimated scf accuracy    <          8.1E-09 Ry

     iteration #  5     ecut=    90.00 Ry     beta=0.70
     Davidson diagonalization with overlap
     ethr =  1.02E-10,  avg # of iterations =  3.0

     total cpu time spent up to now is       13.7 secs

     End of self-consistent calculation

          k = 0.0000 0.0000 0.0000 (115313 PWs)   bands (ev):

   -25.0972 -12.7433  -9.1800  -7.0771  -0.9486   0.4256   0.7545   1.1231

     the Fermi energy is    -5.0919 ev

!    total energy              =     -34.18354535 Ry
     Harris-Foulkes estimate   =     -34.18354538 Ry
     estimated scf accuracy    <          4.6E-10 Ry

     The total energy is the sum of the following terms:

     one-electron contribution =     -63.65344010 Ry
     hartree contribution      =      33.24801111 Ry
     xc contribution           =      -8.35468137 Ry
     ewald contribution        =       4.57656501 Ry
     smearing contrib. (-TS)   =       0.00000000 Ry

     convergence has been achieved in   5 iterations

     Forces acting on atoms (Ry/au):

     atom    1 type  1   force =     0.00038830   -0.00004318    0.00059216
     atom    2 type  1   force =     0.00007369   -0.00067705    0.00040968
     atom    3 type  2   force =    -0.00046198    0.00072023   -0.00100183

     Total force =     0.001694     Total SCF correction =     0.000395
     SCF correction compared to forces is large: reduce conv_thr to get better values

     number of scf cycles    =   6
     number of bfgs steps    =   5

     energy   old            =     -34.1834836078 Ry
     energy   new            =     -34.1835453543 Ry

     CASE: energy  _new < energy  _old

     new trust radius        =       0.0013522513 bohr
     new conv_thr            =            1.0E-10 Ry


ATOMIC_POSITIONS (angstrom)
H       -0.323816623  -0.832519796  -0.274386808
H       -0.786377445   0.594580362   0.072292549
O        0.012315068   0.025614434   0.062757259



     Writing output data file pwscf.save
     Check: negative starting charge=   -0.015987
     NEW-OLD atomic charge density approx. for the potential
     Check: negative starting charge=   -0.015987

     negative rho (up, down):  1.537E-04 0.000E+00

     total cpu time spent up to now is       14.3 secs

     per-process dynamical memory:    45.8 Mb

     Self-consistent Calculation

     iteration #  1     ecut=    90.00 Ry     beta=0.70
     Davidson diagonalization with overlap
     ethr =  1.00E-06,  avg # of iterations =  3.0

     Threshold (ethr) on eigenvalues was too large:
     Diagonalizing with lowered threshold

     Davidson diagonalization with overlap
     ethr =  5.86E-09,  avg # of iterations =  2.0

     negative rho (up, down):  2.974E-05 0.000E+00

     total cpu time spent up to now is       14.6 secs

     total energy              =     -34.18354724 Ry
     Harris-Foulkes estimate   =     -34.18354445 Ry
     estimated scf accuracy    <       0.00000050 Ry

     iteration #  2     ecut=    90.00 Ry     beta=0.70
     Davidson diagonalization with overlap
     ethr =  6.25E-09,  avg # of iterations =  2.0

     negative rho (up, down):  1.196E-05 0.000E+00

     total cpu time spent up to now is       14.8 secs

     total energy              =     -34.18354759 Ry
     Harris-Foulkes estimate   =     -34.18354749 Ry
     estimated scf accuracy    <       0.00000026 Ry

     iteration #  3     ecut=    90.00 Ry     beta=0.70
     Davidson diagonalization with overlap
     ethr =  3.24E-09,  avg # of iterations =  2.0

     negative rho (up, down):  2.547E-07 0.000E+00

     total cpu time spent up to now is       15.0 secs

     total energy              =     -34.18354809 Ry
     Harris-Foulkes estimate   =     -34.18354767 Ry
     estimated scf accuracy    <       0.00000002 Ry

     iteration #  4     ecut=    90.00 Ry     beta=0.70
     Davidson diagonalization with overlap
     ethr =  2.97E-10,  avg # of iterations =  2.0

     total cpu time spent up to now is       15.3 secs

     total energy              =     -34.18354811 Ry
     Harris-Foulkes estimate   =     -34.18354810 Ry
     estimated scf accuracy    <          3.1E-10 Ry

     iteration #  5     ecut=    90.00 Ry     beta=0.70
     Davidson diagonalization with overlap
     ethr =  3.85E-12,  avg # of iterations =  3.0

     total cpu time spent up to now is       15.5 secs

     End of self-consistent calculation

          k = 0.0000 0.0000 0.0000 (115313 PWs)   bands (ev):

   -25.0995 -12.7473  -9.1789  -7.0775  -0.9478   0.4254   0.7547   1.1229

     the Fermi energy is    -5.0926 ev

!    total energy              =     -34.18354810 Ry
     Harris-Foulkes estimate   =     -34.18354811 Ry
     estimated scf accuracy    <          3.0E-11 Ry

     The total energy is the sum of the following terms:

     one-electron contribution =     -63.65950243 Ry
     hartree contribution      =      33.25096367 Ry
     xc contribution           =      -8.35516739 Ry
     ewald contribution        =       4.58015805 Ry
     smearing contrib. (-TS)   =       0.00000000 Ry

     convergence has been achieved in   5 iterations

     Forces acting on atoms (Ry/au):

     atom    1 type  1   force =     0.00038675   -0.00018428    0.00057672
     atom    2 type  1   force =    -0.00052938   -0.00030528    0.00043071
     atom    3 type  2   force =     0.00014263    0.00048957   -0.00100743

     Total force =     0.001533     Total SCF correction =     0.000061

     number of scf cycles    =   7
     number of bfgs steps    =   6

     energy   old            =     -34.1835453543 Ry
     energy   new            =     -34.1835480957 Ry

     CASE: energy  _new < energy  _old


     WARNING: bfgs curvature condition failed, Theta= 0.949
     new trust radius        =       0.0014874764 bohr
     new conv_thr            =            1.0E-10 Ry


ATOMIC_POSITIONS (angstrom)
H       -0.323501446  -0.832675885  -0.274013727
H       -0.786553796   0.594359924   0.072596625
O        0.012176242   0.025990961   0.062080102



     Writing output data file pwscf.save
     Check: negative starting charge=   -0.015987
     NEW-OLD atomic charge density approx. for the potential
     Check: negative starting charge=   -0.015986

     negative rho (up, down):  1.721E-04 0.000E+00

     total cpu time spent up to now is       16.1 secs

     per-process dynamical memory:    45.8 Mb

     Self-consistent Calculation

     iteration #  1     ecut=    90.00 Ry     beta=0.70
     Davidson diagonalization with overlap
     ethr =  1.00E-06,  avg # of iterations =  3.0

     Threshold (ethr) on eigenvalues was too large:
     Diagonalizing with lowered threshold

     Davidson diagonalization with overlap
     ethr =  5.34E-09,  avg # of iterations =  2.0

     negative rho (up, down):  3.413E-05 0.000E+00

     total cpu time spent up to now is       16.4 secs

     total energy              =     -34.18354994 Ry
     Harris-Foulkes estimate   =     -34.18354672 Ry
     estimated scf accuracy    <       0.00000046 Ry

     iteration #  2     ecut=    90.00 Ry     beta=0.70
     Davidson diagonalization with overlap
     ethr =  5.70E-09,  avg # of iterations =  2.0

     negative rho (up, down):  1.024E-05 0.000E+00

     total cpu time spent up to now is       16.6 secs

     total energy              =     -34.18355047 Ry
     Harris-Foulkes estimate   =     -34.18355011 Ry
     estimated scf accuracy    <       0.00000013 Ry

     iteration #  3     ecut=    90.00 Ry     beta=0.70
     Davidson diagonalization with overlap
     ethr =  1.63E-09,  avg # of iterations =  2.0

     negative rho (up, down):  2.428E-07 0.000E+00

     total cpu time spent up to now is       16.8 secs

     total energy              =     -34.18355083 Ry
     Harris-Foulkes estimate   =     -34.18355053 Ry
     estimated scf accuracy    <       0.00000004 Ry

     iteration #  4     ecut=    90.00 Ry     beta=0.70
     Davidson diagonalization with overlap
     ethr =  4.45E-10,  avg # of iterations =  2.0

     total cpu time spent up to now is       17.0 secs

     total energy              =     -34.18355083 Ry
     Harris-Foulkes estimate   =     -34.18355084 Ry
     estimated scf accuracy    <          3.4E-10 Ry

     iteration #  5     ecut=    90.00 Ry     beta=0.70
     Davidson diagonalization with overlap
     ethr =  4.22E-12,  avg # of iterations =  3.0

     total cpu time spent up to now is       17.1 secs

     End of self-consistent calculation

          k = 0.0000 0.0000 0.0000 (115313 PWs)   bands (ev):

   -25.1008 -12.7505  -9.1775  -7.0777  -0.9472   0.4256   0.7549   1.1228

     the Fermi energy is    -5.0930 ev

!    total energy              =     -34.18355087 Ry
     Harris-Foulkes estimate   =     -34.18355083 Ry
     estimated scf accuracy    <          3.4E-11 Ry

     The total energy is the sum of the following terms:

     one-electron contribution =     -63.66342024 Ry
     hartree contribution      =      33.25289026 Ry
     xc contribution           =      -8.35548638 Ry
     ewald contribution        =       4.58246549 Ry
     smearing contrib. (-TS)   =       0.00000000 Ry

     convergence has been achieved in   5 iterations

     Forces acting on atoms (Ry/au):

     atom    1 type  1   force =     0.00030354   -0.00020355    0.00058100
     atom    2 type  1   force =    -0.00101236   -0.00005078    0.00044071
     atom    3 type  2   force =     0.00070882    0.00025433   -0.00102171

     Total force =     0.001818     Total SCF correction =     0.000044

     number of scf cycles    =   8
     number of bfgs steps    =   7

     energy   old            =     -34.1835480957 Ry
     energy   new            =     -34.1835508735 Ry

     CASE: energy  _new < energy  _old

     new trust radius        =       0.0022312147 bohr
     new conv_thr            =            1.0E-10 Ry


ATOMIC_POSITIONS (angstrom)
H       -0.323100650  -0.832850380  -0.273428391
H       -0.786887504   0.593969184   0.073045736
O        0.012109153   0.026556196   0.061045655



     Writing output data file pwscf.save
     Check: negative starting charge=   -0.015986
     NEW-OLD atomic charge density approx. for the potential
     Check: negative starting charge=   -0.015986

     negative rho (up, down):  2.803E-04 0.000E+00

     total cpu time spent up to now is       17.8 secs

     per-process dynamical memory:    45.8 Mb

     Self-consistent Calculation

     iteration #  1     ecut=    90.00 Ry     beta=0.70
     Davidson diagonalization with overlap
     ethr =  1.00E-06,  avg # of iterations =  3.0

     Threshold (ethr) on eigenvalues was too large:
     Diagonalizing with lowered threshold

     Davidson diagonalization with overlap
     ethr =  1.05E-08,  avg # of iterations =  2.0

     negative rho (up, down):  6.072E-05 0.000E+00

     total cpu time spent up to now is       18.2 secs

     total energy              =     -34.18355329 Ry
     Harris-Foulkes estimate   =     -34.18355090 Ry
     estimated scf accuracy    <       0.00000090 Ry

     iteration #  2     ecut=    90.00 Ry     beta=0.70
     Davidson diagonalization with overlap
     ethr =  1.13E-08,  avg # of iterations =  2.0

     negative rho (up, down):  1.346E-05 0.000E+00

     total cpu time spent up to now is       18.3 secs

     total energy              =     -34.18355454 Ry
     Harris-Foulkes estimate   =     -34.18355355 Ry
     estimated scf accuracy    <       0.00000015 Ry

     iteration #  3     ecut=    90.00 Ry     beta=0.70
     Davidson diagonalization with overlap
     ethr =  1.89E-09,  avg # of iterations =  2.0

     negative rho (up, down):  4.391E-07 0.000E+00

     total cpu time spent up to now is       18.5 secs

     total energy              =     -34.18355487 Ry
     Harris-Foulkes estimate   =     -34.18355462 Ry
     estimated scf accuracy    <       0.00000008 Ry

     iteration #  4     ecut=    90.00 Ry     beta=0.70
     Davidson diagonalization with overlap
     ethr =  9.67E-10,  avg # of iterations =  2.0

     total cpu time spent up to now is       18.7 secs

     total energy              =     -34.18355493 Ry
     Harris-Foulkes estimate   =     -34.18355489 Ry
     estimated scf accuracy    <          8.4E-10 Ry

     iteration #  5     ecut=    90.00 Ry     beta=0.70
     Davidson diagonalization with overlap
     ethr =  1.05E-11,  avg # of iterations =  2.0

     total cpu time spent up to now is       18.9 secs

     End of self-consistent calculation

          k = 0.0000 0.0000 0.0000 (115313 PWs)   bands (ev):

   -25.1024 -12.7536  -9.1764  -7.0780  -0.9466   0.4258   0.7553   1.1227

     the Fermi energy is    -5.0934 ev

!    total energy              =     -34.18355492 Ry
     Harris-Foulkes estimate   =     -34.18355493 Ry
     estimated scf accuracy    <          4.4E-11 Ry

     The total energy is the sum of the following terms:

     one-electron contribution =     -63.66772273 Ry
     hartree contribution      =      33.25499672 Ry
     xc contribution           =      -8.35583682 Ry
     ewald contribution        =       4.58500791 Ry
     smearing contrib. (-TS)   =       0.00000000 Ry

     convergence has been achieved in   5 iterations

     Forces acting on atoms (Ry/au):

     atom    1 type  1   force =     0.00021941   -0.00024981    0.00057854
     atom    2 type  1   force =    -0.00151871    0.00024653    0.00046511
     atom    3 type  2   force =     0.00129930    0.00000327   -0.00104365

     Total force =     0.002410     Total SCF correction =     0.000037

     number of scf cycles    =   9
     number of bfgs steps    =   8

     energy   old            =     -34.1835508735 Ry
     energy   new            =     -34.1835549189 Ry

     CASE: energy  _new < energy  _old

     new trust radius        =       0.0033468220 bohr
     new conv_thr            =            1.0E-10 Ry


ATOMIC_POSITIONS (angstrom)
H       -0.322536020  -0.833100126  -0.272545204
H       -0.787427539   0.593383953   0.073724237
O        0.012084559   0.027391173   0.059483967



     Writing output data file pwscf.save
     Check: negative starting charge=   -0.015986
     NEW-OLD atomic charge density approx. for the potential
     Check: negative starting charge=   -0.015986

     negative rho (up, down):  4.514E-04 0.000E+00

     total cpu time spent up to now is       19.4 secs

     per-process dynamical memory:    45.8 Mb

     Self-consistent Calculation

     iteration #  1     ecut=    90.00 Ry     beta=0.70
     Davidson diagonalization with overlap
     ethr =  1.00E-06,  avg # of iterations =  3.0

     Threshold (ethr) on eigenvalues was too large:
     Diagonalizing with lowered threshold

     Davidson diagonalization with overlap
     ethr =  2.31E-08,  avg # of iterations =  2.0

     negative rho (up, down):  1.040E-04 0.000E+00

     total cpu time spent up to now is       19.7 secs

     total energy              =     -34.18355786 Ry
     Harris-Foulkes estimate   =     -34.18355573 Ry
     estimated scf accuracy    <       0.00000195 Ry

     iteration #  2     ecut=    90.00 Ry     beta=0.70
     Davidson diagonalization with overlap
     ethr =  2.44E-08,  avg # of iterations =  2.0

     negative rho (up, down):  1.816E-05 0.000E+00

     total cpu time spent up to now is       20.1 secs

     total energy              =     -34.18356054 Ry
     Harris-Foulkes estimate   =     -34.18355836 Ry
     estimated scf accuracy    <       0.00000022 Ry

     iteration #  3     ecut=    90.00 Ry     beta=0.70
     Davidson diagonalization with overlap
     ethr =  2.72E-09,  avg # of iterations =  2.0

     negative rho (up, down):  1.079E-06 0.000E+00

     total cpu time spent up to now is       20.3 secs

     total energy              =     -34.18356100 Ry
     Harris-Foulkes estimate   =     -34.18356067 Ry
     estimated scf accuracy    <       0.00000012 Ry

     iteration #  4     ecut=    90.00 Ry     beta=0.70
     Davidson diagonalization with overlap
     ethr =  1.54E-09,  avg # of iterations =  2.0

     total cpu time spent up to now is       20.5 secs

     total energy              =     -34.18356099 Ry
     Harris-Foulkes estimate   =     -34.18356103 Ry
     estimated scf accuracy    <          3.3E-09 Ry

     iteration #  5     ecut=    90.00 Ry     beta=0.70
     Davidson diagonalization with overlap
     ethr =  4.16E-11,  avg # of iterations =  2.0

     total cpu time spent up to now is       20.6 secs

     End of self-consistent calculation

          k = 0.0000 0.0000 0.0000 (115313 PWs)   bands (ev):

   -25.1042 -12.7571  -9.1752  -7.0784  -0.9458   0.4261   0.7558   1.1226

     the Fermi energy is    -5.0940 ev

!    total energy              =     -34.18356098 Ry
     Harris-Foulkes estimate   =     -34.18356099 Ry
     estimated scf accuracy    <          6.5E-11 Ry

     The total energy is the sum of the following terms:

     one-electron contribution =     -63.67277429 Ry
     hartree contribution      =      33.25746769 Ry
     xc contribution           =      -8.35625025 Ry
     ewald contribution        =       4.58799588 Ry
     smearing contrib. (-TS)   =       0.00000000 Ry

     convergence has been achieved in   5 iterations

     Forces acting on atoms (Ry/au):

     atom    1 type  1   force =     0.00012118   -0.00030074    0.00056044
     atom    2 type  1   force =    -0.00210778    0.00060585    0.00048653
     atom    3 type  2   force =     0.00198660   -0.00030511   -0.00104697

     Total force =     0.003256     Total SCF correction =     0.000039

     number of scf cycles    =  10
     number of bfgs steps    =   9

     energy   old            =     -34.1835549189 Ry
     energy   new            =     -34.1835609770 Ry

     CASE: energy  _new < energy  _old

     new trust radius        =       0.0050202330 bohr
     new conv_thr            =            1.0E-10 Ry


ATOMIC_POSITIONS (angstrom)
H       -0.321716754  -0.833467872  -0.271219128
H       -0.788277374   0.592513960   0.074748598
O        0.012115128   0.028628912   0.057133530



     Writing output data file pwscf.save
     Check: negative starting charge=   -0.015986
     NEW-OLD atomic charge density approx. for the potential
     Check: negative starting charge=   -0.015985

     negative rho (up, down):  7.194E-04 0.000E+00

     total cpu time spent up to now is       21.3 secs

     per-process dynamical memory:    45.8 Mb

     Self-consistent Calculation

     iteration #  1     ecut=    90.00 Ry     beta=0.70
     Davidson diagonalization with overlap
     ethr =  1.00E-06,  avg # of iterations =  4.0

     Threshold (ethr) on eigenvalues was too large:
     Diagonalizing with lowered threshold

     Davidson diagonalization with overlap
     ethr =  5.53E-08,  avg # of iterations =  1.0

     negative rho (up, down):  1.731E-04 0.000E+00

     total cpu time spent up to now is       21.6 secs

     total energy              =     -34.18356471 Ry
     Harris-Foulkes estimate   =     -34.18355429 Ry
     estimated scf accuracy    <       0.00000436 Ry

     iteration #  2     ecut=    90.00 Ry     beta=0.70
     Davidson diagonalization with overlap
     ethr =  5.45E-08,  avg # of iterations =  3.0

     negative rho (up, down):  3.017E-05 0.000E+00

     total cpu time spent up to now is       21.8 secs

     total energy              =     -34.18356909 Ry
     Harris-Foulkes estimate   =     -34.18356578 Ry
     estimated scf accuracy    <       0.00000042 Ry

     iteration #  3     ecut=    90.00 Ry     beta=0.70
     Davidson diagonalization with overlap
     ethr =  5.24E-09,  avg # of iterations =  3.0

     negative rho (up, down):  2.897E-06 0.000E+00

     total cpu time spent up to now is       22.0 secs

     total energy              =     -34.18356975 Ry
     Harris-Foulkes estimate   =     -34.18356932 Ry
     estimated scf accuracy    <       0.00000023 Ry

     iteration #  4     ecut=    90.00 Ry     beta=0.70
     Davidson diagonalization with overlap
     ethr =  2.87E-09,  avg # of iterations =  2.0

     total cpu time spent up to now is       22.2 secs

     total energy              =     -34.18356999 Ry
     Harris-Foulkes estimate   =     -34.18356982 Ry
     estimated scf accuracy    <          8.9E-09 Ry

     iteration #  5     ecut=    90.00 Ry     beta=0.70
     Davidson diagonalization with overlap
     ethr =  1.11E-10,  avg # of iterations =  2.0

     total cpu time spent up to now is       22.4 secs

     total energy              =     -34.18357002 Ry
     Harris-Foulkes estimate   =     -34.18356999 Ry
     estimated scf accuracy    <          1.2E-10 Ry

     iteration #  6     ecut=    90.00 Ry     beta=0.70
     Davidson diagonalization with overlap
     ethr =  1.55E-12,  avg # of iterations =  3.0

     total cpu time spent up to now is       22.6 secs

     End of self-consistent calculation

          k = 0.0000 0.0000 0.0000 (115313 PWs)   bands (ev):

   -25.1063 -12.7613  -9.1737  -7.0788  -0.9449   0.4264   0.7560   1.1224

     the Fermi energy is    -5.0946 ev

!    total energy              =     -34.18357003 Ry
     Harris-Foulkes estimate   =     -34.18357002 Ry
     estimated scf accuracy    <          1.3E-11 Ry

     The total energy is the sum of the following terms:

     one-electron contribution =     -63.67881468 Ry
     hartree contribution      =      33.26043475 Ry
     xc contribution           =      -8.35674955 Ry
     ewald contribution        =       4.59155944 Ry
     smearing contrib. (-TS)   =       0.00000000 Ry

     convergence has been achieved in   6 iterations

     Forces acting on atoms (Ry/au):

     atom    1 type  1   force =     0.00000950   -0.00034014    0.00052916
     atom    2 type  1   force =    -0.00280812    0.00105307    0.00050942
     atom    3 type  2   force =     0.00279862   -0.00071292   -0.00103857

     Total force =     0.004367     Total SCF correction =     0.000015

     number of scf cycles    =  11
     number of bfgs steps    =  10

     energy   old            =     -34.1835609770 Ry
     energy   new            =     -34.1835700283 Ry

     CASE: energy  _new < energy  _old

     new trust radius        =       0.0075303495 bohr
     new conv_thr            =            1.0E-10 Ry


ATOMIC_POSITIONS (angstrom)
H       -0.320507905  -0.834014020  -0.269231289
H       -0.789596539   0.591230847   0.076299258
O        0.012225444   0.030458173   0.053595031



     Writing output data file pwscf.save
     Check: negative starting charge=   -0.015985
     NEW-OLD atomic charge density approx. for the potential
     Check: negative starting charge=   -0.015985

     negative rho (up, down):  1.137E-03 0.000E+00

     total cpu time spent up to now is       23.1 secs

     per-process dynamical memory:    45.8 Mb

     Self-consistent Calculation

     iteration #  1     ecut=    90.00 Ry     beta=0.70
     Davidson diagonalization with overlap
     ethr =  1.00E-06,  avg # of iterations =  5.0

     negative rho (up, down):  2.820E-04 0.000E+00

     total cpu time spent up to now is       23.4 secs

     total energy              =     -34.18357511 Ry
     Harris-Foulkes estimate   =     -34.18349890 Ry
     estimated scf accuracy    <       0.00000949 Ry

     iteration #  2     ecut=    90.00 Ry     beta=0.70
     Davidson diagonalization with overlap
     ethr =  1.19E-07,  avg # of iterations =  4.0

     negative rho (up, down):  4.539E-05 0.000E+00

     total cpu time spent up to now is       23.6 secs

     total energy              =     -34.18358077 Ry
     Harris-Foulkes estimate   =     -34.18357745 Ry
     estimated scf accuracy    <       0.00000084 Ry

     iteration #  3     ecut=    90.00 Ry     beta=0.70
     Davidson diagonalization with overlap
     ethr =  1.05E-08,  avg # of iterations =  3.0

     negative rho (up, down):  5.920E-06 0.000E+00

     total cpu time spent up to now is       23.8 secs

     total energy              =     -34.18358170 Ry
     Harris-Foulkes estimate   =     -34.18358123 Ry
     estimated scf accuracy    <       0.00000048 Ry

     iteration #  4     ecut=    90.00 Ry     beta=0.70
     Davidson diagonalization with overlap
     ethr =  6.01E-09,  avg # of iterations =  2.0

     total cpu time spent up to now is       24.0 secs

     total energy              =     -34.18358194 Ry
     Harris-Foulkes estimate   =     -34.18358183 Ry
     estimated scf accuracy    <       0.00000002 Ry

     iteration #  5     ecut=    90.00 Ry     beta=0.70
     Davidson diagonalization with overlap
     ethr =  2.06E-10,  avg # of iterations =  2.0

     total cpu time spent up to now is       24.3 secs

     total energy              =     -34.18358196 Ry
     Harris-Foulkes estimate   =     -34.18358195 Ry
     estimated scf accuracy    <          2.4E-10 Ry

     iteration #  6     ecut=    90.00 Ry     beta=0.70
     Davidson diagonalization with overlap
     ethr =  2.95E-12,  avg # of iterations =  3.0

     total cpu time spent up to now is       24.5 secs

     End of self-consistent calculation

          k = 0.0000 0.0000 0.0000 (115313 PWs)   bands (ev):

   -25.1087 -12.7664  -9.1719  -7.0793  -0.9439   0.4268   0.7566   1.1223

     the Fermi energy is    -5.0953 ev

!    total energy              =     -34.18358195 Ry
     Harris-Foulkes estimate   =     -34.18358196 Ry
     estimated scf accuracy    <          2.0E-11 Ry

     The total energy is the sum of the following terms:

     one-electron contribution =     -63.68586680 Ry
     hartree contribution      =      33.26389269 Ry
     xc contribution           =      -8.35733359 Ry
     ewald contribution        =       4.59572576 Ry
     smearing contrib. (-TS)   =       0.00000000 Ry

     convergence has been achieved in   6 iterations

     Forces acting on atoms (Ry/au):

     atom    1 type  1   force =    -0.00012688   -0.00034769    0.00042690
     atom    2 type  1   force =    -0.00362738    0.00160375    0.00048161
     atom    3 type  2   force =     0.00375427   -0.00125606   -0.00090851

     Total force =     0.005725     Total SCF correction =     0.000012

     number of scf cycles    =  12
     number of bfgs steps    =  11

     energy   old            =     -34.1835700283 Ry
     energy   new            =     -34.1835819489 Ry

     CASE: energy  _new < energy  _old

     new trust radius        =       0.0112955242 bohr
     new conv_thr            =            1.0E-10 Ry


ATOMIC_POSITIONS (angstrom)
H       -0.318708472  -0.834797807  -0.266249831
H       -0.791678827   0.589299901   0.078635576
O        0.012508300   0.033172906   0.048277255



     Writing output data file pwscf.save
     Check: negative starting charge=   -0.015985
     NEW-OLD atomic charge density approx. for the potential
     Check: negative starting charge=   -0.015984

     negative rho (up, down):  1.787E-03 0.000E+00

     total cpu time spent up to now is       25.1 secs

     per-process dynamical memory:    45.8 Mb

     Self-consistent Calculation

     iteration #  1     ecut=    90.00 Ry     beta=0.70
     Davidson diagonalization with overlap
     ethr =  1.00E-06,  avg # of iterations = 13.0

     negative rho (up, down):  4.518E-04 0.000E+00

     total cpu time spent up to now is       25.4 secs

     total energy              =     -34.17950734 Ry
     Harris-Foulkes estimate   =     -34.17902406 Ry
     estimated scf accuracy    <       0.00002105 Ry

     iteration #  2     ecut=    90.00 Ry     beta=0.70
     Davidson diagonalization with overlap
     ethr =  2.63E-07,  avg # of iterations =  7.0

     negative rho (up, down):  6.417E-05 0.000E+00

     total cpu time spent up to now is       25.6 secs

     total energy              =     -34.18359486 Ry
     Harris-Foulkes estimate   =     -34.18359001 Ry
     estimated scf accuracy    <       0.00000160 Ry

     iteration #  3     ecut=    90.00 Ry     beta=0.70
     Davidson diagonalization with overlap
     ethr =  2.01E-08,  avg # of iterations =  3.0

     negative rho (up, down):  1.193E-05 0.000E+00

     total cpu time spent up to now is       25.9 secs

     total energy              =     -34.18359600 Ry
     Harris-Foulkes estimate   =     -34.18359570 Ry
     estimated scf accuracy    <       0.00000079 Ry

     iteration #  4     ecut=    90.00 Ry     beta=0.70
     Davidson diagonalization with overlap
     ethr =  9.84E-09,  avg # of iterations =  2.0

     total cpu time spent up to now is       26.1 secs

     total energy              =     -34.18359642 Ry
     Harris-Foulkes estimate   =     -34.18359622 Ry
     estimated scf accuracy    <       0.00000004 Ry

     iteration #  5     ecut=    90.00 Ry     beta=0.70
     Davidson diagonalization with overlap
     ethr =  4.84E-10,  avg # of iterations =  2.0

     total cpu time spent up to now is       26.3 secs

     total energy              =     -34.18359645 Ry
     Harris-Foulkes estimate   =     -34.18359644 Ry
     estimated scf accuracy    <          4.4E-10 Ry

     iteration #  6     ecut=    90.00 Ry     beta=0.70
     Davidson diagonalization with overlap
     ethr =  5.45E-12,  avg # of iterations =  3.0

     total cpu time spent up to now is       26.5 secs

     End of self-consistent calculation

          k = 0.0000 0.0000 0.0000 (115313 PWs)   bands (ev):

   -25.1112 -12.7713  -9.1701  -7.0798  -0.9428   0.4271   0.7571   1.1226

     the Fermi energy is    -5.0957 ev

!    total energy              =     -34.18359645 Ry
     Harris-Foulkes estimate   =     -34.18359645 Ry
     estimated scf accuracy    <          4.7E-11 Ry

     The total energy is the sum of the following terms:

     one-electron contribution =     -63.69284865 Ry
     hartree contribution      =      33.26731603 Ry
     xc contribution           =      -8.35791533 Ry
     ewald contribution        =       4.59985150 Ry
     smearing contrib. (-TS)   =       0.00000000 Ry

     convergence has been achieved in   6 iterations

     Forces acting on atoms (Ry/au):

     atom    1 type  1   force =    -0.00025403   -0.00029839    0.00023594
     atom    2 type  1   force =    -0.00442934    0.00220239    0.00038902
     atom    3 type  2   force =     0.00468337   -0.00190401   -0.00062496

     Total force =     0.007126     Total SCF correction =     0.000025

     number of scf cycles    =  13
     number of bfgs steps    =  12

     energy   old            =     -34.1835819489 Ry
     energy   new            =     -34.1835964491 Ry

     CASE: energy  _new < energy  _old

     new trust radius        =       0.0169432863 bohr
     new conv_thr            =            1.0E-10 Ry


ATOMIC_POSITIONS (angstrom)
H       -0.315975518  -0.835901123  -0.261786364
H       -0.795050712   0.586392481   0.082165541
O        0.013147229   0.037183641   0.040283824



     Writing output data file pwscf.save
     Check: negative starting charge=   -0.015984
     NEW-OLD atomic charge density approx. for the potential
     Check: negative starting charge=   -0.015982

     negative rho (up, down):  2.791E-03 0.000E+00

     total cpu time spent up to now is       27.2 secs

     per-process dynamical memory:    45.8 Mb

     Self-consistent Calculation

     iteration #  1     ecut=    90.00 Ry     beta=0.70
     Davidson diagonalization with overlap
     ethr =  1.00E-06,  avg # of iterations = 12.0

     negative rho (up, down):  7.142E-04 0.000E+00

     total cpu time spent up to now is       27.6 secs

     total energy              =     -34.17950152 Ry
     Harris-Foulkes estimate   =     -34.17781621 Ry
     estimated scf accuracy    <       0.00004752 Ry

     iteration #  2     ecut=    90.00 Ry     beta=0.70
     Davidson diagonalization with overlap
     ethr =  5.94E-07,  avg # of iterations = 10.0

     negative rho (up, down):  8.884E-05 0.000E+00

     total cpu time spent up to now is       27.8 secs

     total energy              =     -34.18360741 Ry
     Harris-Foulkes estimate   =     -34.18359052 Ry
     estimated scf accuracy    <       0.00000295 Ry

     iteration #  3     ecut=    90.00 Ry     beta=0.70
     Davidson diagonalization with overlap
     ethr =  3.69E-08,  avg # of iterations =  4.0

     negative rho (up, down):  1.560E-05 0.000E+00

     total cpu time spent up to now is       28.1 secs

     total energy              =     -34.18360968 Ry
     Harris-Foulkes estimate   =     -34.18360864 Ry
     estimated scf accuracy    <       0.00000058 Ry

     iteration #  4     ecut=    90.00 Ry     beta=0.70
     Davidson diagonalization with overlap
     ethr =  7.24E-09,  avg # of iterations =  2.0

     total cpu time spent up to now is       28.3 secs

     total energy              =     -34.18361033 Ry
     Harris-Foulkes estimate   =     -34.18360993 Ry
     estimated scf accuracy    <       0.00000014 Ry

     iteration #  5     ecut=    90.00 Ry     beta=0.70
     Davidson diagonalization with overlap
     ethr =  1.77E-09,  avg # of iterations =  2.0

     total cpu time spent up to now is       28.5 secs

     total energy              =     -34.18361044 Ry
     Harris-Foulkes estimate   =     -34.18361036 Ry
     estimated scf accuracy    <          5.5E-10 Ry

     iteration #  6     ecut=    90.00 Ry     beta=0.70
     Davidson diagonalization with overlap
     ethr =  6.85E-12,  avg # of iterations =  3.0

     total cpu time spent up to now is       28.7 secs

     total energy              =     -34.18361044 Ry
     Harris-Foulkes estimate   =     -34.18361044 Ry
     estimated scf accuracy    <          1.5E-10 Ry

     iteration #  7     ecut=    90.00 Ry     beta=0.70
     Davidson diagonalization with overlap
     ethr =  1.92E-12,  avg # of iterations =  2.0

     total cpu time spent up to now is       28.8 secs

     End of self-consistent calculation

          k = 0.0000 0.0000 0.0000 (115313 PWs)   bands (ev):

   -25.1121 -12.7735  -9.1692  -7.0800  -0.9424   0.4272   0.7571   1.1231

     the Fermi energy is    -5.0956 ev

!    total energy              =     -34.18361043 Ry
     Harris-Foulkes estimate   =     -34.18361044 Ry
     estimated scf accuracy    <          2.3E-11 Ry

     The total energy is the sum of the following terms:

     one-electron contribution =     -63.69574272 Ry
     hartree contribution      =      33.26873358 Ry
     xc contribution           =      -8.35816376 Ry
     ewald contribution        =       4.60156247 Ry
     smearing contrib. (-TS)   =       0.00000000 Ry

     convergence has been achieved in   7 iterations

     Forces acting on atoms (Ry/au):

     atom    1 type  1   force =    -0.00032948   -0.00016079   -0.00001464
     atom    2 type  1   force =    -0.00472387    0.00255751    0.00024183
     atom    3 type  2   force =     0.00505335   -0.00239673   -0.00022719

     Total force =     0.007771     Total SCF correction =     0.000014

     number of scf cycles    =  14
     number of bfgs steps    =  13

     energy   old            =     -34.1835964491 Ry
     energy   new            =     -34.1836104303 Ry

     CASE: energy  _new < energy  _old

     new trust radius        =       0.0102471418 bohr
     new conv_thr            =            1.0E-10 Ry


ATOMIC_POSITIONS (angstrom)
H       -0.314265895  -0.836464769  -0.259108516
H       -0.797389770   0.584614307   0.084337824
O        0.013776666   0.039525463   0.035433693



     Writing output data file pwscf.save
     Check: negative starting charge=   -0.015982
     NEW-OLD atomic charge density approx. for the potential
     Check: negative starting charge=   -0.015980

     negative rho (up, down):  1.602E-03 0.000E+00

     total cpu time spent up to now is       29.4 secs

     per-process dynamical memory:    45.8 Mb

     Self-consistent Calculation

     iteration #  1     ecut=    90.00 Ry     beta=0.70
     Davidson diagonalization with overlap
     ethr =  1.00E-06,  avg # of iterations =  8.0

     negative rho (up, down):  4.032E-04 0.000E+00

     total cpu time spent up to now is       29.8 secs

     total energy              =     -34.17953128 Ry
     Harris-Foulkes estimate   =     -34.17920198 Ry
     estimated scf accuracy    <       0.00001715 Ry

     iteration #  2     ecut=    90.00 Ry     beta=0.70
     Davidson diagonalization with overlap
     ethr =  2.14E-07,  avg # of iterations =  5.0

     negative rho (up, down):  3.402E-05 0.000E+00

     total cpu time spent up to now is       30.1 secs

     total energy              =     -34.18361661 Ry
     Harris-Foulkes estimate   =     -34.18361271 Ry
     estimated scf accuracy    <       0.00000101 Ry

     iteration #  3     ecut=    90.00 Ry     beta=0.70
     Davidson diagonalization with overlap
     ethr =  1.26E-08,  avg # of iterations =  4.0

     negative rho (up, down):  1.175E-06 0.000E+00

     total cpu time spent up to now is       30.3 secs

     total energy              =     -34.18361778 Ry
     Harris-Foulkes estimate   =     -34.18361702 Ry
     estimated scf accuracy    <       0.00000007 Ry

     iteration #  4     ecut=    90.00 Ry     beta=0.70
     Davidson diagonalization with overlap
     ethr =  8.13E-10,  avg # of iterations =  2.0

     total cpu time spent up to now is       30.5 secs

     total energy              =     -34.18361782 Ry
     Harris-Foulkes estimate   =     -34.18361783 Ry
     estimated scf accuracy    <       0.00000003 Ry

     iteration #  5     ecut=    90.00 Ry     beta=0.70
     Davidson diagonalization with overlap
     ethr =  3.96E-10,  avg # of iterations =  2.0

     total cpu time spent up to now is       30.7 secs

     total energy              =     -34.18361783 Ry
     Harris-Foulkes estimate   =     -34.18361783 Ry
     estimated scf accuracy    <          4.6E-10 Ry

     iteration #  6     ecut=    90.00 Ry     beta=0.70
     Davidson diagonalization with overlap
     ethr =  5.71E-12,  avg # of iterations =  2.0

     total cpu time spent up to now is       30.8 secs

     End of self-consistent calculation

          k = 0.0000 0.0000 0.0000 (115313 PWs)   bands (ev):

   -25.1104 -12.7702  -9.1703  -7.0799  -0.9431   0.4270   0.7564   1.1231

     the Fermi energy is    -5.0951 ev

!    total energy              =     -34.18361782 Ry
     Harris-Foulkes estimate   =     -34.18361783 Ry
     estimated scf accuracy    <          1.7E-11 Ry

     The total energy is the sum of the following terms:

     one-electron contribution =     -63.69106707 Ry
     hartree contribution      =      33.26645441 Ry
     xc contribution           =      -8.35779287 Ry
     ewald contribution        =       4.59878772 Ry
     smearing contrib. (-TS)   =       0.00000000 Ry

     convergence has been achieved in   6 iterations

     Forces acting on atoms (Ry/au):

     atom    1 type  1   force =    -0.00033410   -0.00018062   -0.00015497
     atom    2 type  1   force =    -0.00396247    0.00222889    0.00015237
     atom    3 type  2   force =     0.00429657   -0.00204827    0.00000260

     Total force =     0.006597     Total SCF correction =     0.000022

     number of scf cycles    =  15
     number of bfgs steps    =  14

     energy   old            =     -34.1836104303 Ry
     energy   new            =     -34.1836178238 Ry

     CASE: energy  _new < energy  _old

     new trust radius        =       0.0084259553 bohr
     new conv_thr            =            1.0E-10 Ry


ATOMIC_POSITIONS (angstrom)
H       -0.312791703  -0.836863579  -0.256979880
H       -0.799697521   0.583169983   0.086182744
O        0.014610223   0.041368595   0.031460136



     Writing output data file pwscf.save
     Check: negative starting charge=   -0.015980
     NEW-OLD atomic charge density approx. for the potential
     Check: negative starting charge=   -0.015977

     negative rho (up, down):  1.288E-03 0.000E+00

     total cpu time spent up to now is       31.5 secs

     per-process dynamical memory:    45.8 Mb

     Self-consistent Calculation

     iteration #  1     ecut=    90.00 Ry     beta=0.70
     Davidson diagonalization with overlap
     ethr =  1.00E-06,  avg # of iterations =  6.0

     negative rho (up, down):  3.214E-04 0.000E+00

     total cpu time spent up to now is       31.8 secs

     total energy              =     -34.17954031 Ry
     Harris-Foulkes estimate   =     -34.17940673 Ry
     estimated scf accuracy    <       0.00001228 Ry

     iteration #  2     ecut=    90.00 Ry     beta=0.70
     Davidson diagonalization with overlap
     ethr =  1.54E-07,  avg # of iterations =  4.0

     negative rho (up, down):  5.869E-05 0.000E+00

     total cpu time spent up to now is       32.0 secs

     total energy              =     -34.18362244 Ry
     Harris-Foulkes estimate   =     -34.18362083 Ry
     estimated scf accuracy    <       0.00000126 Ry

     iteration #  3     ecut=    90.00 Ry     beta=0.70
     Davidson diagonalization with overlap
     ethr =  1.58E-08,  avg # of iterations =  3.0

     negative rho (up, down):  6.584E-06 0.000E+00

     total cpu time spent up to now is       32.2 secs

     total energy              =     -34.18362406 Ry
     Harris-Foulkes estimate   =     -34.18362315 Ry
     estimated scf accuracy    <       0.00000085 Ry

     iteration #  4     ecut=    90.00 Ry     beta=0.70
     Davidson diagonalization with overlap
     ethr =  1.06E-08,  avg # of iterations =  2.0

     total cpu time spent up to now is       32.4 secs

     total energy              =     -34.18362456 Ry
     Harris-Foulkes estimate   =     -34.18362427 Ry
     estimated scf accuracy    <       0.00000001 Ry

     iteration #  5     ecut=    90.00 Ry     beta=0.70
     Davidson diagonalization with overlap
     ethr =  1.70E-10,  avg # of iterations =  2.0

     total cpu time spent up to now is       32.6 secs

     total energy              =     -34.18362457 Ry
     Harris-Foulkes estimate   =     -34.18362457 Ry
     estimated scf accuracy    <          3.9E-10 Ry

     iteration #  6     ecut=    90.00 Ry     beta=0.70
     Davidson diagonalization with overlap
     ethr =  4.86E-12,  avg # of iterations =  2.0

     total cpu time spent up to now is       32.8 secs

     End of self-consistent calculation

          k = 0.0000 0.0000 0.0000 (115313 PWs)   bands (ev):

   -25.1057 -12.7622  -9.1726  -7.0792  -0.9447   0.4265   0.7553   1.1231

     the Fermi energy is    -5.0940 ev

!    total energy              =     -34.18362454 Ry
     Harris-Foulkes estimate   =     -34.18362457 Ry
     estimated scf accuracy    <          2.3E-11 Ry

     The total energy is the sum of the following terms:

     one-electron contribution =     -63.67908673 Ry
     hartree contribution      =      33.26063641 Ry
     xc contribution           =      -8.35683914 Ry
     ewald contribution        =       4.59166491 Ry
     smearing contrib. (-TS)   =       0.00000000 Ry

     convergence has been achieved in   6 iterations

     Forces acting on atoms (Ry/au):

     atom    1 type  1   force =    -0.00027660   -0.00022804   -0.00024518
     atom    2 type  1   force =    -0.00222207    0.00131177    0.00003887
     atom    3 type  2   force =     0.00249867   -0.00108372    0.00020630

     Total force =     0.003783     Total SCF correction =     0.000011

     number of scf cycles    =  16
     number of bfgs steps    =  15

     energy   old            =     -34.1836178238 Ry
     energy   new            =     -34.1836245436 Ry

     CASE: energy  _new < energy  _old

     new trust radius        =       0.0009465889 bohr
     new conv_thr            =            1.0E-10 Ry


ATOMIC_POSITIONS (angstrom)
H       -0.312728417  -0.836798913  -0.257105951
H       -0.800194443   0.583193448   0.086241327
O        0.015043859   0.041280465   0.031527624



     Writing output data file pwscf.save
     Check: negative starting charge=   -0.015977
     NEW-OLD atomic charge density approx. for the potential
     Check: negative starting charge=   -0.015976

     negative rho (up, down):  8.419E-05 0.000E+00

     total cpu time spent up to now is       33.4 secs

     per-process dynamical memory:    45.8 Mb

     Self-consistent Calculation

     iteration #  1     ecut=    90.00 Ry     beta=0.70
     Davidson diagonalization with overlap
     ethr =  1.00E-06,  avg # of iterations =  2.0

     Threshold (ethr) on eigenvalues was too large:
     Diagonalizing with lowered threshold

     Davidson diagonalization with overlap
     ethr =  7.58E-09,  avg # of iterations =  2.0

     negative rho (up, down):  1.415E-05 0.000E+00

     total cpu time spent up to now is       33.7 secs

     total energy              =     -34.18362718 Ry
     Harris-Foulkes estimate   =     -34.18362562 Ry
     estimated scf accuracy    <       0.00000062 Ry

     iteration #  2     ecut=    90.00 Ry     beta=0.70
     Davidson diagonalization with overlap
     ethr =  7.73E-09,  avg # of iterations =  2.0

     negative rho (up, down):  6.485E-06 0.000E+00

     total cpu time spent up to now is       33.9 secs

     total energy              =     -34.18362742 Ry
     Harris-Foulkes estimate   =     -34.18362762 Ry
     estimated scf accuracy    <       0.00000060 Ry

     iteration #  3     ecut=    90.00 Ry     beta=0.70
     Davidson diagonalization with overlap
     ethr =  7.56E-09,  avg # of iterations =  2.0

     negative rho (up, down):  2.018E-07 0.000E+00

     total cpu time spent up to now is       34.1 secs

     total energy              =     -34.18362774 Ry
     Harris-Foulkes estimate   =     -34.18362755 Ry
     estimated scf accuracy    <          6.1E-09 Ry

     iteration #  4     ecut=    90.00 Ry     beta=0.70
     Davidson diagonalization with overlap
     ethr =  7.56E-11,  avg # of iterations =  2.0

     total cpu time spent up to now is       34.3 secs

     total energy              =     -34.18362776 Ry
     Harris-Foulkes estimate   =     -34.18362775 Ry
     estimated scf accuracy    <          2.8E-10 Ry

     iteration #  5     ecut=    90.00 Ry     beta=0.70
     Davidson diagonalization with overlap
     ethr =  3.47E-12,  avg # of iterations =  2.0

     total cpu time spent up to now is       34.4 secs

     End of self-consistent calculation

          k = 0.0000 0.0000 0.0000 (115313 PWs)   bands (ev):

   -25.1018 -12.7559  -9.1743  -7.0786  -0.9461   0.4260   0.7544   1.1230

     the Fermi energy is    -5.0931 ev

!    total energy              =     -34.18362781 Ry
     Harris-Foulkes estimate   =     -34.18362776 Ry
     estimated scf accuracy    <          2.2E-11 Ry

     The total energy is the sum of the following terms:

     one-electron contribution =     -63.66922969 Ry
     hartree contribution      =      33.25586599 Ry
     xc contribution           =      -8.35605957 Ry
     ewald contribution        =       4.58579546 Ry
     smearing contrib. (-TS)   =       0.00000000 Ry

     convergence has been achieved in   5 iterations

     Forces acting on atoms (Ry/au):

     atom    1 type  1   force =    -0.00016165   -0.00026064   -0.00023369
     atom    2 type  1   force =    -0.00086145    0.00051161   -0.00001645
     atom    3 type  2   force =     0.00102310   -0.00025097    0.00025014

     Total force =     0.001525     Total SCF correction =     0.000100

     number of scf cycles    =  17
     number of bfgs steps    =  16

     energy   old            =     -34.1836245436 Ry
     energy   new            =     -34.1836278145 Ry

     CASE: energy  _new < energy  _old

     new trust radius        =       0.0020824956 bohr
     new conv_thr            =            1.0E-10 Ry


ATOMIC_POSITIONS (angstrom)
H       -0.313029642  -0.836687789  -0.257699738
H       -0.799960089   0.583548082   0.085838609
O        0.015110731   0.040814708   0.032524129



     Writing output data file pwscf.save
     Check: negative starting charge=   -0.015976
     NEW-OLD atomic charge density approx. for the potential
     Check: negative starting charge=   -0.015976

     negative rho (up, down):  2.569E-04 0.000E+00

     total cpu time spent up to now is       35.1 secs

     per-process dynamical memory:    45.8 Mb

     Self-consistent Calculation

     iteration #  1     ecut=    90.00 Ry     beta=0.70
     Davidson diagonalization with overlap
     ethr =  1.00E-06,  avg # of iterations =  3.0

     Threshold (ethr) on eigenvalues was too large:
     Diagonalizing with lowered threshold

     Davidson diagonalization with overlap
     ethr =  8.80E-09,  avg # of iterations =  2.0

     negative rho (up, down):  5.489E-05 0.000E+00

     total cpu time spent up to now is       35.4 secs

     total energy              =     -34.18362739 Ry
     Harris-Foulkes estimate   =     -34.18362602 Ry
     estimated scf accuracy    <       0.00000075 Ry

     iteration #  2     ecut=    90.00 Ry     beta=0.70
     Davidson diagonalization with overlap
     ethr =  9.34E-09,  avg # of iterations =  2.0

     negative rho (up, down):  9.022E-06 0.000E+00

     total cpu time spent up to now is       35.6 secs

     total energy              =     -34.18362862 Ry
     Harris-Foulkes estimate   =     -34.18362759 Ry
     estimated scf accuracy    <       0.00000010 Ry

     iteration #  3     ecut=    90.00 Ry     beta=0.70
     Davidson diagonalization with overlap
     ethr =  1.25E-09,  avg # of iterations =  3.0

     negative rho (up, down):  3.568E-07 0.000E+00

     total cpu time spent up to now is       35.8 secs

     total energy              =     -34.18362881 Ry
     Harris-Foulkes estimate   =     -34.18362868 Ry
     estimated scf accuracy    <       0.00000007 Ry

     iteration #  4     ecut=    90.00 Ry     beta=0.70
     Davidson diagonalization with overlap
     ethr =  8.16E-10,  avg # of iterations =  2.0

     total cpu time spent up to now is       36.0 secs

     total energy              =     -34.18362885 Ry
     Harris-Foulkes estimate   =     -34.18362883 Ry
     estimated scf accuracy    <          6.1E-10 Ry

     iteration #  5     ecut=    90.00 Ry     beta=0.70
     Davidson diagonalization with overlap
     ethr =  7.63E-12,  avg # of iterations =  2.0

     total cpu time spent up to now is       36.1 secs

     End of self-consistent calculation

          k = 0.0000 0.0000 0.0000 (115313 PWs)   bands (ev):

   -25.1003 -12.7538  -9.1747  -7.0783  -0.9466   0.4258   0.7542   1.1228

     the Fermi energy is    -5.0929 ev

!    total energy              =     -34.18362884 Ry
     Harris-Foulkes estimate   =     -34.18362885 Ry
     estimated scf accuracy    <          3.8E-11 Ry

     The total energy is the sum of the following terms:

     one-electron contribution =     -63.66571266 Ry
     hartree contribution      =      33.25418046 Ry
     xc contribution           =      -8.35578500 Ry
     ewald contribution        =       4.58368837 Ry
     smearing contrib. (-TS)   =       0.00000000 Ry

     convergence has been achieved in   5 iterations

     Forces acting on atoms (Ry/au):

     atom    1 type  1   force =    -0.00013184   -0.00018141   -0.00018265
     atom    2 type  1   force =    -0.00052028    0.00025967   -0.00001864
     atom    3 type  2   force =     0.00065212   -0.00007826    0.00020129

     Total force =     0.000946     Total SCF correction =     0.000026

     bfgs converged in  18 scf cycles and  17 bfgs steps
     (criteria: energy <  1.0E-04, force <  1.0E-03)

     End of BFGS Geometry Optimization

     Final energy   =     -34.1836288375 Ry
Begin final coordinates

ATOMIC_POSITIONS (angstrom)
H       -0.313029642  -0.836687789  -0.257699738
H       -0.799960089   0.583548082   0.085838609
O        0.015110731   0.040814708   0.032524129
End final coordinates



     Writing output data file pwscf.save
 
     init_run     :      0.51s CPU      0.55s WALL (       1 calls)
     electrons    :     23.23s CPU     27.66s WALL (      18 calls)
     update_pot   :      4.19s CPU      5.01s WALL (      17 calls)
     forces       :      1.24s CPU      1.29s WALL (      18 calls)

     Called by init_run:
     wfcinit      :      0.03s CPU      0.04s WALL (       1 calls)
     potinit      :      0.11s CPU      0.11s WALL (       1 calls)

     Called by electrons:
     c_bands      :     10.74s CPU     11.30s WALL (     112 calls)
     sum_band     :      2.38s CPU      2.44s WALL (     112 calls)
     v_of_rho     :      6.22s CPU      6.40s WALL (     123 calls)
     mix_rho      :      2.31s CPU      4.21s WALL (     112 calls)

     Called by c_bands:
     init_us_2    :      0.06s CPU      0.07s WALL (     225 calls)
     cegterg      :     10.67s CPU     11.19s WALL (     112 calls)

     Called by sum_band:

     Called by *egterg:
     h_psi        :      9.31s CPU      9.79s WALL (     615 calls)
     g_psi        :      0.08s CPU      0.08s WALL (     502 calls)
     cdiaghg      :      0.14s CPU      0.14s WALL (     590 calls)

     Called by h_psi:
     h_psi:pot    :      9.22s CPU      9.70s WALL (     615 calls)
     h_psi:calbec :      0.12s CPU      0.16s WALL (     615 calls)
     vloc_psi     :      9.02s CPU      9.46s WALL (     615 calls)
     add_vuspsi   :      0.07s CPU      0.07s WALL (     615 calls)

     General routines
     calbec       :      0.15s CPU      0.24s WALL (     687 calls)
     fft          :      4.60s CPU      4.83s WALL (    1402 calls)
     fftw         :      9.16s CPU      9.62s WALL (    6978 calls)
     davcio       :      0.27s CPU      1.71s WALL (     681 calls)
 
     Parallel routines
     fft_scatter  :      5.23s CPU      5.86s WALL (    8380 calls)
 
     PWSCF        :    30.14s CPU        36.55s WALL

 
   This run was terminated on:   2:32:14  28Jul2018            

=------------------------------------------------------------------------------=
   JOB DONE.
=------------------------------------------------------------------------------=
