
     Program PWSCF v.6.0 (svn rev. 13079) starts on 28Jul2018 at  2:46:38 

     This program is part of the open-source Quantum ESPRESSO suite
     for quantum simulation of materials; please cite
         "P. Giannozzi et al., J. Phys.:Condens. Matter 21 395502 (2009);
          URL http://www.quantum-espresso.org", 
     in publications or presentations arising from this work. More details at
     http://www.quantum-espresso.org/quote

     Parallel version (MPI), running on    28 processors
     R & G space division:  proc/nbgrp/npool/nimage =      28
     Reading input from ../QMCmins/relax-86.in

     Current dimensions of program PWSCF are:
     Max number of different atomic species (ntypx) = 10
     Max number of k-points (npk) =  40000
     Max angular momentum in pseudopotentials (lmaxx) =  3
     Message from routine iosys:
     pot_extrapolation='second-order' not available, using 'atomic'
     Message from routine iosys:
     wfc_extrapolation='second-order' not available, using 'atomic'

     Subspace diagonalization in iterative solution of the eigenvalue problem:
     a serial algorithm will be used

 
     Parallelization info
     --------------------
     sticks:   dense  smooth     PW     G-vecs:    dense   smooth      PW
     Min         408     408    102                32936    32936    4116
     Max         409     409    103                32943    32943    4121
     Sum       11449   11449   2869               922329   922329  115313
 


     bravais-lattice index     =            1
     lattice parameter (alat)  =      20.0000  a.u.
     unit-cell volume          =    8000.0000 (a.u.)^3
     number of atoms/cell      =            3
     number of atomic types    =            2
     number of electrons       =         8.00
     number of Kohn-Sham states=            8
     kinetic-energy cutoff     =      90.0000  Ry
     charge density cutoff     =     360.0000  Ry
     convergence threshold     =      1.0E-08
     mixing beta               =       0.7000
     number of iterations used =            8  plain     mixing
     Exchange-correlation      = BLYP ( 1  3  1  3 0 0)
     nstep                     =           50


     celldm(1)=  20.000000  celldm(2)=   0.000000  celldm(3)=   0.000000
     celldm(4)=   0.000000  celldm(5)=   0.000000  celldm(6)=   0.000000

     crystal axes: (cart. coord. in units of alat)
               a(1) = (   1.000000   0.000000   0.000000 )  
               a(2) = (   0.000000   1.000000   0.000000 )  
               a(3) = (   0.000000   0.000000   1.000000 )  

     reciprocal axes: (cart. coord. in units 2 pi/alat)
               b(1) = (  1.000000  0.000000  0.000000 )  
               b(2) = (  0.000000  1.000000  0.000000 )  
               b(3) = (  0.000000  0.000000  1.000000 )  


     PseudoPot. # 1 for  H read from file:
     ../H.blyp-hgh.UPF
     MD5 check sum: c576e69559cde411e611be972c763230
     Pseudo is Norm-conserving, Zval =  1.0
     Generated in analytical, separable form
     Using radial grid of  929 points,  0 beta functions with: 

     PseudoPot. # 2 for  O read from file:
     ../O.blyp-hgh.UPF
     MD5 check sum: d0b7156309aa9befef28faac7bc56342
     Pseudo is Norm-conserving, Zval =  6.0
     Generated in analytical, separable form
     Using radial grid of 1095 points,  1 beta functions with: 
                l(1) =   0

     atomic species   valence    mass     pseudopotential
        H              1.00     1.01000      H( 1.00)
        O              6.00    16.00000      O( 1.00)

     No symmetry found



   Cartesian axes

     site n.     atom                  positions (alat units)
         1           H   tau(   1) = (   0.0277186   0.0875682   0.0244299  )
         2           H   tau(   2) = (  -0.0174749  -0.0056645  -0.0888868  )
         3           O   tau(   3) = (  -0.0006467  -0.0051702   0.0096469  )

     number of k points=     1  Marzari-Vanderbilt smearing, width (Ry)=  0.0250
                       cart. coord. in units 2pi/alat
        k(    1) = (   0.0000000   0.0000000   0.0000000), wk =   2.0000000

     Dense  grid:   922329 G-vectors     FFT dimensions: ( 125, 125, 125)

     Estimated max dynamical RAM per process >      31.67Mb

     Estimated total allocated dynamical RAM >     886.64Mb

     Initial potential from superposition of free atoms
     Check: negative starting charge=   -0.015915

     starting charge    7.99998, renormalised to    8.00000

     negative rho (up, down):  1.592E-02 0.000E+00
     Starting wfc are    6 randomized atomic wfcs +    2 random wfc

     total cpu time spent up to now is        0.8 secs

     per-process dynamical memory:    33.5 Mb

     Self-consistent Calculation

     iteration #  1     ecut=    90.00 Ry     beta=0.70
     Davidson diagonalization with overlap
     ethr =  1.00E-02,  avg # of iterations =  8.0

     negative rho (up, down):  4.610E-03 0.000E+00

     total cpu time spent up to now is        1.1 secs

     total energy              =     -34.03008927 Ry
     Harris-Foulkes estimate   =     -34.24091121 Ry
     estimated scf accuracy    <       0.32296272 Ry

     iteration #  2     ecut=    90.00 Ry     beta=0.70
     Davidson diagonalization with overlap
     ethr =  4.04E-03,  avg # of iterations =  2.0

     negative rho (up, down):  2.946E-03 0.000E+00

     total cpu time spent up to now is        1.3 secs

     total energy              =     -34.07030687 Ry
     Harris-Foulkes estimate   =     -34.27281345 Ry
     estimated scf accuracy    <       0.45777391 Ry

     iteration #  3     ecut=    90.00 Ry     beta=0.70
     Davidson diagonalization with overlap
     ethr =  4.04E-03,  avg # of iterations =  2.0

     negative rho (up, down):  1.389E-04 0.000E+00

     total cpu time spent up to now is        1.5 secs

     total energy              =     -34.16835053 Ry
     Harris-Foulkes estimate   =     -34.16879424 Ry
     estimated scf accuracy    <       0.00573149 Ry

     iteration #  4     ecut=    90.00 Ry     beta=0.70
     Davidson diagonalization with overlap
     ethr =  7.16E-05,  avg # of iterations =  6.0

     negative rho (up, down):  9.186E-06 0.000E+00

     total cpu time spent up to now is        1.7 secs

     total energy              =     -34.16986282 Ry
     Harris-Foulkes estimate   =     -34.16995573 Ry
     estimated scf accuracy    <       0.00025995 Ry

     iteration #  5     ecut=    90.00 Ry     beta=0.70
     Davidson diagonalization with overlap
     ethr =  3.25E-06,  avg # of iterations = 12.0

     negative rho (up, down):  3.697E-06 0.000E+00

     total cpu time spent up to now is        2.0 secs

     total energy              =     -34.16987849 Ry
     Harris-Foulkes estimate   =     -34.16988237 Ry
     estimated scf accuracy    <       0.00001724 Ry

     iteration #  6     ecut=    90.00 Ry     beta=0.70
     Davidson diagonalization with overlap
     ethr =  2.15E-07,  avg # of iterations =  2.0

     negative rho (up, down):  7.739E-08 0.000E+00

     total cpu time spent up to now is        2.2 secs

     total energy              =     -34.16988019 Ry
     Harris-Foulkes estimate   =     -34.16988059 Ry
     estimated scf accuracy    <       0.00000019 Ry

     iteration #  7     ecut=    90.00 Ry     beta=0.70
     Davidson diagonalization with overlap
     ethr =  2.39E-09,  avg # of iterations =  2.0

     total cpu time spent up to now is        2.4 secs

     total energy              =     -34.16987981 Ry
     Harris-Foulkes estimate   =     -34.16988025 Ry
     estimated scf accuracy    <       0.00000002 Ry

     iteration #  8     ecut=    90.00 Ry     beta=0.70
     Davidson diagonalization with overlap
     ethr =  2.38E-10,  avg # of iterations =  2.0

     total cpu time spent up to now is        2.6 secs

     End of self-consistent calculation

          k = 0.0000 0.0000 0.0000 (115313 PWs)   bands (ev):

   -24.4621 -12.0907  -9.1644  -6.9705  -1.1782   0.3592   0.5528   1.1566

     the Fermi energy is    -4.9080 ev

!    total energy              =     -34.16987974 Ry
     Harris-Foulkes estimate   =     -34.16987981 Ry
     estimated scf accuracy    <          2.2E-09 Ry

     The total energy is the sum of the following terms:

     one-electron contribution =     -62.19774749 Ry
     hartree contribution      =      32.55052671 Ry
     xc contribution           =      -8.24289833 Ry
     ewald contribution        =       3.72023937 Ry
     smearing contrib. (-TS)   =       0.00000000 Ry

     convergence has been achieved in   8 iterations

     Forces acting on atoms (Ry/au):

     atom    1 type  1   force =    -0.02565990   -0.08191711   -0.01527392
     atom    2 type  1   force =     0.01861103    0.00199521    0.10796571
     atom    3 type  2   force =     0.00704887    0.07992190   -0.09269179

     Total force =     0.186113     Total SCF correction =     0.000160

     BFGS Geometry Optimization

     number of scf cycles    =   1
     number of bfgs steps    =   0

     energy   new            =     -34.1698797411 Ry

     new trust radius        =       0.1225926778 bohr
     new conv_thr            =       0.0000000100 Ry


ATOMIC_POSITIONS (angstrom)
H        0.279782365   0.883433335   0.250472390
H       -0.175097467  -0.058895183  -0.883604007
O       -0.003113897  -0.012426152   0.053047617



     Writing output data file pwscf.save
     Check: negative starting charge=   -0.015915
     NEW-OLD atomic charge density approx. for the potential
     Check: negative starting charge=   -0.015979

     negative rho (up, down):  2.147E-02 0.000E+00

     total cpu time spent up to now is        3.2 secs

     per-process dynamical memory:    45.8 Mb

     Self-consistent Calculation

     iteration #  1     ecut=    90.00 Ry     beta=0.70
     Davidson diagonalization with overlap
     c_bands:  1 eigenvalues not converged
     ethr =  1.00E-06,  avg # of iterations = 20.0

     negative rho (up, down):  2.928E-03 0.000E+00

     total cpu time spent up to now is        3.6 secs

     total energy              =      57.28543763 Ry
     Harris-Foulkes estimate   =  -10199.79940199 Ry
     estimated scf accuracy    <       7.01511199 Ry

     iteration #  2     ecut=    90.00 Ry     beta=0.70
     Davidson diagonalization with overlap
     ethr =  1.00E-02,  avg # of iterations =  3.0

     total cpu time spent up to now is        3.8 secs

     total energy              =     -32.19429524 Ry
     Harris-Foulkes estimate   =     -38.14944597 Ry
     estimated scf accuracy    <      13.06031189 Ry

     iteration #  3     ecut=    90.00 Ry     beta=0.70
     Davidson diagonalization with overlap
     ethr =  1.00E-02,  avg # of iterations =  3.0

     total cpu time spent up to now is        4.0 secs

     total energy              =     -34.48000108 Ry
     Harris-Foulkes estimate   =     -35.08500727 Ry
     estimated scf accuracy    <       1.83688202 Ry

     iteration #  4     ecut=    90.00 Ry     beta=0.70
     Davidson diagonalization with overlap
     ethr =  1.00E-02,  avg # of iterations =  1.0

     total cpu time spent up to now is        4.2 secs

     total energy              =     -34.42073447 Ry
     Harris-Foulkes estimate   =     -34.51552702 Ry
     estimated scf accuracy    <       0.90362417 Ry

     iteration #  5     ecut=    90.00 Ry     beta=0.70
     Davidson diagonalization with overlap
     ethr =  1.00E-02,  avg # of iterations =  1.0

     total cpu time spent up to now is        4.4 secs

     total energy              =     -34.18819812 Ry
     Harris-Foulkes estimate   =     -34.42168309 Ry
     estimated scf accuracy    <       0.74912606 Ry

     iteration #  6     ecut=    90.00 Ry     beta=0.70
     Davidson diagonalization with overlap
     ethr =  9.36E-03,  avg # of iterations =  1.0

     negative rho (up, down):  1.673E-08 0.000E+00

     total cpu time spent up to now is        4.6 secs

     total energy              =     -34.15472425 Ry
     Harris-Foulkes estimate   =     -34.19168790 Ry
     estimated scf accuracy    <       0.30140155 Ry

     iteration #  7     ecut=    90.00 Ry     beta=0.70
     Davidson diagonalization with overlap
     ethr =  3.77E-03,  avg # of iterations =  1.0

     total cpu time spent up to now is        4.8 secs

     total energy              =     -34.15200998 Ry
     Harris-Foulkes estimate   =     -34.15616577 Ry
     estimated scf accuracy    <       0.19701947 Ry

     iteration #  8     ecut=    90.00 Ry     beta=0.70
     Davidson diagonalization with overlap
     ethr =  2.46E-03,  avg # of iterations =  1.0

     total cpu time spent up to now is        5.1 secs

     total energy              =     -34.13838786 Ry
     Harris-Foulkes estimate   =     -34.15220514 Ry
     estimated scf accuracy    <       0.17533597 Ry

     iteration #  9     ecut=    90.00 Ry     beta=0.70
     Davidson diagonalization with overlap
     ethr =  2.19E-03,  avg # of iterations =  1.0

     total cpu time spent up to now is        5.3 secs

     total energy              =     -34.15477997 Ry
     Harris-Foulkes estimate   =     -34.14272668 Ry
     estimated scf accuracy    <       0.03789525 Ry

     iteration # 10     ecut=    90.00 Ry     beta=0.70
     Davidson diagonalization with overlap
     ethr =  4.74E-04,  avg # of iterations =  1.0

     total cpu time spent up to now is        5.5 secs

     total energy              =     -34.18005417 Ry
     Harris-Foulkes estimate   =     -34.15990536 Ry
     estimated scf accuracy    <       0.01448225 Ry

     iteration # 11     ecut=    90.00 Ry     beta=0.70
     Davidson diagonalization with overlap
     ethr =  1.81E-04,  avg # of iterations =  1.0

     negative rho (up, down):  6.133E-04 0.000E+00

     total cpu time spent up to now is        5.7 secs

     total energy              =     -34.18080784 Ry
     Harris-Foulkes estimate   =     -34.18102475 Ry
     estimated scf accuracy    <       0.00103345 Ry

     iteration # 12     ecut=    90.00 Ry     beta=0.70
     Davidson diagonalization with overlap
     ethr =  1.29E-05,  avg # of iterations =  6.0

     negative rho (up, down):  9.254E-05 0.000E+00

     total cpu time spent up to now is        6.0 secs

     total energy              =     -34.18101922 Ry
     Harris-Foulkes estimate   =     -34.18105602 Ry
     estimated scf accuracy    <       0.00008465 Ry

     iteration # 13     ecut=    90.00 Ry     beta=0.70
     Davidson diagonalization with overlap
     ethr =  1.06E-06,  avg # of iterations =  9.0

     negative rho (up, down):  6.425E-08 0.000E+00

     total cpu time spent up to now is        6.3 secs

     total energy              =     -34.18104348 Ry
     Harris-Foulkes estimate   =     -34.18104795 Ry
     estimated scf accuracy    <       0.00003343 Ry

     iteration # 14     ecut=    90.00 Ry     beta=0.70
     Davidson diagonalization with overlap
     ethr =  4.18E-07,  avg # of iterations =  1.0

     total cpu time spent up to now is        6.5 secs

     total energy              =     -34.18104424 Ry
     Harris-Foulkes estimate   =     -34.18104439 Ry
     estimated scf accuracy    <       0.00001464 Ry

     iteration # 15     ecut=    90.00 Ry     beta=0.70
     Davidson diagonalization with overlap
     ethr =  1.83E-07,  avg # of iterations =  1.0

     total cpu time spent up to now is        6.7 secs

     total energy              =     -34.18104440 Ry
     Harris-Foulkes estimate   =     -34.18104480 Ry
     estimated scf accuracy    <       0.00000559 Ry

     iteration # 16     ecut=    90.00 Ry     beta=0.70
     Davidson diagonalization with overlap
     ethr =  6.99E-08,  avg # of iterations =  1.0

     negative rho (up, down):  7.553E-08 0.000E+00

     total cpu time spent up to now is        6.9 secs

     total energy              =     -34.18104477 Ry
     Harris-Foulkes estimate   =     -34.18104463 Ry
     estimated scf accuracy    <       0.00000237 Ry

     iteration # 17     ecut=    90.00 Ry     beta=0.70
     Davidson diagonalization with overlap
     ethr =  2.96E-08,  avg # of iterations =  1.0

     total cpu time spent up to now is        7.1 secs

     total energy              =     -34.18104482 Ry
     Harris-Foulkes estimate   =     -34.18104493 Ry
     estimated scf accuracy    <       0.00000069 Ry

     iteration # 18     ecut=    90.00 Ry     beta=0.70
     Davidson diagonalization with overlap
     ethr =  8.59E-09,  avg # of iterations =  2.0

     total cpu time spent up to now is        7.3 secs

     total energy              =     -34.18104491 Ry
     Harris-Foulkes estimate   =     -34.18104492 Ry
     estimated scf accuracy    <       0.00000005 Ry

     iteration # 19     ecut=    90.00 Ry     beta=0.70
     Davidson diagonalization with overlap
     ethr =  6.59E-10,  avg # of iterations =  2.0

     total cpu time spent up to now is        7.5 secs

     End of self-consistent calculation

          k = 0.0000 0.0000 0.0000 (115313 PWs)   bands (ev):

   -25.2945 -13.1692  -9.0160  -7.1078  -0.8695   0.4534   0.7799   1.1798

     the Fermi energy is    -5.0986 ev

!    total energy              =     -34.18104487 Ry
     Harris-Foulkes estimate   =     -34.18104492 Ry
     estimated scf accuracy    <          3.9E-09 Ry

     The total energy is the sum of the following terms:

     one-electron contribution =     -64.20624853 Ry
     hartree contribution      =      33.51763247 Ry
     xc contribution           =      -8.39906916 Ry
     ewald contribution        =       4.90664036 Ry
     smearing contrib. (-TS)   =       0.00000000 Ry

     convergence has been achieved in  19 iterations

     Forces acting on atoms (Ry/au):

     atom    1 type  1   force =     0.01048617    0.03759567   -0.00079869
     atom    2 type  1   force =    -0.00703945    0.00615685   -0.05248644
     atom    3 type  2   force =    -0.00344672   -0.04375252    0.05328513

     Total force =     0.095560     Total SCF correction =     0.000128

     number of scf cycles    =   2
     number of bfgs steps    =   1

     energy   old            =     -34.1698797411 Ry
     energy   new            =     -34.1810448679 Ry

     CASE: energy  _new < energy  _old

     new trust radius        =       0.0454672842 bohr
     new conv_thr            =       0.0000000053 Ry


ATOMIC_POSITIONS (angstrom)
H        0.283427365   0.896515653   0.250170788
H       -0.177542458  -0.056731309  -0.901876830
O       -0.004313908  -0.027672344   0.071622043



     Writing output data file pwscf.save
     Check: negative starting charge=   -0.015979
     NEW-OLD atomic charge density approx. for the potential
     Check: negative starting charge=   -0.015980

     negative rho (up, down):  8.097E-03 0.000E+00

     total cpu time spent up to now is        8.1 secs

     per-process dynamical memory:    45.8 Mb

     Self-consistent Calculation

     iteration #  1     ecut=    90.00 Ry     beta=0.70
     Davidson diagonalization with overlap
     ethr =  1.00E-06,  avg # of iterations = 19.0

     negative rho (up, down):  2.101E-03 0.000E+00

     total cpu time spent up to now is        8.7 secs

     total energy              =     -34.17740026 Ry
     Harris-Foulkes estimate   =     -34.17022172 Ry
     estimated scf accuracy    <       0.00239992 Ry

     iteration #  2     ecut=    90.00 Ry     beta=0.70
     Davidson diagonalization with overlap
     ethr =  3.00E-05,  avg # of iterations = 11.0

     negative rho (up, down):  1.326E-03 0.000E+00

     total cpu time spent up to now is        9.0 secs

     total energy              =     -34.18269988 Ry
     Harris-Foulkes estimate   =     -34.18322968 Ry
     estimated scf accuracy    <       0.00255236 Ry

     iteration #  3     ecut=    90.00 Ry     beta=0.70
     Davidson diagonalization with overlap
     ethr =  3.00E-05,  avg # of iterations =  3.0

     negative rho (up, down):  2.796E-04 0.000E+00

     total cpu time spent up to now is        9.2 secs

     total energy              =     -34.17930667 Ry
     Harris-Foulkes estimate   =     -34.17915313 Ry
     estimated scf accuracy    <       0.00001570 Ry

     iteration #  4     ecut=    90.00 Ry     beta=0.70
     Davidson diagonalization with overlap
     ethr =  1.96E-07,  avg # of iterations = 15.0

     negative rho (up, down):  1.746E-05 0.000E+00

     total cpu time spent up to now is        9.5 secs

     total energy              =     -34.18339571 Ry
     Harris-Foulkes estimate   =     -34.18339097 Ry
     estimated scf accuracy    <       0.00000051 Ry

     iteration #  5     ecut=    90.00 Ry     beta=0.70
     Davidson diagonalization with overlap
     ethr =  6.34E-09,  avg # of iterations =  3.0

     total cpu time spent up to now is        9.7 secs

     total energy              =     -34.18339617 Ry
     Harris-Foulkes estimate   =     -34.18339591 Ry
     estimated scf accuracy    <       0.00000002 Ry

     iteration #  6     ecut=    90.00 Ry     beta=0.70
     Davidson diagonalization with overlap
     ethr =  2.22E-10,  avg # of iterations =  2.0

     total cpu time spent up to now is        9.8 secs

     End of self-consistent calculation

          k = 0.0000 0.0000 0.0000 (115313 PWs)   bands (ev):

   -25.0119 -12.7644  -9.0947  -7.0607  -0.9605   0.4216   0.7225   1.1740

     the Fermi energy is    -5.0323 ev

!    total energy              =     -34.18339627 Ry
     Harris-Foulkes estimate   =     -34.18339619 Ry
     estimated scf accuracy    <          8.3E-10 Ry

     The total energy is the sum of the following terms:

     one-electron contribution =     -63.52026347 Ry
     hartree contribution      =      33.18720221 Ry
     xc contribution           =      -8.34482782 Ry
     ewald contribution        =       4.49449281 Ry
     smearing contrib. (-TS)   =       0.00000000 Ry

     convergence has been achieved in   6 iterations

     Forces acting on atoms (Ry/au):

     atom    1 type  1   force =    -0.00240841   -0.00656283   -0.00582806
     atom    2 type  1   force =     0.00440645    0.00445224    0.01630903
     atom    3 type  2   force =    -0.00199804    0.00211059   -0.01048097

     Total force =     0.022502     Total SCF correction =     0.000100

     number of scf cycles    =   3
     number of bfgs steps    =   2

     energy   old            =     -34.1810448679 Ry
     energy   new            =     -34.1833962720 Ry

     CASE: energy  _new < energy  _old

     new trust radius        =       0.0113894976 bohr
     new conv_thr            =       0.0000000016 Ry


ATOMIC_POSITIONS (angstrom)
H        0.282732947   0.894953623   0.247543224
H       -0.175838456  -0.054523084  -0.896534022
O       -0.005323491  -0.028318539   0.068906797



     Writing output data file pwscf.save
     Check: negative starting charge=   -0.015980
     NEW-OLD atomic charge density approx. for the potential
     Check: negative starting charge=   -0.015981

     negative rho (up, down):  8.373E-04 0.000E+00

     total cpu time spent up to now is       10.4 secs

     per-process dynamical memory:    45.8 Mb

     Self-consistent Calculation

     iteration #  1     ecut=    90.00 Ry     beta=0.70
     Davidson diagonalization with overlap
     ethr =  1.00E-06,  avg # of iterations =  5.0

     negative rho (up, down):  2.044E-04 0.000E+00

     total cpu time spent up to now is       10.6 secs

     total energy              =     -34.18354668 Ry
     Harris-Foulkes estimate   =     -34.18356044 Ry
     estimated scf accuracy    <       0.00005465 Ry

     iteration #  2     ecut=    90.00 Ry     beta=0.70
     Davidson diagonalization with overlap
     ethr =  6.83E-07,  avg # of iterations =  3.0

     negative rho (up, down):  1.147E-04 0.000E+00

     total cpu time spent up to now is       10.8 secs

     total energy              =     -34.18355941 Ry
     Harris-Foulkes estimate   =     -34.18357973 Ry
     estimated scf accuracy    <       0.00004380 Ry

     iteration #  3     ecut=    90.00 Ry     beta=0.70
     Davidson diagonalization with overlap
     ethr =  5.47E-07,  avg # of iterations =  2.0

     negative rho (up, down):  1.893E-05 0.000E+00

     total cpu time spent up to now is       11.0 secs

     total energy              =     -34.18356938 Ry
     Harris-Foulkes estimate   =     -34.18356967 Ry
     estimated scf accuracy    <       0.00000092 Ry

     iteration #  4     ecut=    90.00 Ry     beta=0.70
     Davidson diagonalization with overlap
     ethr =  1.16E-08,  avg # of iterations =  2.0

     negative rho (up, down):  4.012E-07 0.000E+00

     total cpu time spent up to now is       11.2 secs

     total energy              =     -34.18356982 Ry
     Harris-Foulkes estimate   =     -34.18356965 Ry
     estimated scf accuracy    <       0.00000002 Ry

     iteration #  5     ecut=    90.00 Ry     beta=0.70
     Davidson diagonalization with overlap
     ethr =  2.40E-10,  avg # of iterations =  3.0

     total cpu time spent up to now is       11.4 secs

     End of self-consistent calculation

          k = 0.0000 0.0000 0.0000 (115313 PWs)   bands (ev):

   -25.0632 -12.7997  -9.1091  -7.0701  -0.9466   0.4263   0.7339   1.1753

     the Fermi energy is    -5.0442 ev

!    total energy              =     -34.18356977 Ry
     Harris-Foulkes estimate   =     -34.18356983 Ry
     estimated scf accuracy    <          1.2E-09 Ry

     The total energy is the sum of the following terms:

     one-electron contribution =     -63.62658502 Ry
     hartree contribution      =      33.23749686 Ry
     xc contribution           =      -8.35303920 Ry
     ewald contribution        =       4.55855759 Ry
     smearing contrib. (-TS)   =       0.00000000 Ry

     convergence has been achieved in   5 iterations

     Forces acting on atoms (Ry/au):

     atom    1 type  1   force =    -0.00201492   -0.00533378   -0.00476114
     atom    2 type  1   force =     0.00128732    0.00326182    0.00066133
     atom    3 type  2   force =     0.00072760    0.00207196    0.00409981

     Total force =     0.009463     Total SCF correction =     0.000439

     number of scf cycles    =   4
     number of bfgs steps    =   3

     energy   old            =     -34.1833962720 Ry
     energy   new            =     -34.1835697678 Ry

     CASE: energy  _new < energy  _old

     new trust radius        =       0.0104135403 bohr
     new conv_thr            =       0.0000000002 Ry


ATOMIC_POSITIONS (angstrom)
H        0.281296380   0.891301552   0.243674703
H       -0.174477070  -0.051699420  -0.894491070
O       -0.005248310  -0.027490132   0.070732366



     Writing output data file pwscf.save
     Check: negative starting charge=   -0.015981
     NEW-OLD atomic charge density approx. for the potential
     Check: negative starting charge=   -0.015986

     negative rho (up, down):  5.383E-04 0.000E+00

     total cpu time spent up to now is       11.9 secs

     per-process dynamical memory:    45.8 Mb

     Self-consistent Calculation

     iteration #  1     ecut=    90.00 Ry     beta=0.70
     Davidson diagonalization with overlap
     ethr =  1.00E-06,  avg # of iterations =  4.0

     negative rho (up, down):  1.265E-04 0.000E+00

     total cpu time spent up to now is       12.3 secs

     total energy              =     -34.18360323 Ry
     Harris-Foulkes estimate   =     -34.18361170 Ry
     estimated scf accuracy    <       0.00002473 Ry

     iteration #  2     ecut=    90.00 Ry     beta=0.70
     Davidson diagonalization with overlap
     ethr =  3.09E-07,  avg # of iterations =  3.0

     negative rho (up, down):  6.569E-05 0.000E+00

     total cpu time spent up to now is       12.5 secs

     total energy              =     -34.18360926 Ry
     Harris-Foulkes estimate   =     -34.18361604 Ry
     estimated scf accuracy    <       0.00001607 Ry

     iteration #  3     ecut=    90.00 Ry     beta=0.70
     Davidson diagonalization with overlap
     ethr =  2.01E-07,  avg # of iterations =  2.0

     negative rho (up, down):  7.675E-06 0.000E+00

     total cpu time spent up to now is       12.7 secs

     total energy              =     -34.18361431 Ry
     Harris-Foulkes estimate   =     -34.18361341 Ry
     estimated scf accuracy    <       0.00000071 Ry

     iteration #  4     ecut=    90.00 Ry     beta=0.70
     Davidson diagonalization with overlap
     ethr =  8.82E-09,  avg # of iterations =  2.0

     negative rho (up, down):  6.526E-08 0.000E+00

     total cpu time spent up to now is       12.9 secs

     total energy              =     -34.18361493 Ry
     Harris-Foulkes estimate   =     -34.18361448 Ry
     estimated scf accuracy    <       0.00000001 Ry

     iteration #  5     ecut=    90.00 Ry     beta=0.70
     Davidson diagonalization with overlap
     ethr =  1.55E-10,  avg # of iterations =  2.0

     total cpu time spent up to now is       13.1 secs

     total energy              =     -34.18361503 Ry
     Harris-Foulkes estimate   =     -34.18361494 Ry
     estimated scf accuracy    <          6.9E-10 Ry

     iteration #  6     ecut=    90.00 Ry     beta=0.70
     Davidson diagonalization with overlap
     ethr =  8.60E-12,  avg # of iterations =  2.0

     total cpu time spent up to now is       13.2 secs

     End of self-consistent calculation

          k = 0.0000 0.0000 0.0000 (115313 PWs)   bands (ev):

   -25.1035 -12.8089  -9.1342  -7.0782  -0.9383   0.4285   0.7416   1.1759

     the Fermi energy is    -5.0538 ev

!    total energy              =     -34.18361505 Ry
     Harris-Foulkes estimate   =     -34.18361503 Ry
     estimated scf accuracy    <          8.1E-11 Ry

     The total energy is the sum of the following terms:

     one-electron contribution =     -63.69972113 Ry
     hartree contribution      =      33.27168925 Ry
     xc contribution           =      -8.35863724 Ry
     ewald contribution        =       4.60305408 Ry
     smearing contrib. (-TS)   =       0.00000000 Ry

     convergence has been achieved in   6 iterations

     Forces acting on atoms (Ry/au):

     atom    1 type  1   force =     0.00147210    0.00476881   -0.00115347
     atom    2 type  1   force =     0.00072148    0.00164033   -0.00031712
     atom    3 type  2   force =    -0.00219359   -0.00640913    0.00147060

     Total force =     0.008809     Total SCF correction =     0.000035

     number of scf cycles    =   5
     number of bfgs steps    =   4

     energy   old            =     -34.1835697678 Ry
     energy   new            =     -34.1836150465 Ry

     CASE: energy  _new < energy  _old

     new trust radius        =       0.0048530064 bohr
     new conv_thr            =            1.0E-10 Ry


ATOMIC_POSITIONS (angstrom)
H        0.281346697   0.891802013   0.241776933
H       -0.173630994  -0.050006325  -0.893583214
O       -0.006144703  -0.029683688   0.071722280



     Writing output data file pwscf.save
     Check: negative starting charge=   -0.015986
     NEW-OLD atomic charge density approx. for the potential
     Check: negative starting charge=   -0.015991

     negative rho (up, down):  7.052E-04 0.000E+00

     total cpu time spent up to now is       13.9 secs

     per-process dynamical memory:    45.8 Mb

     Self-consistent Calculation

     iteration #  1     ecut=    90.00 Ry     beta=0.70
     Davidson diagonalization with overlap
     ethr =  1.00E-06,  avg # of iterations =  4.0

     Threshold (ethr) on eigenvalues was too large:
     Diagonalizing with lowered threshold

     Davidson diagonalization with overlap
     ethr =  8.93E-08,  avg # of iterations =  1.0

     negative rho (up, down):  1.701E-04 0.000E+00

     total cpu time spent up to now is       14.3 secs

     total energy              =     -34.18363897 Ry
     Harris-Foulkes estimate   =     -34.18363448 Ry
     estimated scf accuracy    <       0.00000676 Ry

     iteration #  2     ecut=    90.00 Ry     beta=0.70
     Davidson diagonalization with overlap
     ethr =  8.45E-08,  avg # of iterations =  3.0

     negative rho (up, down):  9.146E-05 0.000E+00

     total cpu time spent up to now is       14.5 secs

     total energy              =     -34.18364133 Ry
     Harris-Foulkes estimate   =     -34.18364276 Ry
     estimated scf accuracy    <       0.00000479 Ry

     iteration #  3     ecut=    90.00 Ry     beta=0.70
     Davidson diagonalization with overlap
     ethr =  5.98E-08,  avg # of iterations =  2.0

     negative rho (up, down):  6.441E-06 0.000E+00

     total cpu time spent up to now is       14.7 secs

     total energy              =     -34.18364499 Ry
     Harris-Foulkes estimate   =     -34.18364254 Ry
     estimated scf accuracy    <       0.00000019 Ry

     iteration #  4     ecut=    90.00 Ry     beta=0.70
     Davidson diagonalization with overlap
     ethr =  2.40E-09,  avg # of iterations =  2.0

     negative rho (up, down):  6.289E-08 0.000E+00

     total cpu time spent up to now is       14.9 secs

     total energy              =     -34.18364539 Ry
     Harris-Foulkes estimate   =     -34.18364507 Ry
     estimated scf accuracy    <          4.2E-09 Ry

     iteration #  5     ecut=    90.00 Ry     beta=0.70
     Davidson diagonalization with overlap
     ethr =  5.21E-11,  avg # of iterations =  3.0

     total cpu time spent up to now is       15.1 secs

     total energy              =     -34.18364544 Ry
     Harris-Foulkes estimate   =     -34.18364540 Ry
     estimated scf accuracy    <          2.5E-10 Ry

     iteration #  6     ecut=    90.00 Ry     beta=0.70
     Davidson diagonalization with overlap
     ethr =  3.08E-12,  avg # of iterations =  2.0

     total cpu time spent up to now is       15.2 secs

     End of self-consistent calculation

          k = 0.0000 0.0000 0.0000 (115313 PWs)   bands (ev):

   -25.1004 -12.7792  -9.1543  -7.0785  -0.9420   0.4271   0.7404   1.1759

     the Fermi energy is    -5.0530 ev

!    total energy              =     -34.18364547 Ry
     Harris-Foulkes estimate   =     -34.18364544 Ry
     estimated scf accuracy    <          1.2E-11 Ry

     The total energy is the sum of the following terms:

     one-electron contribution =     -63.67915986 Ry
     hartree contribution      =      33.26125345 Ry
     xc contribution           =      -8.35692763 Ry
     ewald contribution        =       4.59118857 Ry
     smearing contrib. (-TS)   =       0.00000000 Ry

     convergence has been achieved in   6 iterations

     Forces acting on atoms (Ry/au):

     atom    1 type  1   force =     0.00037799    0.00082548   -0.00062840
     atom    2 type  1   force =     0.00018362    0.00056093   -0.00119920
     atom    3 type  2   force =    -0.00056161   -0.00138641    0.00182760

     Total force =     0.002930     Total SCF correction =     0.000018

     number of scf cycles    =   6
     number of bfgs steps    =   5

     energy   old            =     -34.1836150465 Ry
     energy   new            =     -34.1836454712 Ry

     CASE: energy  _new < energy  _old

     new trust radius        =       0.0027615729 bohr
     new conv_thr            =            1.0E-10 Ry


ATOMIC_POSITIONS (angstrom)
H        0.281385051   0.891778816   0.240629061
H       -0.173130280  -0.049079845  -0.893449769
O       -0.006683771  -0.030586971   0.072736708



     Writing output data file pwscf.save
     Check: negative starting charge=   -0.015991
     NEW-OLD atomic charge density approx. for the potential
     Check: negative starting charge=   -0.015994

     negative rho (up, down):  3.700E-04 0.000E+00

     total cpu time spent up to now is       15.8 secs

     per-process dynamical memory:    45.8 Mb

     Self-consistent Calculation

     iteration #  1     ecut=    90.00 Ry     beta=0.70
     Davidson diagonalization with overlap
     ethr =  1.00E-06,  avg # of iterations =  3.0

     Threshold (ethr) on eigenvalues was too large:
     Diagonalizing with lowered threshold

     Davidson diagonalization with overlap
     ethr =  3.40E-08,  avg # of iterations =  2.0

     negative rho (up, down):  8.347E-05 0.000E+00

     total cpu time spent up to now is       16.1 secs

     total energy              =     -34.18364676 Ry
     Harris-Foulkes estimate   =     -34.18364551 Ry
     estimated scf accuracy    <       0.00000219 Ry

     iteration #  2     ecut=    90.00 Ry     beta=0.70
     Davidson diagonalization with overlap
     ethr =  2.74E-08,  avg # of iterations =  3.0

     negative rho (up, down):  4.419E-05 0.000E+00

     total cpu time spent up to now is       16.3 secs

     total energy              =     -34.18364840 Ry
     Harris-Foulkes estimate   =     -34.18364812 Ry
     estimated scf accuracy    <       0.00000181 Ry

     iteration #  3     ecut=    90.00 Ry     beta=0.70
     Davidson diagonalization with overlap
     ethr =  2.26E-08,  avg # of iterations =  2.0

     negative rho (up, down):  1.084E-06 0.000E+00

     total cpu time spent up to now is       16.5 secs

     total energy              =     -34.18365002 Ry
     Harris-Foulkes estimate   =     -34.18364882 Ry
     estimated scf accuracy    <       0.00000005 Ry

     iteration #  4     ecut=    90.00 Ry     beta=0.70
     Davidson diagonalization with overlap
     ethr =  6.03E-10,  avg # of iterations =  2.0

     total cpu time spent up to now is       16.6 secs

     total energy              =     -34.18365021 Ry
     Harris-Foulkes estimate   =     -34.18365005 Ry
     estimated scf accuracy    <          1.3E-09 Ry

     iteration #  5     ecut=    90.00 Ry     beta=0.70
     Davidson diagonalization with overlap
     ethr =  1.65E-11,  avg # of iterations =  3.0

     total cpu time spent up to now is       16.8 secs

     End of self-consistent calculation

          k = 0.0000 0.0000 0.0000 (115313 PWs)   bands (ev):

   -25.0979 -12.7614  -9.1658  -7.0785  -0.9444   0.4263   0.7396   1.1759

     the Fermi energy is    -5.0524 ev

!    total energy              =     -34.18365026 Ry
     Harris-Foulkes estimate   =     -34.18365021 Ry
     estimated scf accuracy    <          8.5E-11 Ry

     The total energy is the sum of the following terms:

     one-electron contribution =     -63.66584687 Ry
     hartree contribution      =      33.25452619 Ry
     xc contribution           =      -8.35582501 Ry
     ewald contribution        =       4.58349543 Ry
     smearing contrib. (-TS)   =       0.00000000 Ry

     convergence has been achieved in   5 iterations

     Forces acting on atoms (Ry/au):

     atom    1 type  1   force =     0.00014296   -0.00018118   -0.00007885
     atom    2 type  1   force =     0.00013562   -0.00006769   -0.00013215
     atom    3 type  2   force =    -0.00027858    0.00024887    0.00021100

     Total force =     0.000533     Total SCF correction =     0.000125
     SCF correction compared to forces is large: reduce conv_thr to get better values

     bfgs converged in   7 scf cycles and   6 bfgs steps
     (criteria: energy <  1.0E-04, force <  1.0E-03)

     End of BFGS Geometry Optimization

     Final energy   =     -34.1836502584 Ry
Begin final coordinates

ATOMIC_POSITIONS (angstrom)
H        0.281385051   0.891778816   0.240629061
H       -0.173130280  -0.049079845  -0.893449769
O       -0.006683771  -0.030586971   0.072736708
End final coordinates



     Writing output data file pwscf.save
 
     init_run     :      0.52s CPU      0.55s WALL (       1 calls)
     electrons    :     11.36s CPU     13.30s WALL (       7 calls)
     update_pot   :      1.46s CPU      1.71s WALL (       6 calls)
     forces       :      0.65s CPU      0.66s WALL (       7 calls)

     Called by init_run:
     wfcinit      :      0.03s CPU      0.04s WALL (       1 calls)
     potinit      :      0.11s CPU      0.12s WALL (       1 calls)

     Called by electrons:
     c_bands      :      4.77s CPU      4.94s WALL (      57 calls)
     sum_band     :      1.17s CPU      1.20s WALL (      57 calls)
     v_of_rho     :      3.14s CPU      3.20s WALL (      62 calls)
     mix_rho      :      1.57s CPU      2.68s WALL (      57 calls)

     Called by c_bands:
     init_us_2    :      0.03s CPU      0.04s WALL (     115 calls)
     cegterg      :      4.74s CPU      4.88s WALL (      57 calls)

     Called by sum_band:

     Called by *egterg:
     h_psi        :      4.16s CPU      4.29s WALL (     266 calls)
     g_psi        :      0.04s CPU      0.04s WALL (     208 calls)
     cdiaghg      :      0.06s CPU      0.06s WALL (     257 calls)

     Called by h_psi:
     h_psi:pot    :      4.12s CPU      4.25s WALL (     266 calls)
     h_psi:calbec :      0.05s CPU      0.05s WALL (     266 calls)
     vloc_psi     :      4.03s CPU      4.16s WALL (     266 calls)
     add_vuspsi   :      0.03s CPU      0.03s WALL (     266 calls)

     General routines
     calbec       :      0.05s CPU      0.06s WALL (     294 calls)
     fft          :      2.21s CPU      2.27s WALL (     699 calls)
     fftw         :      4.14s CPU      4.28s WALL (    3238 calls)
     davcio       :      0.20s CPU      1.13s WALL (     528 calls)
 
     Parallel routines
     fft_scatter  :      2.32s CPU      2.50s WALL (    3937 calls)
 
     PWSCF        :    14.51s CPU        17.24s WALL

 
   This run was terminated on:   2:46:55  28Jul2018            

=------------------------------------------------------------------------------=
   JOB DONE.
=------------------------------------------------------------------------------=
