
     Program PWSCF v.6.0 (svn rev. 13079) starts on 28Jul2018 at  2:29:25 

     This program is part of the open-source Quantum ESPRESSO suite
     for quantum simulation of materials; please cite
         "P. Giannozzi et al., J. Phys.:Condens. Matter 21 395502 (2009);
          URL http://www.quantum-espresso.org", 
     in publications or presentations arising from this work. More details at
     http://www.quantum-espresso.org/quote

     Parallel version (MPI), running on    28 processors
     R & G space division:  proc/nbgrp/npool/nimage =      28
     Reading input from ../QMCmins/relax-42.in

     Current dimensions of program PWSCF are:
     Max number of different atomic species (ntypx) = 10
     Max number of k-points (npk) =  40000
     Max angular momentum in pseudopotentials (lmaxx) =  3
     Message from routine iosys:
     pot_extrapolation='second-order' not available, using 'atomic'
     Message from routine iosys:
     wfc_extrapolation='second-order' not available, using 'atomic'

     Subspace diagonalization in iterative solution of the eigenvalue problem:
     a serial algorithm will be used

 
     Parallelization info
     --------------------
     sticks:   dense  smooth     PW     G-vecs:    dense   smooth      PW
     Min         408     408    102                32936    32936    4116
     Max         409     409    103                32943    32943    4121
     Sum       11449   11449   2869               922329   922329  115313
 


     bravais-lattice index     =            1
     lattice parameter (alat)  =      20.0000  a.u.
     unit-cell volume          =    8000.0000 (a.u.)^3
     number of atoms/cell      =            3
     number of atomic types    =            2
     number of electrons       =         8.00
     number of Kohn-Sham states=            8
     kinetic-energy cutoff     =      90.0000  Ry
     charge density cutoff     =     360.0000  Ry
     convergence threshold     =      1.0E-08
     mixing beta               =       0.7000
     number of iterations used =            8  plain     mixing
     Exchange-correlation      = BLYP ( 1  3  1  3 0 0)
     nstep                     =           50


     celldm(1)=  20.000000  celldm(2)=   0.000000  celldm(3)=   0.000000
     celldm(4)=   0.000000  celldm(5)=   0.000000  celldm(6)=   0.000000

     crystal axes: (cart. coord. in units of alat)
               a(1) = (   1.000000   0.000000   0.000000 )  
               a(2) = (   0.000000   1.000000   0.000000 )  
               a(3) = (   0.000000   0.000000   1.000000 )  

     reciprocal axes: (cart. coord. in units 2 pi/alat)
               b(1) = (  1.000000  0.000000  0.000000 )  
               b(2) = (  0.000000  1.000000  0.000000 )  
               b(3) = (  0.000000  0.000000  1.000000 )  


     PseudoPot. # 1 for  H read from file:
     ../H.blyp-hgh.UPF
     MD5 check sum: c576e69559cde411e611be972c763230
     Pseudo is Norm-conserving, Zval =  1.0
     Generated in analytical, separable form
     Using radial grid of  929 points,  0 beta functions with: 

     PseudoPot. # 2 for  O read from file:
     ../O.blyp-hgh.UPF
     MD5 check sum: d0b7156309aa9befef28faac7bc56342
     Pseudo is Norm-conserving, Zval =  6.0
     Generated in analytical, separable form
     Using radial grid of 1095 points,  1 beta functions with: 
                l(1) =   0

     atomic species   valence    mass     pseudopotential
        H              1.00     1.01000      H( 1.00)
        O              6.00    16.00000      O( 1.00)

     No symmetry found



   Cartesian axes

     site n.     atom                  positions (alat units)
         1           H   tau(   1) = (   0.0346663   0.0730597   0.0521487  )
         2           H   tau(   2) = (  -0.0082207  -0.0088708  -0.0836237  )
         3           O   tau(   3) = (  -0.0016694  -0.0040520   0.0075649  )

     number of k points=     1  Marzari-Vanderbilt smearing, width (Ry)=  0.0250
                       cart. coord. in units 2pi/alat
        k(    1) = (   0.0000000   0.0000000   0.0000000), wk =   2.0000000

     Dense  grid:   922329 G-vectors     FFT dimensions: ( 125, 125, 125)

     Estimated max dynamical RAM per process >      31.67Mb

     Estimated total allocated dynamical RAM >     886.64Mb

     Initial potential from superposition of free atoms
     Check: negative starting charge=   -0.015873

     starting charge    7.99998, renormalised to    8.00000

     negative rho (up, down):  1.587E-02 0.000E+00
     Starting wfc are    6 randomized atomic wfcs +    2 random wfc

     total cpu time spent up to now is        0.7 secs

     per-process dynamical memory:    33.5 Mb

     Self-consistent Calculation

     iteration #  1     ecut=    90.00 Ry     beta=0.70
     Davidson diagonalization with overlap
     ethr =  1.00E-02,  avg # of iterations =  7.0

     negative rho (up, down):  4.612E-03 0.000E+00

     total cpu time spent up to now is        1.0 secs

     total energy              =     -34.00751807 Ry
     Harris-Foulkes estimate   =     -34.25657693 Ry
     estimated scf accuracy    <       0.37251542 Ry

     iteration #  2     ecut=    90.00 Ry     beta=0.70
     Davidson diagonalization with overlap
     ethr =  4.66E-03,  avg # of iterations =  2.0

     negative rho (up, down):  2.853E-03 0.000E+00

     total cpu time spent up to now is        1.2 secs

     total energy              =     -34.06693349 Ry
     Harris-Foulkes estimate   =     -34.26864417 Ry
     estimated scf accuracy    <       0.43800838 Ry

     iteration #  3     ecut=    90.00 Ry     beta=0.70
     Davidson diagonalization with overlap
     ethr =  4.66E-03,  avg # of iterations =  2.0

     negative rho (up, down):  1.445E-04 0.000E+00

     total cpu time spent up to now is        1.5 secs

     total energy              =     -34.16400929 Ry
     Harris-Foulkes estimate   =     -34.16480987 Ry
     estimated scf accuracy    <       0.00598654 Ry

     iteration #  4     ecut=    90.00 Ry     beta=0.70
     Davidson diagonalization with overlap
     ethr =  7.48E-05,  avg # of iterations =  4.0

     negative rho (up, down):  1.304E-05 0.000E+00

     total cpu time spent up to now is        1.7 secs

     total energy              =     -34.16562702 Ry
     Harris-Foulkes estimate   =     -34.16574250 Ry
     estimated scf accuracy    <       0.00029956 Ry

     iteration #  5     ecut=    90.00 Ry     beta=0.70
     Davidson diagonalization with overlap
     ethr =  3.74E-06,  avg # of iterations = 13.0

     negative rho (up, down):  2.146E-06 0.000E+00

     total cpu time spent up to now is        2.0 secs

     total energy              =     -34.16565168 Ry
     Harris-Foulkes estimate   =     -34.16565538 Ry
     estimated scf accuracy    <       0.00001551 Ry

     iteration #  6     ecut=    90.00 Ry     beta=0.70
     Davidson diagonalization with overlap
     ethr =  1.94E-07,  avg # of iterations =  2.0

     negative rho (up, down):  6.601E-08 0.000E+00

     total cpu time spent up to now is        2.2 secs

     total energy              =     -34.16565323 Ry
     Harris-Foulkes estimate   =     -34.16565533 Ry
     estimated scf accuracy    <       0.00000150 Ry

     iteration #  7     ecut=    90.00 Ry     beta=0.70
     Davidson diagonalization with overlap
     ethr =  1.87E-08,  avg # of iterations =  2.0

     total cpu time spent up to now is        2.4 secs

     total energy              =     -34.16565325 Ry
     Harris-Foulkes estimate   =     -34.16565348 Ry
     estimated scf accuracy    <       0.00000002 Ry

     iteration #  8     ecut=    90.00 Ry     beta=0.70
     Davidson diagonalization with overlap
     ethr =  2.80E-10,  avg # of iterations =  2.0

     total cpu time spent up to now is        2.6 secs

     total energy              =     -34.16565307 Ry
     Harris-Foulkes estimate   =     -34.16565325 Ry
     estimated scf accuracy    <       0.00000002 Ry

     iteration #  9     ecut=    90.00 Ry     beta=0.70
     Davidson diagonalization with overlap
     ethr =  2.32E-10,  avg # of iterations =  1.0

     total cpu time spent up to now is        2.8 secs

     End of self-consistent calculation

          k = 0.0000 0.0000 0.0000 (115313 PWs)   bands (ev):

   -24.6892 -13.3958  -8.2685  -6.9578  -1.0067   0.3995   0.6788   1.1586

     the Fermi energy is    -4.9632 ev

!    total energy              =     -34.16565304 Ry
     Harris-Foulkes estimate   =     -34.16565307 Ry
     estimated scf accuracy    <          3.9E-10 Ry

     The total energy is the sum of the following terms:

     one-electron contribution =     -63.29409533 Ry
     hartree contribution      =      33.10945198 Ry
     xc contribution           =      -8.32909328 Ry
     ewald contribution        =       4.34808359 Ry
     smearing contrib. (-TS)   =       0.00000000 Ry

     convergence has been achieved in   9 iterations

     Forces acting on atoms (Ry/au):

     atom    1 type  1   force =    -0.02287085   -0.04437851   -0.07608672
     atom    2 type  1   force =     0.01842919    0.04203105   -0.01192945
     atom    3 type  2   force =     0.00444166    0.00234746    0.08801618

     Total force =     0.135286     Total SCF correction =     0.000039

     BFGS Geometry Optimization

     number of scf cycles    =   1
     number of bfgs steps    =   0

     energy   new            =     -34.1656530398 Ry

     new trust radius        =       0.0910039407 bohr
     new conv_thr            =       0.0000000100 Ry


ATOMIC_POSITIONS (angstrom)
H        0.354789269   0.749746904   0.511654640
H       -0.077251695  -0.071643124  -0.891347795
O       -0.015317574  -0.041641780   0.126639155



     Writing output data file pwscf.save
     Check: negative starting charge=   -0.015873
     NEW-OLD atomic charge density approx. for the potential
     Check: negative starting charge=   -0.015875

     negative rho (up, down):  1.585E-02 0.000E+00

     total cpu time spent up to now is        3.3 secs

     per-process dynamical memory:    45.8 Mb

     Self-consistent Calculation

     iteration #  1     ecut=    90.00 Ry     beta=0.70
     Davidson diagonalization with overlap
     ethr =  1.00E-06,  avg # of iterations = 18.0

     negative rho (up, down):  4.088E-03 0.000E+00

     total cpu time spent up to now is        3.8 secs

     total energy              =     -34.16313307 Ry
     Harris-Foulkes estimate   =     -34.14849287 Ry
     estimated scf accuracy    <       0.00290786 Ry

     iteration #  2     ecut=    90.00 Ry     beta=0.70
     Davidson diagonalization with overlap
     ethr =  3.63E-05,  avg # of iterations =  6.0

     negative rho (up, down):  1.496E-03 0.000E+00

     total cpu time spent up to now is        4.0 secs

     total energy              =     -34.16723977 Ry
     Harris-Foulkes estimate   =     -34.16392563 Ry
     estimated scf accuracy    <       0.00023655 Ry

     iteration #  3     ecut=    90.00 Ry     beta=0.70
     Davidson diagonalization with overlap
     ethr =  2.96E-06,  avg # of iterations = 17.0

     negative rho (up, down):  4.560E-04 0.000E+00

     total cpu time spent up to now is        4.3 secs

     total energy              =     -34.16761387 Ry
     Harris-Foulkes estimate   =     -34.16731229 Ry
     estimated scf accuracy    <       0.00003611 Ry

     iteration #  4     ecut=    90.00 Ry     beta=0.70
     Davidson diagonalization with overlap
     ethr =  4.51E-07,  avg # of iterations = 10.0

     negative rho (up, down):  1.940E-05 0.000E+00

     total cpu time spent up to now is        4.6 secs

     total energy              =     -34.17171010 Ry
     Harris-Foulkes estimate   =     -34.17170760 Ry
     estimated scf accuracy    <       0.00001346 Ry

     iteration #  5     ecut=    90.00 Ry     beta=0.70
     Davidson diagonalization with overlap
     ethr =  1.68E-07,  avg # of iterations =  9.0

     negative rho (up, down):  3.049E-07 0.000E+00

     total cpu time spent up to now is        4.9 secs

     total energy              =     -34.17171333 Ry
     Harris-Foulkes estimate   =     -34.17171304 Ry
     estimated scf accuracy    <       0.00000006 Ry

     iteration #  6     ecut=    90.00 Ry     beta=0.70
     Davidson diagonalization with overlap
     ethr =  8.08E-10,  avg # of iterations =  2.0

     total cpu time spent up to now is        5.0 secs

     End of self-consistent calculation

          k = 0.0000 0.0000 0.0000 (115313 PWs)   bands (ev):

   -24.8363 -13.2592  -8.5226  -6.9992  -0.9771   0.4079   0.7042   1.1642

     the Fermi energy is    -4.9958 ev

!    total energy              =     -34.17171341 Ry
     Harris-Foulkes estimate   =     -34.17171338 Ry
     estimated scf accuracy    <          3.6E-09 Ry

     The total energy is the sum of the following terms:

     one-electron contribution =     -63.45976187 Ry
     hartree contribution      =      33.17837002 Ry
     xc contribution           =      -8.34236344 Ry
     ewald contribution        =       4.45204189 Ry
     smearing contrib. (-TS)   =       0.00000000 Ry

     convergence has been achieved in   6 iterations

     Forces acting on atoms (Ry/au):

     atom    1 type  1   force =     0.02161314    0.04976188   -0.01570855
     atom    2 type  1   force =     0.01852770    0.03307507    0.07681943
     atom    3 type  2   force =    -0.04014084   -0.08283696   -0.06111088

     Total force =     0.150786     Total SCF correction =     0.000177

     number of scf cycles    =   2
     number of bfgs steps    =   1

     energy   old            =     -34.1656530398 Ry
     energy   new            =     -34.1717134097 Ry

     CASE: energy  _new < energy  _old

     new trust radius        =       0.0747890081 bohr
     new conv_thr            =       0.0000000061 Ry


ATOMIC_POSITIONS (angstrom)
H        0.355844609   0.754856796   0.480876078
H       -0.064034447  -0.045091979  -0.865143761
O       -0.029590163  -0.073302817   0.131213684



     Writing output data file pwscf.save
     Check: negative starting charge=   -0.015875
     NEW-OLD atomic charge density approx. for the potential
     Check: negative starting charge=   -0.015935

     negative rho (up, down):  1.207E-02 0.000E+00

     total cpu time spent up to now is        5.6 secs

     per-process dynamical memory:    45.8 Mb

     Self-consistent Calculation

     iteration #  1     ecut=    90.00 Ry     beta=0.70
     Davidson diagonalization with overlap
     c_bands:  1 eigenvalues not converged
     ethr =  1.00E-06,  avg # of iterations = 20.0

     negative rho (up, down):  3.111E-03 0.000E+00

     total cpu time spent up to now is        6.0 secs

     total energy              =     -34.17432719 Ry
     Harris-Foulkes estimate   =     -34.16108918 Ry
     estimated scf accuracy    <       0.00096588 Ry

     iteration #  2     ecut=    90.00 Ry     beta=0.70
     Davidson diagonalization with overlap
     ethr =  1.21E-05,  avg # of iterations =  6.0

     negative rho (up, down):  1.285E-03 0.000E+00

     total cpu time spent up to now is        6.3 secs

     total energy              =     -34.17655848 Ry
     Harris-Foulkes estimate   =     -34.17460257 Ry
     estimated scf accuracy    <       0.00020721 Ry

     iteration #  3     ecut=    90.00 Ry     beta=0.70
     Davidson diagonalization with overlap
     ethr =  2.59E-06,  avg # of iterations = 14.0

     negative rho (up, down):  3.329E-04 0.000E+00

     total cpu time spent up to now is        6.6 secs

     total energy              =     -34.17676816 Ry
     Harris-Foulkes estimate   =     -34.17664735 Ry
     estimated scf accuracy    <       0.00007492 Ry

     iteration #  4     ecut=    90.00 Ry     beta=0.70
     Davidson diagonalization with overlap
     c_bands:  1 eigenvalues not converged
     ethr =  9.37E-07,  avg # of iterations = 20.0

     negative rho (up, down):  4.814E-06 0.000E+00

     total cpu time spent up to now is        7.1 secs

     total energy              =     -34.18086792 Ry
     Harris-Foulkes estimate   =     -34.18086374 Ry
     estimated scf accuracy    <       0.00000217 Ry

     iteration #  5     ecut=    90.00 Ry     beta=0.70
     Davidson diagonalization with overlap
     ethr =  2.72E-08,  avg # of iterations = 11.0

     total cpu time spent up to now is        7.4 secs

     total energy              =     -34.18086873 Ry
     Harris-Foulkes estimate   =     -34.18086855 Ry
     estimated scf accuracy    <       0.00000003 Ry

     iteration #  6     ecut=    90.00 Ry     beta=0.70
     Davidson diagonalization with overlap
     ethr =  3.56E-10,  avg # of iterations =  2.0

     total cpu time spent up to now is        7.5 secs

     End of self-consistent calculation

          k = 0.0000 0.0000 0.0000 (115313 PWs)   bands (ev):

   -24.9140 -12.9966  -8.8299  -7.0304  -0.9607   0.4220   0.7117   1.1219

     the Fermi energy is    -5.0470 ev

!    total energy              =     -34.18086877 Ry
     Harris-Foulkes estimate   =     -34.18086874 Ry
     estimated scf accuracy    <          1.6E-09 Ry

     The total energy is the sum of the following terms:

     one-electron contribution =     -63.47104906 Ry
     hartree contribution      =      33.17248251 Ry
     xc contribution           =      -8.34204163 Ry
     ewald contribution        =       4.45973941 Ry
     smearing contrib. (-TS)   =       0.00000000 Ry

     convergence has been achieved in   6 iterations

     Forces acting on atoms (Ry/au):

     atom    1 type  1   force =     0.00208480    0.00567347   -0.01849465
     atom    2 type  1   force =     0.00925804    0.01624563    0.03665965
     atom    3 type  2   force =    -0.01134285   -0.02191909   -0.01816501

     Total force =     0.054875     Total SCF correction =     0.000040

     number of scf cycles    =   3
     number of bfgs steps    =   2

     energy   old            =     -34.1717134097 Ry
     energy   new            =     -34.1808687743 Ry

     CASE: energy  _new < energy  _old

     new trust radius        =       0.0895519178 bohr
     new conv_thr            =       0.0000000037 Ry


ATOMIC_POSITIONS (angstrom)
H        0.351553964   0.748399748   0.439066707
H       -0.048816717  -0.015295082  -0.831583857
O       -0.040517248  -0.096642666   0.139463150



     Writing output data file pwscf.save
     Check: negative starting charge=   -0.015935
     NEW-OLD atomic charge density approx. for the potential
     Check: negative starting charge=   -0.015980

     negative rho (up, down):  9.521E-03 0.000E+00

     total cpu time spent up to now is        8.1 secs

     per-process dynamical memory:    45.8 Mb

     Self-consistent Calculation

     iteration #  1     ecut=    90.00 Ry     beta=0.70
     Davidson diagonalization with overlap
     c_bands:  1 eigenvalues not converged
     ethr =  1.00E-06,  avg # of iterations = 20.0

     negative rho (up, down):  2.441E-03 0.000E+00

     total cpu time spent up to now is        8.6 secs

     total energy              =     -34.17806288 Ry
     Harris-Foulkes estimate   =     -34.16768032 Ry
     estimated scf accuracy    <       0.00071189 Ry

     iteration #  2     ecut=    90.00 Ry     beta=0.70
     Davidson diagonalization with overlap
     ethr =  8.90E-06,  avg # of iterations = 16.0

     negative rho (up, down):  7.883E-04 0.000E+00

     total cpu time spent up to now is        8.9 secs

     total energy              =     -34.17940012 Ry
     Harris-Foulkes estimate   =     -34.17819632 Ry
     estimated scf accuracy    <       0.00011111 Ry

     iteration #  3     ecut=    90.00 Ry     beta=0.70
     Davidson diagonalization with overlap
     c_bands:  1 eigenvalues not converged
     ethr =  1.39E-06,  avg # of iterations = 20.0

     negative rho (up, down):  1.240E-04 0.000E+00

     total cpu time spent up to now is        9.3 secs

     total energy              =     -34.18352107 Ry
     Harris-Foulkes estimate   =     -34.18353114 Ry
     estimated scf accuracy    <       0.00006159 Ry

     iteration #  4     ecut=    90.00 Ry     beta=0.70
     Davidson diagonalization with overlap
     ethr =  7.70E-07,  avg # of iterations = 12.0

     negative rho (up, down):  4.438E-06 0.000E+00

     total cpu time spent up to now is        9.5 secs

     total energy              =     -34.18353883 Ry
     Harris-Foulkes estimate   =     -34.18353485 Ry
     estimated scf accuracy    <       0.00000091 Ry

     iteration #  5     ecut=    90.00 Ry     beta=0.70
     Davidson diagonalization with overlap
     ethr =  1.14E-08,  avg # of iterations =  3.0

     negative rho (up, down):  1.587E-08 0.000E+00

     total cpu time spent up to now is        9.8 secs

     total energy              =     -34.18353925 Ry
     Harris-Foulkes estimate   =     -34.18353913 Ry
     estimated scf accuracy    <       0.00000002 Ry

     iteration #  6     ecut=    90.00 Ry     beta=0.70
     Davidson diagonalization with overlap
     ethr =  2.90E-10,  avg # of iterations =  3.0

     total cpu time spent up to now is        9.9 secs

     End of self-consistent calculation

          k = 0.0000 0.0000 0.0000 (115313 PWs)   bands (ev):

   -25.1426 -12.8012  -9.1723  -7.0853  -0.9329   0.4302   0.7528   1.1211

     the Fermi energy is    -5.1047 ev

!    total energy              =     -34.18353931 Ry
     Harris-Foulkes estimate   =     -34.18353926 Ry
     estimated scf accuracy    <          1.3E-09 Ry

     The total energy is the sum of the following terms:

     one-electron contribution =     -63.76207395 Ry
     hartree contribution      =      33.30043653 Ry
     xc contribution           =      -8.36332961 Ry
     ewald contribution        =       4.64142772 Ry
     smearing contrib. (-TS)   =       0.00000000 Ry

     convergence has been achieved in   6 iterations

     Forces acting on atoms (Ry/au):

     atom    1 type  1   force =     0.00161932    0.00375382    0.00180788
     atom    2 type  1   force =    -0.00025375    0.00128283   -0.01169659
     atom    3 type  2   force =    -0.00136557   -0.00503664    0.00988871

     Total force =     0.016838     Total SCF correction =     0.000089

     number of scf cycles    =   4
     number of bfgs steps    =   3

     energy   old            =     -34.1808687743 Ry
     energy   new            =     -34.1835393114 Ry

     CASE: energy  _new < energy  _old

     new trust radius        =       0.0102902492 bohr
     new conv_thr            =       0.0000000012 Ry


ATOMIC_POSITIONS (angstrom)
H        0.352511311   0.750634296   0.439481209
H       -0.048645215  -0.014145958  -0.836112781
O       -0.041646096  -0.100026338   0.143577572



     Writing output data file pwscf.save
     Check: negative starting charge=   -0.015980
     NEW-OLD atomic charge density approx. for the potential
     Check: negative starting charge=   -0.015975

     negative rho (up, down):  1.634E-03 0.000E+00

     total cpu time spent up to now is       10.6 secs

     per-process dynamical memory:    45.8 Mb

     Self-consistent Calculation

     iteration #  1     ecut=    90.00 Ry     beta=0.70
     Davidson diagonalization with overlap
     c_bands:  1 eigenvalues not converged
     ethr =  1.00E-06,  avg # of iterations = 20.0

     negative rho (up, down):  4.142E-04 0.000E+00

     total cpu time spent up to now is       11.0 secs

     total energy              =     -34.17945450 Ry
     Harris-Foulkes estimate   =     -34.17920932 Ry
     estimated scf accuracy    <       0.00012102 Ry

     iteration #  2     ecut=    90.00 Ry     beta=0.70
     Davidson diagonalization with overlap
     c_bands:  1 eigenvalues not converged
     ethr =  1.51E-06,  avg # of iterations = 20.0

     negative rho (up, down):  2.524E-04 0.000E+00

     total cpu time spent up to now is       11.3 secs

     total energy              =     -34.18355971 Ry
     Harris-Foulkes estimate   =     -34.18362078 Ry
     estimated scf accuracy    <       0.00012815 Ry

     iteration #  3     ecut=    90.00 Ry     beta=0.70
     Davidson diagonalization with overlap
     ethr =  1.51E-06,  avg # of iterations = 12.0

     negative rho (up, down):  3.646E-05 0.000E+00

     total cpu time spent up to now is       11.6 secs

     total energy              =     -34.18358938 Ry
     Harris-Foulkes estimate   =     -34.18358627 Ry
     estimated scf accuracy    <       0.00000075 Ry

     iteration #  4     ecut=    90.00 Ry     beta=0.70
     Davidson diagonalization with overlap
     ethr =  9.40E-09,  avg # of iterations =  4.0

     negative rho (up, down):  2.360E-06 0.000E+00

     total cpu time spent up to now is       11.8 secs

     total energy              =     -34.18359068 Ry
     Harris-Foulkes estimate   =     -34.18358976 Ry
     estimated scf accuracy    <       0.00000003 Ry

     iteration #  5     ecut=    90.00 Ry     beta=0.70
     Davidson diagonalization with overlap
     ethr =  3.21E-10,  avg # of iterations =  2.0

     total cpu time spent up to now is       12.0 secs

     total energy              =     -34.18359089 Ry
     Harris-Foulkes estimate   =     -34.18359070 Ry
     estimated scf accuracy    <          1.3E-09 Ry

     iteration #  6     ecut=    90.00 Ry     beta=0.70
     Davidson diagonalization with overlap
     ethr =  1.61E-11,  avg # of iterations =  2.0

     total cpu time spent up to now is       12.1 secs

     End of self-consistent calculation

          k = 0.0000 0.0000 0.0000 (115313 PWs)   bands (ev):

   -25.0788 -12.7133  -9.1887  -7.0749  -0.9539   0.4233   0.7388   1.1206

     the Fermi energy is    -5.0892 ev

!    total energy              =     -34.18359093 Ry
     Harris-Foulkes estimate   =     -34.18359089 Ry
     estimated scf accuracy    <          4.6E-11 Ry

     The total energy is the sum of the following terms:

     one-electron contribution =     -63.60876956 Ry
     hartree contribution      =      33.22652645 Ry
     xc contribution           =      -8.35122578 Ry
     ewald contribution        =       4.54987796 Ry
     smearing contrib. (-TS)   =       0.00000000 Ry

     convergence has been achieved in   6 iterations

     Forces acting on atoms (Ry/au):

     atom    1 type  1   force =    -0.00170848   -0.00327961    0.00027566
     atom    2 type  1   force =    -0.00051817   -0.00078417    0.00496104
     atom    3 type  2   force =     0.00222664    0.00406378   -0.00523670

     Total force =     0.009388     Total SCF correction =     0.000042

     number of scf cycles    =   5
     number of bfgs steps    =   4

     energy   old            =     -34.1835393114 Ry
     energy   new            =     -34.1835909316 Ry

     CASE: energy  _new < energy  _old

     new trust radius        =       0.0057400727 bohr
     new conv_thr            =            1.0E-10 Ry


ATOMIC_POSITIONS (angstrom)
H        0.352093122   0.749783043   0.440893589
H       -0.049289480  -0.015317516  -0.835523680
O       -0.040583641  -0.098003527   0.141576091



     Writing output data file pwscf.save
     Check: negative starting charge=   -0.015975
     NEW-OLD atomic charge density approx. for the potential
     Check: negative starting charge=   -0.015976

     negative rho (up, down):  8.571E-04 0.000E+00

     total cpu time spent up to now is       12.7 secs

     per-process dynamical memory:    45.8 Mb

     Self-consistent Calculation

     iteration #  1     ecut=    90.00 Ry     beta=0.70
     Davidson diagonalization with overlap
     ethr =  1.00E-06,  avg # of iterations =  4.0

     negative rho (up, down):  2.099E-04 0.000E+00

     total cpu time spent up to now is       13.1 secs

     total energy              =     -34.18360968 Ry
     Harris-Foulkes estimate   =     -34.18360019 Ry
     estimated scf accuracy    <       0.00001927 Ry

     iteration #  2     ecut=    90.00 Ry     beta=0.70
     Davidson diagonalization with overlap
     ethr =  2.41E-07,  avg # of iterations =  3.0

     negative rho (up, down):  1.248E-04 0.000E+00

     total cpu time spent up to now is       13.4 secs

     total energy              =     -34.18361595 Ry
     Harris-Foulkes estimate   =     -34.18362435 Ry
     estimated scf accuracy    <       0.00002099 Ry

     iteration #  3     ecut=    90.00 Ry     beta=0.70
     Davidson diagonalization with overlap
     ethr =  2.41E-07,  avg # of iterations =  2.0

     negative rho (up, down):  7.615E-06 0.000E+00

     total cpu time spent up to now is       13.6 secs

     total energy              =     -34.18361859 Ry
     Harris-Foulkes estimate   =     -34.18362020 Ry
     estimated scf accuracy    <       0.00000012 Ry

     iteration #  4     ecut=    90.00 Ry     beta=0.70
     Davidson diagonalization with overlap
     ethr =  1.54E-09,  avg # of iterations =  4.0

     negative rho (up, down):  4.235E-07 0.000E+00

     total cpu time spent up to now is       13.8 secs

     total energy              =     -34.18361836 Ry
     Harris-Foulkes estimate   =     -34.18361870 Ry
     estimated scf accuracy    <          7.9E-09 Ry

     iteration #  5     ecut=    90.00 Ry     beta=0.70
     Davidson diagonalization with overlap
     ethr =  9.81E-11,  avg # of iterations =  2.0

     total cpu time spent up to now is       14.0 secs

     total energy              =     -34.18361831 Ry
     Harris-Foulkes estimate   =     -34.18361836 Ry
     estimated scf accuracy    <          4.0E-10 Ry

     iteration #  6     ecut=    90.00 Ry     beta=0.70
     Davidson diagonalization with overlap
     ethr =  4.96E-12,  avg # of iterations =  2.0

     total cpu time spent up to now is       14.2 secs

     End of self-consistent calculation

          k = 0.0000 0.0000 0.0000 (115313 PWs)   bands (ev):

   -25.0973 -12.7567  -9.1704  -7.0774  -0.9458   0.4260   0.7433   1.1206

     the Fermi energy is    -5.0937 ev

!    total energy              =     -34.18361830 Ry
     Harris-Foulkes estimate   =     -34.18361831 Ry
     estimated scf accuracy    <          1.6E-11 Ry

     The total energy is the sum of the following terms:

     one-electron contribution =     -63.66239862 Ry
     hartree contribution      =      33.25276017 Ry
     xc contribution           =      -8.35551697 Ry
     ewald contribution        =       4.58153711 Ry
     smearing contrib. (-TS)   =       0.00000000 Ry

     convergence has been achieved in   6 iterations

     Forces acting on atoms (Ry/au):

     atom    1 type  1   force =    -0.00022897   -0.00012461    0.00024265
     atom    2 type  1   force =    -0.00008415    0.00053845    0.00013596
     atom    3 type  2   force =     0.00031312   -0.00041384   -0.00037861

     Total force =     0.000925     Total SCF correction =     0.000006

     bfgs converged in   6 scf cycles and   5 bfgs steps
     (criteria: energy <  1.0E-04, force <  1.0E-03)

     End of BFGS Geometry Optimization

     Final energy   =     -34.1836183042 Ry
Begin final coordinates

ATOMIC_POSITIONS (angstrom)
H        0.352093122   0.749783043   0.440893589
H       -0.049289480  -0.015317516  -0.835523680
O       -0.040583641  -0.098003527   0.141576091
End final coordinates



     Writing output data file pwscf.save
 
     init_run     :      0.52s CPU      0.55s WALL (       1 calls)
     electrons    :      9.46s CPU     11.27s WALL (       6 calls)
     update_pot   :      1.22s CPU      1.45s WALL (       5 calls)
     forces       :      0.40s CPU      0.41s WALL (       6 calls)

     Called by init_run:
     wfcinit      :      0.04s CPU      0.04s WALL (       1 calls)
     potinit      :      0.11s CPU      0.11s WALL (       1 calls)

     Called by electrons:
     c_bands      :      4.94s CPU      5.09s WALL (      39 calls)
     sum_band     :      0.88s CPU      1.01s WALL (      39 calls)
     v_of_rho     :      2.31s CPU      2.47s WALL (      45 calls)
     mix_rho      :      0.86s CPU      1.68s WALL (      39 calls)

     Called by c_bands:
     init_us_2    :      0.02s CPU      0.02s WALL (      79 calls)
     cegterg      :      4.92s CPU      5.05s WALL (      39 calls)

     Called by sum_band:

     Called by *egterg:
     h_psi        :      4.14s CPU      4.27s WALL (     361 calls)
     g_psi        :      0.04s CPU      0.04s WALL (     321 calls)
     cdiaghg      :      0.09s CPU      0.09s WALL (     355 calls)

     Called by h_psi:
     h_psi:pot    :      4.10s CPU      4.23s WALL (     361 calls)
     h_psi:calbec :      0.06s CPU      0.07s WALL (     361 calls)
     vloc_psi     :      4.02s CPU      4.13s WALL (     361 calls)
     add_vuspsi   :      0.03s CPU      0.03s WALL (     361 calls)

     General routines
     calbec       :      0.06s CPU      0.07s WALL (     385 calls)
     fft          :      1.69s CPU      1.97s WALL (     506 calls)
     fftw         :      3.92s CPU      4.04s WALL (    3064 calls)
     davcio       :      0.10s CPU      0.69s WALL (     283 calls)
 
     Parallel routines
     fft_scatter  :      2.00s CPU      2.37s WALL (    3570 calls)
 
     PWSCF        :    12.02s CPU        14.59s WALL

 
   This run was terminated on:   2:29:40  28Jul2018            

=------------------------------------------------------------------------------=
   JOB DONE.
=------------------------------------------------------------------------------=
