
     Program PWSCF v.6.0 (svn rev. 13079) starts on 28Jul2018 at  2:41:22 

     This program is part of the open-source Quantum ESPRESSO suite
     for quantum simulation of materials; please cite
         "P. Giannozzi et al., J. Phys.:Condens. Matter 21 395502 (2009);
          URL http://www.quantum-espresso.org", 
     in publications or presentations arising from this work. More details at
     http://www.quantum-espresso.org/quote

     Parallel version (MPI), running on    28 processors
     R & G space division:  proc/nbgrp/npool/nimage =      28
     Reading input from ../QMCmins/relax-72.in

     Current dimensions of program PWSCF are:
     Max number of different atomic species (ntypx) = 10
     Max number of k-points (npk) =  40000
     Max angular momentum in pseudopotentials (lmaxx) =  3
     Message from routine iosys:
     pot_extrapolation='second-order' not available, using 'atomic'
     Message from routine iosys:
     wfc_extrapolation='second-order' not available, using 'atomic'

     Subspace diagonalization in iterative solution of the eigenvalue problem:
     a serial algorithm will be used

 
     Parallelization info
     --------------------
     sticks:   dense  smooth     PW     G-vecs:    dense   smooth      PW
     Min         408     408    102                32936    32936    4116
     Max         409     409    103                32943    32943    4121
     Sum       11449   11449   2869               922329   922329  115313
 


     bravais-lattice index     =            1
     lattice parameter (alat)  =      20.0000  a.u.
     unit-cell volume          =    8000.0000 (a.u.)^3
     number of atoms/cell      =            3
     number of atomic types    =            2
     number of electrons       =         8.00
     number of Kohn-Sham states=            8
     kinetic-energy cutoff     =      90.0000  Ry
     charge density cutoff     =     360.0000  Ry
     convergence threshold     =      1.0E-08
     mixing beta               =       0.7000
     number of iterations used =            8  plain     mixing
     Exchange-correlation      = BLYP ( 1  3  1  3 0 0)
     nstep                     =           50


     celldm(1)=  20.000000  celldm(2)=   0.000000  celldm(3)=   0.000000
     celldm(4)=   0.000000  celldm(5)=   0.000000  celldm(6)=   0.000000

     crystal axes: (cart. coord. in units of alat)
               a(1) = (   1.000000   0.000000   0.000000 )  
               a(2) = (   0.000000   1.000000   0.000000 )  
               a(3) = (   0.000000   0.000000   1.000000 )  

     reciprocal axes: (cart. coord. in units 2 pi/alat)
               b(1) = (  1.000000  0.000000  0.000000 )  
               b(2) = (  0.000000  1.000000  0.000000 )  
               b(3) = (  0.000000  0.000000  1.000000 )  


     PseudoPot. # 1 for  H read from file:
     ../H.blyp-hgh.UPF
     MD5 check sum: c576e69559cde411e611be972c763230
     Pseudo is Norm-conserving, Zval =  1.0
     Generated in analytical, separable form
     Using radial grid of  929 points,  0 beta functions with: 

     PseudoPot. # 2 for  O read from file:
     ../O.blyp-hgh.UPF
     MD5 check sum: d0b7156309aa9befef28faac7bc56342
     Pseudo is Norm-conserving, Zval =  6.0
     Generated in analytical, separable form
     Using radial grid of 1095 points,  1 beta functions with: 
                l(1) =   0

     atomic species   valence    mass     pseudopotential
        H              1.00     1.01000      H( 1.00)
        O              6.00    16.00000      O( 1.00)

     No symmetry found



   Cartesian axes

     site n.     atom                  positions (alat units)
         1           H   tau(   1) = (   0.0590996  -0.0588423   0.0068908  )
         2           H   tau(   2) = (  -0.0056393  -0.0088280  -0.0810431  )
         3           O   tau(   3) = (  -0.0033747   0.0042717   0.0102589  )

     number of k points=     1  Marzari-Vanderbilt smearing, width (Ry)=  0.0250
                       cart. coord. in units 2pi/alat
        k(    1) = (   0.0000000   0.0000000   0.0000000), wk =   2.0000000

     Dense  grid:   922329 G-vectors     FFT dimensions: ( 125, 125, 125)

     Estimated max dynamical RAM per process >      31.67Mb

     Estimated total allocated dynamical RAM >     886.64Mb

     Initial potential from superposition of free atoms
     Check: negative starting charge=   -0.016108

     starting charge    7.99998, renormalised to    8.00000

     negative rho (up, down):  1.611E-02 0.000E+00
     Starting wfc are    6 randomized atomic wfcs +    2 random wfc

     total cpu time spent up to now is        0.7 secs

     per-process dynamical memory:    33.5 Mb

     Self-consistent Calculation

     iteration #  1     ecut=    90.00 Ry     beta=0.70
     Davidson diagonalization with overlap
     ethr =  1.00E-02,  avg # of iterations =  8.0

     negative rho (up, down):  4.701E-03 0.000E+00

     total cpu time spent up to now is        1.0 secs

     total energy              =     -34.01039115 Ry
     Harris-Foulkes estimate   =     -34.24774578 Ry
     estimated scf accuracy    <       0.35693135 Ry

     iteration #  2     ecut=    90.00 Ry     beta=0.70
     Davidson diagonalization with overlap
     ethr =  4.46E-03,  avg # of iterations =  2.0

     negative rho (up, down):  2.887E-03 0.000E+00

     total cpu time spent up to now is        1.2 secs

     total energy              =     -34.06774996 Ry
     Harris-Foulkes estimate   =     -34.24567707 Ry
     estimated scf accuracy    <       0.37934423 Ry

     iteration #  3     ecut=    90.00 Ry     beta=0.70
     Davidson diagonalization with overlap
     ethr =  4.46E-03,  avg # of iterations =  2.0

     negative rho (up, down):  1.571E-04 0.000E+00

     total cpu time spent up to now is        1.3 secs

     total energy              =     -34.15374661 Ry
     Harris-Foulkes estimate   =     -34.15465059 Ry
     estimated scf accuracy    <       0.00597897 Ry

     iteration #  4     ecut=    90.00 Ry     beta=0.70
     Davidson diagonalization with overlap
     ethr =  7.47E-05,  avg # of iterations =  5.0

     negative rho (up, down):  3.813E-05 0.000E+00

     total cpu time spent up to now is        1.6 secs

     total energy              =     -34.15548347 Ry
     Harris-Foulkes estimate   =     -34.15563784 Ry
     estimated scf accuracy    <       0.00036360 Ry

     iteration #  5     ecut=    90.00 Ry     beta=0.70
     Davidson diagonalization with overlap
     c_bands:  1 eigenvalues not converged
     ethr =  4.54E-06,  avg # of iterations = 20.0

     total cpu time spent up to now is        1.9 secs

     total energy              =     -34.15551967 Ry
     Harris-Foulkes estimate   =     -34.15552083 Ry
     estimated scf accuracy    <       0.00000947 Ry

     iteration #  6     ecut=    90.00 Ry     beta=0.70
     Davidson diagonalization with overlap
     ethr =  1.18E-07,  avg # of iterations = 20.0

     negative rho (up, down):  8.049E-08 0.000E+00

     total cpu time spent up to now is        2.2 secs

     total energy              =     -34.15551995 Ry
     Harris-Foulkes estimate   =     -34.15552010 Ry
     estimated scf accuracy    <       0.00000346 Ry

     iteration #  7     ecut=    90.00 Ry     beta=0.70
     Davidson diagonalization with overlap
     ethr =  4.33E-08,  avg # of iterations =  2.0

     negative rho (up, down):  1.421E-08 0.000E+00

     total cpu time spent up to now is        2.4 secs

     total energy              =     -34.15552029 Ry
     Harris-Foulkes estimate   =     -34.15552044 Ry
     estimated scf accuracy    <       0.00000007 Ry

     iteration #  8     ecut=    90.00 Ry     beta=0.70
     Davidson diagonalization with overlap
     ethr =  8.51E-10,  avg # of iterations =  2.0

     total cpu time spent up to now is        2.5 secs

     End of self-consistent calculation

          k = 0.0000 0.0000 0.0000 (115313 PWs)   bands (ev):

   -25.8214 -11.8193 -10.2726  -7.2253  -0.9930   0.3957   0.8460   1.1114

     the Fermi energy is    -5.2816 ev

!    total energy              =     -34.15552013 Ry
     Harris-Foulkes estimate   =     -34.15552031 Ry
     estimated scf accuracy    <          8.1E-09 Ry

     The total energy is the sum of the following terms:

     one-electron contribution =     -64.32478216 Ry
     hartree contribution      =      33.53636556 Ry
     xc contribution           =      -8.39858356 Ry
     ewald contribution        =       5.03148004 Ry
     smearing contrib. (-TS)   =       0.00000000 Ry

     convergence has been achieved in   8 iterations

     Forces acting on atoms (Ry/au):

     atom    1 type  1   force =     0.08987535   -0.07710668    0.07372133
     atom    2 type  1   force =    -0.05488097    0.04793745   -0.04365373
     atom    3 type  2   force =    -0.03499438    0.02916923   -0.03006760

     Total force =     0.172200     Total SCF correction =     0.000190

     BFGS Geometry Optimization

     number of scf cycles    =   1
     number of bfgs steps    =   0

     energy   new            =     -34.1555201308 Ry

     new trust radius        =       0.1394914127 bohr
     new conv_thr            =       0.0000000100 Ry


ATOMIC_POSITIONS (angstrom)
H        0.673042989  -0.663563099   0.111940647
H       -0.088725761  -0.068064594  -0.880823557
O       -0.054234228   0.060645694   0.092663910



     Writing output data file pwscf.save
     Check: negative starting charge=   -0.016108
     NEW-OLD atomic charge density approx. for the potential
     Check: negative starting charge=   -0.016087

     negative rho (up, down):  9.821E-03 0.000E+00

     total cpu time spent up to now is        3.1 secs

     per-process dynamical memory:    45.8 Mb

     Self-consistent Calculation

     iteration #  1     ecut=    90.00 Ry     beta=0.70
     Davidson diagonalization with overlap
     c_bands:  1 eigenvalues not converged
     ethr =  1.00E-06,  avg # of iterations = 20.0

     negative rho (up, down):  2.587E-03 0.000E+00

     total cpu time spent up to now is        3.5 secs

     total energy              =     -34.16044031 Ry
     Harris-Foulkes estimate   =     -34.15413917 Ry
     estimated scf accuracy    <       0.00550781 Ry

     iteration #  2     ecut=    90.00 Ry     beta=0.70
     Davidson diagonalization with overlap
     ethr =  6.88E-05,  avg # of iterations =  5.0

     negative rho (up, down):  1.578E-03 0.000E+00

     total cpu time spent up to now is        3.8 secs

     total energy              =     -34.16658411 Ry
     Harris-Foulkes estimate   =     -34.16779689 Ry
     estimated scf accuracy    <       0.00462377 Ry

     iteration #  3     ecut=    90.00 Ry     beta=0.70
     Davidson diagonalization with overlap
     ethr =  5.78E-05,  avg # of iterations =  3.0

     negative rho (up, down):  3.816E-04 0.000E+00

     total cpu time spent up to now is        4.0 secs

     total energy              =     -34.16794157 Ry
     Harris-Foulkes estimate   =     -34.16768803 Ry
     estimated scf accuracy    <       0.00013164 Ry

     iteration #  4     ecut=    90.00 Ry     beta=0.70
     Davidson diagonalization with overlap
     c_bands:  1 eigenvalues not converged
     ethr =  1.65E-06,  avg # of iterations = 20.0

     negative rho (up, down):  2.276E-05 0.000E+00

     total cpu time spent up to now is        4.4 secs

     total energy              =     -34.16797300 Ry
     Harris-Foulkes estimate   =     -34.16797024 Ry
     estimated scf accuracy    <       0.00000249 Ry

     iteration #  5     ecut=    90.00 Ry     beta=0.70
     Davidson diagonalization with overlap
     ethr =  3.12E-08,  avg # of iterations = 12.0

     negative rho (up, down):  1.753E-07 0.000E+00

     total cpu time spent up to now is        4.7 secs

     total energy              =     -34.16797373 Ry
     Harris-Foulkes estimate   =     -34.16797363 Ry
     estimated scf accuracy    <       0.00000010 Ry

     iteration #  6     ecut=    90.00 Ry     beta=0.70
     Davidson diagonalization with overlap
     ethr =  1.22E-09,  avg # of iterations =  2.0

     total cpu time spent up to now is        4.8 secs

     End of self-consistent calculation

          k = 0.0000 0.0000 0.0000 (115313 PWs)   bands (ev):

   -25.1685 -11.7142  -9.9756  -7.1200  -1.0938   0.3712   0.7285   1.1078

     the Fermi energy is    -5.1212 ev

!    total energy              =     -34.16797384 Ry
     Harris-Foulkes estimate   =     -34.16797375 Ry
     estimated scf accuracy    <          6.6E-09 Ry

     The total energy is the sum of the following terms:

     one-electron contribution =     -63.23272708 Ry
     hartree contribution      =      33.02157578 Ry
     xc contribution           =      -8.31621900 Ry
     ewald contribution        =       4.35939646 Ry
     smearing contrib. (-TS)   =       0.00000000 Ry

     convergence has been achieved in   6 iterations

     Forces acting on atoms (Ry/au):

     atom    1 type  1   force =    -0.03521004    0.04350668    0.04723616
     atom    2 type  1   force =    -0.03699427    0.03391313   -0.01972760
     atom    3 type  2   force =     0.07220430   -0.07741981   -0.02750856

     Total force =     0.142252     Total SCF correction =     0.000333

     number of scf cycles    =   2
     number of bfgs steps    =   1

     energy   old            =     -34.1555201308 Ry
     energy   new            =     -34.1679738443 Ry

     CASE: energy  _new < energy  _old

     new trust radius        =       0.0982919033 bohr
     new conv_thr            =       0.0000000077 Ry


ATOMIC_POSITIONS (angstrom)
H        0.683208025  -0.665789137   0.157452373
H       -0.123500082  -0.036908823  -0.903747421
O       -0.029624942   0.031715960   0.070076047



     Writing output data file pwscf.save
     Check: negative starting charge=   -0.016087
     NEW-OLD atomic charge density approx. for the potential
     Check: negative starting charge=   -0.016013

     negative rho (up, down):  1.516E-02 0.000E+00

     total cpu time spent up to now is        5.4 secs

     per-process dynamical memory:    45.8 Mb

     Self-consistent Calculation

     iteration #  1     ecut=    90.00 Ry     beta=0.70
     Davidson diagonalization with overlap
     c_bands:  1 eigenvalues not converged
     ethr =  1.00E-06,  avg # of iterations = 20.0

     negative rho (up, down):  2.096E-03 0.000E+00

     total cpu time spent up to now is        5.9 secs

     total energy              =      51.84975980 Ry
     Harris-Foulkes estimate   =    -334.92652394 Ry
     estimated scf accuracy    <       6.96102273 Ry

     iteration #  2     ecut=    90.00 Ry     beta=0.70
     Davidson diagonalization with overlap
     ethr =  1.00E-02,  avg # of iterations =  3.0

     total cpu time spent up to now is        6.1 secs

     total energy              =     -32.97575035 Ry
     Harris-Foulkes estimate   =     -37.90274273 Ry
     estimated scf accuracy    <      10.43495191 Ry

     iteration #  3     ecut=    90.00 Ry     beta=0.70
     Davidson diagonalization with overlap
     ethr =  1.00E-02,  avg # of iterations =  3.0

     total cpu time spent up to now is        6.3 secs

     total energy              =     -34.46567975 Ry
     Harris-Foulkes estimate   =     -34.98362467 Ry
     estimated scf accuracy    <       1.70374434 Ry

     iteration #  4     ecut=    90.00 Ry     beta=0.70
     Davidson diagonalization with overlap
     ethr =  1.00E-02,  avg # of iterations =  1.0

     total cpu time spent up to now is        6.5 secs

     total energy              =     -34.39969359 Ry
     Harris-Foulkes estimate   =     -34.50632138 Ry
     estimated scf accuracy    <       0.88938264 Ry

     iteration #  5     ecut=    90.00 Ry     beta=0.70
     Davidson diagonalization with overlap
     ethr =  1.00E-02,  avg # of iterations =  1.0

     total cpu time spent up to now is        6.7 secs

     total energy              =     -34.25605880 Ry
     Harris-Foulkes estimate   =     -34.40138963 Ry
     estimated scf accuracy    <       0.71872209 Ry

     iteration #  6     ecut=    90.00 Ry     beta=0.70
     Davidson diagonalization with overlap
     ethr =  8.98E-03,  avg # of iterations =  1.0

     negative rho (up, down):  2.030E-03 0.000E+00

     total cpu time spent up to now is        6.9 secs

     total energy              =     -34.13805852 Ry
     Harris-Foulkes estimate   =     -34.25435889 Ry
     estimated scf accuracy    <       0.44766476 Ry

     iteration #  7     ecut=    90.00 Ry     beta=0.70
     Davidson diagonalization with overlap
     ethr =  5.60E-03,  avg # of iterations =  1.0

     negative rho (up, down):  7.537E-07 0.000E+00

     total cpu time spent up to now is        7.1 secs

     total energy              =     -34.14966475 Ry
     Harris-Foulkes estimate   =     -34.14423071 Ry
     estimated scf accuracy    <       0.17120444 Ry

     iteration #  8     ecut=    90.00 Ry     beta=0.70
     Davidson diagonalization with overlap
     ethr =  2.14E-03,  avg # of iterations =  1.0

     negative rho (up, down):  7.333E-04 0.000E+00

     total cpu time spent up to now is        7.3 secs

     total energy              =     -34.13586734 Ry
     Harris-Foulkes estimate   =     -34.15003833 Ry
     estimated scf accuracy    <       0.17916858 Ry

     iteration #  9     ecut=    90.00 Ry     beta=0.70
     Davidson diagonalization with overlap
     ethr =  2.14E-03,  avg # of iterations =  1.0

     negative rho (up, down):  6.860E-03 0.000E+00

     total cpu time spent up to now is        7.5 secs

     total energy              =     -34.13818844 Ry
     Harris-Foulkes estimate   =     -34.13631964 Ry
     estimated scf accuracy    <       0.12306243 Ry

     iteration # 10     ecut=    90.00 Ry     beta=0.70
     Davidson diagonalization with overlap
     ethr =  1.54E-03,  avg # of iterations =  1.0

     negative rho (up, down):  4.311E-03 0.000E+00

     total cpu time spent up to now is        7.8 secs

     total energy              =     -34.17407280 Ry
     Harris-Foulkes estimate   =     -34.14106022 Ry
     estimated scf accuracy    <       0.02698257 Ry

     iteration # 11     ecut=    90.00 Ry     beta=0.70
     Davidson diagonalization with overlap
     ethr =  3.37E-04,  avg # of iterations =  2.0

     negative rho (up, down):  5.134E-04 0.000E+00

     total cpu time spent up to now is        8.0 secs

     total energy              =     -34.18031481 Ry
     Harris-Foulkes estimate   =     -34.18035970 Ry
     estimated scf accuracy    <       0.00086686 Ry

     iteration # 12     ecut=    90.00 Ry     beta=0.70
     Davidson diagonalization with overlap
     ethr =  1.08E-05,  avg # of iterations =  9.0

     negative rho (up, down):  1.349E-04 0.000E+00

     total cpu time spent up to now is        8.3 secs

     total energy              =     -34.18045843 Ry
     Harris-Foulkes estimate   =     -34.18052819 Ry
     estimated scf accuracy    <       0.00029586 Ry

     iteration # 13     ecut=    90.00 Ry     beta=0.70
     Davidson diagonalization with overlap
     c_bands:  1 eigenvalues not converged
     ethr =  3.70E-06,  avg # of iterations = 20.0

     negative rho (up, down):  6.937E-06 0.000E+00

     total cpu time spent up to now is        8.6 secs

     total energy              =     -34.18043674 Ry
     Harris-Foulkes estimate   =     -34.18047269 Ry
     estimated scf accuracy    <       0.00008545 Ry

     iteration # 14     ecut=    90.00 Ry     beta=0.70
     Davidson diagonalization with overlap
     ethr =  1.07E-06,  avg # of iterations =  9.0

     negative rho (up, down):  1.491E-06 0.000E+00

     total cpu time spent up to now is        8.9 secs

     total energy              =     -34.18044979 Ry
     Harris-Foulkes estimate   =     -34.18046482 Ry
     estimated scf accuracy    <       0.00002242 Ry

     iteration # 15     ecut=    90.00 Ry     beta=0.70
     Davidson diagonalization with overlap
     ethr =  2.80E-07,  avg # of iterations =  2.0

     total cpu time spent up to now is        9.1 secs

     total energy              =     -34.18046013 Ry
     Harris-Foulkes estimate   =     -34.18046101 Ry
     estimated scf accuracy    <       0.00001184 Ry

     iteration # 16     ecut=    90.00 Ry     beta=0.70
     Davidson diagonalization with overlap
     ethr =  1.48E-07,  avg # of iterations =  1.0

     total cpu time spent up to now is        9.3 secs

     total energy              =     -34.18045954 Ry
     Harris-Foulkes estimate   =     -34.18046035 Ry
     estimated scf accuracy    <       0.00000603 Ry

     iteration # 17     ecut=    90.00 Ry     beta=0.70
     Davidson diagonalization with overlap
     ethr =  7.54E-08,  avg # of iterations =  1.0

     total cpu time spent up to now is        9.5 secs

     total energy              =     -34.18045973 Ry
     Harris-Foulkes estimate   =     -34.18045991 Ry
     estimated scf accuracy    <       0.00000126 Ry

     iteration # 18     ecut=    90.00 Ry     beta=0.70
     Davidson diagonalization with overlap
     ethr =  1.58E-08,  avg # of iterations =  2.0

     total cpu time spent up to now is        9.7 secs

     total energy              =     -34.18045977 Ry
     Harris-Foulkes estimate   =     -34.18045985 Ry
     estimated scf accuracy    <       0.00000018 Ry

     iteration # 19     ecut=    90.00 Ry     beta=0.70
     Davidson diagonalization with overlap
     ethr =  2.19E-09,  avg # of iterations =  2.0

     total cpu time spent up to now is       10.0 secs

     total energy              =     -34.18045984 Ry
     Harris-Foulkes estimate   =     -34.18045984 Ry
     estimated scf accuracy    <       0.00000002 Ry

     iteration # 20     ecut=    90.00 Ry     beta=0.70
     Davidson diagonalization with overlap
     ethr =  2.80E-10,  avg # of iterations =  1.0

     total cpu time spent up to now is       10.1 secs

     End of self-consistent calculation

          k = 0.0000 0.0000 0.0000 (115313 PWs)   bands (ev):

   -25.1280 -12.2968  -9.5322  -7.0976  -0.9989   0.4052   0.7365   1.1162

     the Fermi energy is    -5.1047 ev

!    total energy              =     -34.18045983 Ry
     Harris-Foulkes estimate   =     -34.18045984 Ry
     estimated scf accuracy    <          4.1E-09 Ry

     The total energy is the sum of the following terms:

     one-electron contribution =     -63.47694027 Ry
     hartree contribution      =      33.15275843 Ry
     xc contribution           =      -8.33883398 Ry
     ewald contribution        =       4.48255598 Ry
     smearing contrib. (-TS)   =       0.00000000 Ry

     convergence has been achieved in  20 iterations

     Forces acting on atoms (Ry/au):

     atom    1 type  1   force =    -0.01908165    0.02238062    0.01949887
     atom    2 type  1   force =    -0.01639062    0.01499593   -0.00780731
     atom    3 type  2   force =     0.03547228   -0.03737654   -0.01169156

     Total force =     0.067762     Total SCF correction =     0.000112

     number of scf cycles    =   3
     number of bfgs steps    =   2

     energy   old            =     -34.1679738443 Ry
     energy   new            =     -34.1804598337 Ry

     CASE: energy  _new < energy  _old

     new trust radius        =       0.0756300742 bohr
     new conv_thr            =       0.0000000037 Ry


ATOMIC_POSITIONS (angstrom)
H        0.689020869  -0.665794699   0.191452020
H       -0.150498540  -0.012768946  -0.920779363
O       -0.008439330   0.007581645   0.053108343



     Writing output data file pwscf.save
     Check: negative starting charge=   -0.016013
     NEW-OLD atomic charge density approx. for the potential
     Check: negative starting charge=   -0.015993

     negative rho (up, down):  1.251E-02 0.000E+00

     total cpu time spent up to now is       10.7 secs

     per-process dynamical memory:    45.8 Mb

     Self-consistent Calculation

     iteration #  1     ecut=    90.00 Ry     beta=0.70
     Davidson diagonalization with overlap
     c_bands:  1 eigenvalues not converged
     ethr =  1.00E-06,  avg # of iterations = 20.0

     negative rho (up, down):  3.296E-03 0.000E+00

     total cpu time spent up to now is       11.2 secs

     total energy              =     -34.17669887 Ry
     Harris-Foulkes estimate   =     -34.16633439 Ry
     estimated scf accuracy    <       0.00110432 Ry

     iteration #  2     ecut=    90.00 Ry     beta=0.70
     Davidson diagonalization with overlap
     ethr =  1.38E-05,  avg # of iterations = 11.0

     negative rho (up, down):  1.876E-03 0.000E+00

     total cpu time spent up to now is       11.5 secs

     total energy              =     -34.17876913 Ry
     Harris-Foulkes estimate   =     -34.17730956 Ry
     estimated scf accuracy    <       0.00072755 Ry

     iteration #  3     ecut=    90.00 Ry     beta=0.70
     Davidson diagonalization with overlap
     c_bands:  1 eigenvalues not converged
     ethr =  9.09E-06,  avg # of iterations = 20.0

     negative rho (up, down):  2.370E-04 0.000E+00

     total cpu time spent up to now is       11.8 secs

     total energy              =     -34.17950997 Ry
     Harris-Foulkes estimate   =     -34.17895612 Ry
     estimated scf accuracy    <       0.00004022 Ry

     iteration #  4     ecut=    90.00 Ry     beta=0.70
     Davidson diagonalization with overlap
     c_bands:  1 eigenvalues not converged
     ethr =  5.03E-07,  avg # of iterations = 20.0

     negative rho (up, down):  1.357E-05 0.000E+00

     total cpu time spent up to now is       12.1 secs

     total energy              =     -34.18359964 Ry
     Harris-Foulkes estimate   =     -34.18360047 Ry
     estimated scf accuracy    <       0.00000072 Ry

     iteration #  5     ecut=    90.00 Ry     beta=0.70
     Davidson diagonalization with overlap
     c_bands:  1 eigenvalues not converged
     ethr =  8.94E-09,  avg # of iterations = 20.0

     total cpu time spent up to now is       12.4 secs

     total energy              =     -34.18359910 Ry
     Harris-Foulkes estimate   =     -34.18359990 Ry
     estimated scf accuracy    <       0.00000003 Ry

     iteration #  6     ecut=    90.00 Ry     beta=0.70
     Davidson diagonalization with overlap
     ethr =  3.45E-10,  avg # of iterations =  2.0

     total cpu time spent up to now is       12.6 secs

     End of self-consistent calculation

          k = 0.0000 0.0000 0.0000 (115313 PWs)   bands (ev):

   -25.0937 -12.7287  -9.1866  -7.0788  -0.9489   0.4248   0.7390   1.1232

     the Fermi energy is    -5.0909 ev

!    total energy              =     -34.18359912 Ry
     Harris-Foulkes estimate   =     -34.18359912 Ry
     estimated scf accuracy    <          9.2E-10 Ry

     The total energy is the sum of the following terms:

     one-electron contribution =     -63.64143636 Ry
     hartree contribution      =      33.24208485 Ry
     xc contribution           =      -8.35378253 Ry
     ewald contribution        =       4.56953491 Ry
     smearing contrib. (-TS)   =       0.00000000 Ry

     convergence has been achieved in   6 iterations

     Forces acting on atoms (Ry/au):

     atom    1 type  1   force =     0.00268540   -0.00229893    0.00133859
     atom    2 type  1   force =     0.00046421    0.00064289    0.00616921
     atom    3 type  2   force =    -0.00314961    0.00165605   -0.00750781

     Total force =     0.011046     Total SCF correction =     0.000081

     number of scf cycles    =   4
     number of bfgs steps    =   3

     energy   old            =     -34.1804598337 Ry
     energy   new            =     -34.1835991179 Ry

     CASE: energy  _new < energy  _old

     new trust radius        =       0.0086302836 bohr
     new conv_thr            =       0.0000000008 Ry


ATOMIC_POSITIONS (angstrom)
H        0.690226262  -0.666612160   0.193224456
H       -0.151097173  -0.011669631  -0.918034120
O       -0.009046089   0.007299790   0.048590664



     Writing output data file pwscf.save
     Check: negative starting charge=   -0.015993
     NEW-OLD atomic charge density approx. for the potential
     Check: negative starting charge=   -0.015995

     negative rho (up, down):  1.330E-03 0.000E+00

     total cpu time spent up to now is       13.2 secs

     per-process dynamical memory:    45.8 Mb

     Self-consistent Calculation

     iteration #  1     ecut=    90.00 Ry     beta=0.70
     Davidson diagonalization with overlap
     ethr =  1.00E-06,  avg # of iterations =  7.0

     negative rho (up, down):  3.348E-04 0.000E+00

     total cpu time spent up to now is       13.8 secs

     total energy              =     -34.18358675 Ry
     Harris-Foulkes estimate   =     -34.18342671 Ry
     estimated scf accuracy    <       0.00003367 Ry

     iteration #  2     ecut=    90.00 Ry     beta=0.70
     Davidson diagonalization with overlap
     ethr =  4.21E-07,  avg # of iterations =  5.0

     negative rho (up, down):  1.794E-04 0.000E+00

     total cpu time spent up to now is       14.0 secs

     total energy              =     -34.18359745 Ry
     Harris-Foulkes estimate   =     -34.18360480 Ry
     estimated scf accuracy    <       0.00001961 Ry

     iteration #  3     ecut=    90.00 Ry     beta=0.70
     Davidson diagonalization with overlap
     ethr =  2.45E-07,  avg # of iterations =  2.0

     negative rho (up, down):  3.933E-05 0.000E+00

     total cpu time spent up to now is       14.2 secs

     total energy              =     -34.18360204 Ry
     Harris-Foulkes estimate   =     -34.18360275 Ry
     estimated scf accuracy    <       0.00000107 Ry

     iteration #  4     ecut=    90.00 Ry     beta=0.70
     Davidson diagonalization with overlap
     ethr =  1.34E-08,  avg # of iterations =  3.0

     negative rho (up, down):  4.441E-07 0.000E+00

     total cpu time spent up to now is       14.4 secs

     total energy              =     -34.18360206 Ry
     Harris-Foulkes estimate   =     -34.18360233 Ry
     estimated scf accuracy    <       0.00000002 Ry

     iteration #  5     ecut=    90.00 Ry     beta=0.70
     Davidson diagonalization with overlap
     ethr =  2.68E-10,  avg # of iterations =  2.0

     total cpu time spent up to now is       14.5 secs

     End of self-consistent calculation

          k = 0.0000 0.0000 0.0000 (115313 PWs)   bands (ev):

   -25.1109 -12.7715  -9.1679  -7.0811  -0.9410   0.4279   0.7433   1.1237

     the Fermi energy is    -5.0948 ev

!    total energy              =     -34.18360206 Ry
     Harris-Foulkes estimate   =     -34.18360209 Ry
     estimated scf accuracy    <          7.4E-10 Ry

     The total energy is the sum of the following terms:

     one-electron contribution =     -63.69248271 Ry
     hartree contribution      =      33.26714672 Ry
     xc contribution           =      -8.35788268 Ry
     ewald contribution        =       4.59961661 Ry
     smearing contrib. (-TS)   =       0.00000000 Ry

     convergence has been achieved in   5 iterations

     Forces acting on atoms (Ry/au):

     atom    1 type  1   force =    -0.00128515    0.00126161   -0.00062457
     atom    2 type  1   force =    -0.00079315   -0.00041038   -0.00722599
     atom    3 type  2   force =     0.00207830   -0.00085122    0.00785056

     Total force =     0.011105     Total SCF correction =     0.000494

     number of scf cycles    =   5
     number of bfgs steps    =   4

     energy   old            =     -34.1835991179 Ry
     energy   new            =     -34.1836020561 Ry

     CASE: energy  _new < energy  _old

     new trust radius        =       0.0040944444 bohr
     new conv_thr            =            1.0E-10 Ry


ATOMIC_POSITIONS (angstrom)
H        0.689982063  -0.666416624   0.192803037
H       -0.151087949  -0.011966235  -0.919764236
O       -0.008811114   0.007400859   0.050742199



     Writing output data file pwscf.save
     Check: negative starting charge=   -0.015995
     NEW-OLD atomic charge density approx. for the potential
     Check: negative starting charge=   -0.015994

     negative rho (up, down):  5.719E-04 0.000E+00

     total cpu time spent up to now is       15.1 secs

     per-process dynamical memory:    45.8 Mb

     Self-consistent Calculation

     iteration #  1     ecut=    90.00 Ry     beta=0.70
     Davidson diagonalization with overlap
     ethr =  1.00E-06,  avg # of iterations =  4.0

     negative rho (up, down):  1.360E-04 0.000E+00

     total cpu time spent up to now is       15.4 secs

     total energy              =     -34.18362221 Ry
     Harris-Foulkes estimate   =     -34.18362334 Ry
     estimated scf accuracy    <       0.00001004 Ry

     iteration #  2     ecut=    90.00 Ry     beta=0.70
     Davidson diagonalization with overlap
     ethr =  1.25E-07,  avg # of iterations =  3.0

     negative rho (up, down):  7.250E-05 0.000E+00

     total cpu time spent up to now is       15.6 secs

     total energy              =     -34.18362549 Ry
     Harris-Foulkes estimate   =     -34.18362805 Ry
     estimated scf accuracy    <       0.00000704 Ry

     iteration #  3     ecut=    90.00 Ry     beta=0.70
     Davidson diagonalization with overlap
     ethr =  8.80E-08,  avg # of iterations =  2.0

     negative rho (up, down):  1.229E-05 0.000E+00

     total cpu time spent up to now is       15.8 secs

     total energy              =     -34.18362885 Ry
     Harris-Foulkes estimate   =     -34.18362725 Ry
     estimated scf accuracy    <       0.00000024 Ry

     iteration #  4     ecut=    90.00 Ry     beta=0.70
     Davidson diagonalization with overlap
     ethr =  2.95E-09,  avg # of iterations =  2.0

     negative rho (up, down):  1.441E-07 0.000E+00

     total cpu time spent up to now is       16.0 secs

     total energy              =     -34.18362926 Ry
     Harris-Foulkes estimate   =     -34.18362893 Ry
     estimated scf accuracy    <          5.1E-09 Ry

     iteration #  5     ecut=    90.00 Ry     beta=0.70
     Davidson diagonalization with overlap
     ethr =  6.41E-11,  avg # of iterations =  3.0

     total cpu time spent up to now is       16.2 secs

     total energy              =     -34.18362930 Ry
     Harris-Foulkes estimate   =     -34.18362927 Ry
     estimated scf accuracy    <          3.0E-10 Ry

     iteration #  6     ecut=    90.00 Ry     beta=0.70
     Davidson diagonalization with overlap
     ethr =  3.72E-12,  avg # of iterations =  2.0

     total cpu time spent up to now is       16.4 secs

     End of self-consistent calculation

          k = 0.0000 0.0000 0.0000 (115313 PWs)   bands (ev):

   -25.0971 -12.7490  -9.1741  -7.0789  -0.9459   0.4259   0.7402   1.1233

     the Fermi energy is    -5.0916 ev

!    total energy              =     -34.18362931 Ry
     Harris-Foulkes estimate   =     -34.18362930 Ry
     estimated scf accuracy    <          1.5E-11 Ry

     The total energy is the sum of the following terms:

     one-electron contribution =     -63.65770162 Ry
     hartree contribution      =      33.25032535 Ry
     xc contribution           =      -8.35512949 Ry
     ewald contribution        =       4.57887645 Ry
     smearing contrib. (-TS)   =       0.00000000 Ry

     convergence has been achieved in   6 iterations

     Forces acting on atoms (Ry/au):

     atom    1 type  1   force =    -0.00000485    0.00013842    0.00013375
     atom    2 type  1   force =     0.00007927   -0.00001697    0.00020303
     atom    3 type  2   force =    -0.00007442   -0.00012145   -0.00033678

     Total force =     0.000468     Total SCF correction =     0.000048
     SCF correction compared to forces is large: reduce conv_thr to get better values

     bfgs converged in   6 scf cycles and   5 bfgs steps
     (criteria: energy <  1.0E-04, force <  1.0E-03)

     End of BFGS Geometry Optimization

     Final energy   =     -34.1836293081 Ry
Begin final coordinates

ATOMIC_POSITIONS (angstrom)
H        0.689982063  -0.666416624   0.192803037
H       -0.151087949  -0.011966235  -0.919764236
O       -0.008811114   0.007400859   0.050742199
End final coordinates



     Writing output data file pwscf.save
 
     init_run     :      0.51s CPU      0.55s WALL (       1 calls)
     electrons    :     11.54s CPU     13.57s WALL (       6 calls)
     update_pot   :      1.24s CPU      1.50s WALL (       5 calls)
     forces       :      0.40s CPU      0.41s WALL (       6 calls)

     Called by init_run:
     wfcinit      :      0.03s CPU      0.04s WALL (       1 calls)
     potinit      :      0.11s CPU      0.11s WALL (       1 calls)

     Called by electrons:
     c_bands      :      5.65s CPU      5.85s WALL (      51 calls)
     sum_band     :      1.07s CPU      1.11s WALL (      51 calls)
     v_of_rho     :      2.92s CPU      3.04s WALL (      57 calls)
     mix_rho      :      1.41s CPU      2.54s WALL (      51 calls)

     Called by c_bands:
     init_us_2    :      0.03s CPU      0.03s WALL (     103 calls)
     cegterg      :      5.62s CPU      5.80s WALL (      51 calls)

     Called by sum_band:

     Called by *egterg:
     h_psi        :      4.80s CPU      4.97s WALL (     385 calls)
     g_psi        :      0.04s CPU      0.04s WALL (     333 calls)
     cdiaghg      :      0.09s CPU      0.09s WALL (     379 calls)

     Called by h_psi:
     h_psi:pot    :      4.75s CPU      4.92s WALL (     385 calls)
     h_psi:calbec :      0.09s CPU      0.09s WALL (     385 calls)
     vloc_psi     :      4.63s CPU      4.79s WALL (     385 calls)
     add_vuspsi   :      0.03s CPU      0.03s WALL (     385 calls)

     General routines
     calbec       :      0.09s CPU      0.10s WALL (     409 calls)
     fft          :      2.05s CPU      2.19s WALL (     638 calls)
     fftw         :      4.61s CPU      4.78s WALL (    3468 calls)
     davcio       :      0.20s CPU      1.14s WALL (     521 calls)
 
     Parallel routines
     fft_scatter  :      2.52s CPU      2.81s WALL (    4106 calls)
 
     PWSCF        :    14.22s CPU        16.96s WALL

 
   This run was terminated on:   2:41:39  28Jul2018            

=------------------------------------------------------------------------------=
   JOB DONE.
=------------------------------------------------------------------------------=
