
     Program PWSCF v.6.0 (svn rev. 13079) starts on 28Jul2018 at  2:41:43 

     This program is part of the open-source Quantum ESPRESSO suite
     for quantum simulation of materials; please cite
         "P. Giannozzi et al., J. Phys.:Condens. Matter 21 395502 (2009);
          URL http://www.quantum-espresso.org", 
     in publications or presentations arising from this work. More details at
     http://www.quantum-espresso.org/quote

     Parallel version (MPI), running on    28 processors
     R & G space division:  proc/nbgrp/npool/nimage =      28
     Reading input from ../QMCmins/relax-73.in

     Current dimensions of program PWSCF are:
     Max number of different atomic species (ntypx) = 10
     Max number of k-points (npk) =  40000
     Max angular momentum in pseudopotentials (lmaxx) =  3
     Message from routine iosys:
     pot_extrapolation='second-order' not available, using 'atomic'
     Message from routine iosys:
     wfc_extrapolation='second-order' not available, using 'atomic'

     Subspace diagonalization in iterative solution of the eigenvalue problem:
     a serial algorithm will be used

 
     Parallelization info
     --------------------
     sticks:   dense  smooth     PW     G-vecs:    dense   smooth      PW
     Min         408     408    102                32936    32936    4116
     Max         409     409    103                32943    32943    4121
     Sum       11449   11449   2869               922329   922329  115313
 


     bravais-lattice index     =            1
     lattice parameter (alat)  =      20.0000  a.u.
     unit-cell volume          =    8000.0000 (a.u.)^3
     number of atoms/cell      =            3
     number of atomic types    =            2
     number of electrons       =         8.00
     number of Kohn-Sham states=            8
     kinetic-energy cutoff     =      90.0000  Ry
     charge density cutoff     =     360.0000  Ry
     convergence threshold     =      1.0E-08
     mixing beta               =       0.7000
     number of iterations used =            8  plain     mixing
     Exchange-correlation      = BLYP ( 1  3  1  3 0 0)
     nstep                     =           50


     celldm(1)=  20.000000  celldm(2)=   0.000000  celldm(3)=   0.000000
     celldm(4)=   0.000000  celldm(5)=   0.000000  celldm(6)=   0.000000

     crystal axes: (cart. coord. in units of alat)
               a(1) = (   1.000000   0.000000   0.000000 )  
               a(2) = (   0.000000   1.000000   0.000000 )  
               a(3) = (   0.000000   0.000000   1.000000 )  

     reciprocal axes: (cart. coord. in units 2 pi/alat)
               b(1) = (  1.000000  0.000000  0.000000 )  
               b(2) = (  0.000000  1.000000  0.000000 )  
               b(3) = (  0.000000  0.000000  1.000000 )  


     PseudoPot. # 1 for  H read from file:
     ../H.blyp-hgh.UPF
     MD5 check sum: c576e69559cde411e611be972c763230
     Pseudo is Norm-conserving, Zval =  1.0
     Generated in analytical, separable form
     Using radial grid of  929 points,  0 beta functions with: 

     PseudoPot. # 2 for  O read from file:
     ../O.blyp-hgh.UPF
     MD5 check sum: d0b7156309aa9befef28faac7bc56342
     Pseudo is Norm-conserving, Zval =  6.0
     Generated in analytical, separable form
     Using radial grid of 1095 points,  1 beta functions with: 
                l(1) =   0

     atomic species   valence    mass     pseudopotential
        H              1.00     1.01000      H( 1.00)
        O              6.00    16.00000      O( 1.00)

     No symmetry found



   Cartesian axes

     site n.     atom                  positions (alat units)
         1           H   tau(   1) = (   0.0044209  -0.0335789  -0.0731118  )
         2           H   tau(   2) = (   0.0357657   0.0810276  -0.0170037  )
         3           O   tau(   3) = (  -0.0025368  -0.0029952   0.0112665  )

     number of k points=     1  Marzari-Vanderbilt smearing, width (Ry)=  0.0250
                       cart. coord. in units 2pi/alat
        k(    1) = (   0.0000000   0.0000000   0.0000000), wk =   2.0000000

     Dense  grid:   922329 G-vectors     FFT dimensions: ( 125, 125, 125)

     Estimated max dynamical RAM per process >      31.67Mb

     Estimated total allocated dynamical RAM >     886.64Mb

     Initial potential from superposition of free atoms
     Check: negative starting charge=   -0.016039

     starting charge    7.99998, renormalised to    8.00000

     negative rho (up, down):  1.604E-02 0.000E+00
     Starting wfc are    6 randomized atomic wfcs +    2 random wfc

     total cpu time spent up to now is        0.7 secs

     per-process dynamical memory:    33.5 Mb

     Self-consistent Calculation

     iteration #  1     ecut=    90.00 Ry     beta=0.70
     Davidson diagonalization with overlap
     ethr =  1.00E-02,  avg # of iterations =  8.0

     negative rho (up, down):  4.674E-03 0.000E+00

     total cpu time spent up to now is        1.0 secs

     total energy              =     -34.02876634 Ry
     Harris-Foulkes estimate   =     -34.25412623 Ry
     estimated scf accuracy    <       0.34138871 Ry

     iteration #  2     ecut=    90.00 Ry     beta=0.70
     Davidson diagonalization with overlap
     ethr =  4.27E-03,  avg # of iterations =  2.0

     negative rho (up, down):  2.897E-03 0.000E+00

     total cpu time spent up to now is        1.1 secs

     total energy              =     -34.07943071 Ry
     Harris-Foulkes estimate   =     -34.26156913 Ry
     estimated scf accuracy    <       0.39533166 Ry

     iteration #  3     ecut=    90.00 Ry     beta=0.70
     Davidson diagonalization with overlap
     ethr =  4.27E-03,  avg # of iterations =  2.0

     negative rho (up, down):  1.483E-04 0.000E+00

     total cpu time spent up to now is        1.3 secs

     total energy              =     -34.16776089 Ry
     Harris-Foulkes estimate   =     -34.16856031 Ry
     estimated scf accuracy    <       0.00595390 Ry

     iteration #  4     ecut=    90.00 Ry     beta=0.70
     Davidson diagonalization with overlap
     ethr =  7.44E-05,  avg # of iterations =  6.0

     negative rho (up, down):  1.757E-05 0.000E+00

     total cpu time spent up to now is        1.6 secs

     total energy              =     -34.16943905 Ry
     Harris-Foulkes estimate   =     -34.16956075 Ry
     estimated scf accuracy    <       0.00031796 Ry

     iteration #  5     ecut=    90.00 Ry     beta=0.70
     Davidson diagonalization with overlap
     c_bands:  1 eigenvalues not converged
     ethr =  3.97E-06,  avg # of iterations = 20.0

     negative rho (up, down):  2.865E-08 0.000E+00

     total cpu time spent up to now is        2.0 secs

     total energy              =     -34.16946378 Ry
     Harris-Foulkes estimate   =     -34.16946693 Ry
     estimated scf accuracy    <       0.00001647 Ry

     iteration #  6     ecut=    90.00 Ry     beta=0.70
     Davidson diagonalization with overlap
     ethr =  2.06E-07,  avg # of iterations = 10.0

     negative rho (up, down):  2.195E-07 0.000E+00

     total cpu time spent up to now is        2.3 secs

     total energy              =     -34.16946560 Ry
     Harris-Foulkes estimate   =     -34.16946542 Ry
     estimated scf accuracy    <       0.00000209 Ry

     iteration #  7     ecut=    90.00 Ry     beta=0.70
     Davidson diagonalization with overlap
     ethr =  2.61E-08,  avg # of iterations =  2.0

     total cpu time spent up to now is        2.5 secs

     total energy              =     -34.16946562 Ry
     Harris-Foulkes estimate   =     -34.16946580 Ry
     estimated scf accuracy    <       0.00000005 Ry

     iteration #  8     ecut=    90.00 Ry     beta=0.70
     Davidson diagonalization with overlap
     ethr =  5.93E-10,  avg # of iterations =  3.0

     total cpu time spent up to now is        2.7 secs

     End of self-consistent calculation

          k = 0.0000 0.0000 0.0000 (115313 PWs)   bands (ev):

   -25.3274 -11.9728  -9.8810  -7.1395  -1.0382   0.3844   0.7736   1.1126

     the Fermi energy is    -5.1573 ev

!    total energy              =     -34.16946545 Ry
     Harris-Foulkes estimate   =     -34.16946564 Ry
     estimated scf accuracy    <          8.1E-09 Ry

     The total energy is the sum of the following terms:

     one-electron contribution =     -63.61597493 Ry
     hartree contribution      =      33.20839867 Ry
     xc contribution           =      -8.34739701 Ry
     ewald contribution        =       4.58550782 Ry
     smearing contrib. (-TS)   =       0.00000000 Ry

     convergence has been achieved in   8 iterations

     Forces acting on atoms (Ry/au):

     atom    1 type  1   force =    -0.01260797   -0.06636073   -0.05756396
     atom    2 type  1   force =    -0.02330734   -0.02905106    0.05569760
     atom    3 type  2   force =     0.03591531    0.09541178    0.00186635

     Total force =     0.150873     Total SCF correction =     0.000195

     BFGS Geometry Optimization

     number of scf cycles    =   1
     number of bfgs steps    =   0

     energy   new            =     -34.1694654534 Ry

     new trust radius        =       0.1019647072 bohr
     new conv_thr            =       0.0000000100 Ry


ATOMIC_POSITIONS (angstrom)
H        0.040117151  -0.390500584  -0.804243535
H        0.366194284   0.842185843  -0.150485097
O       -0.007842435   0.018789741   0.120227632



     Writing output data file pwscf.save
     Check: negative starting charge=   -0.016039
     NEW-OLD atomic charge density approx. for the potential
     Check: negative starting charge=   -0.016050

     negative rho (up, down):  1.799E-02 0.000E+00

     total cpu time spent up to now is        3.4 secs

     per-process dynamical memory:    45.8 Mb

     Self-consistent Calculation

     iteration #  1     ecut=    90.00 Ry     beta=0.70
     Davidson diagonalization with overlap
     ethr =  1.00E-06,  avg # of iterations = 19.0

     negative rho (up, down):  4.777E-03 0.000E+00

     total cpu time spent up to now is        3.8 secs

     total energy              =     -34.16495132 Ry
     Harris-Foulkes estimate   =     -34.15007634 Ry
     estimated scf accuracy    <       0.00355362 Ry

     iteration #  2     ecut=    90.00 Ry     beta=0.70
     Davidson diagonalization with overlap
     ethr =  4.44E-05,  avg # of iterations =  6.0

     negative rho (up, down):  2.254E-03 0.000E+00

     total cpu time spent up to now is        4.1 secs

     total energy              =     -34.16928363 Ry
     Harris-Foulkes estimate   =     -34.16622655 Ry
     estimated scf accuracy    <       0.00101189 Ry

     iteration #  3     ecut=    90.00 Ry     beta=0.70
     Davidson diagonalization with overlap
     ethr =  1.26E-05,  avg # of iterations =  6.0

     negative rho (up, down):  7.799E-04 0.000E+00

     total cpu time spent up to now is        4.3 secs

     total energy              =     -34.17057150 Ry
     Harris-Foulkes estimate   =     -34.16964060 Ry
     estimated scf accuracy    <       0.00020975 Ry

     iteration #  4     ecut=    90.00 Ry     beta=0.70
     Davidson diagonalization with overlap
     c_bands:  1 eigenvalues not converged
     ethr =  2.62E-06,  avg # of iterations = 20.0

     negative rho (up, down):  3.620E-05 0.000E+00

     total cpu time spent up to now is        4.7 secs

     total energy              =     -34.17472392 Ry
     Harris-Foulkes estimate   =     -34.17470414 Ry
     estimated scf accuracy    <       0.00000817 Ry

     iteration #  5     ecut=    90.00 Ry     beta=0.70
     Davidson diagonalization with overlap
     ethr =  1.02E-07,  avg # of iterations = 19.0

     negative rho (up, down):  7.653E-07 0.000E+00

     total cpu time spent up to now is        5.0 secs

     total energy              =     -34.17472570 Ry
     Harris-Foulkes estimate   =     -34.17472624 Ry
     estimated scf accuracy    <       0.00000009 Ry

     iteration #  6     ecut=    90.00 Ry     beta=0.70
     Davidson diagonalization with overlap
     ethr =  1.08E-09,  avg # of iterations =  2.0

     total cpu time spent up to now is        5.1 secs

     End of self-consistent calculation

          k = 0.0000 0.0000 0.0000 (115313 PWs)   bands (ev):

   -25.3335 -12.3019  -9.6518  -7.1328  -0.9841   0.4028   0.7832   1.1163

     the Fermi energy is    -5.1560 ev

!    total energy              =     -34.17472556 Ry
     Harris-Foulkes estimate   =     -34.17472574 Ry
     estimated scf accuracy    <          6.3E-09 Ry

     The total energy is the sum of the following terms:

     one-electron contribution =     -63.79973389 Ry
     hartree contribution      =      33.30358206 Ry
     xc contribution           =      -8.36374824 Ry
     ewald contribution        =       4.68517451 Ry
     smearing contrib. (-TS)   =       0.00000000 Ry

     convergence has been achieved in   6 iterations

     Forces acting on atoms (Ry/au):

     atom    1 type  1   force =    -0.01395957   -0.00787565    0.04956415
     atom    2 type  1   force =     0.03315676    0.08899758    0.00396269
     atom    3 type  2   force =    -0.01919719   -0.08112193   -0.05352684

     Total force =     0.146845     Total SCF correction =     0.000260

     number of scf cycles    =   2
     number of bfgs steps    =   1

     energy   old            =     -34.1694654534 Ry
     energy   new            =     -34.1747255598 Ry

     CASE: energy  _new < energy  _old

     new trust radius        =       0.0533728536 bohr
     new conv_thr            =       0.0000000053 Ry


ATOMIC_POSITIONS (angstrom)
H        0.034026345  -0.400960122  -0.794747997
H        0.374348422   0.868044946  -0.142577932
O       -0.009905767   0.003390176   0.102824928



     Writing output data file pwscf.save
     Check: negative starting charge=   -0.016050
     NEW-OLD atomic charge density approx. for the potential
     Check: negative starting charge=   -0.016041

     negative rho (up, down):  7.937E-03 0.000E+00

     total cpu time spent up to now is        5.7 secs

     per-process dynamical memory:    45.8 Mb

     Self-consistent Calculation

     iteration #  1     ecut=    90.00 Ry     beta=0.70
     Davidson diagonalization with overlap
     ethr =  1.00E-06,  avg # of iterations = 15.0

     negative rho (up, down):  8.254E-04 0.000E+00

     total cpu time spent up to now is        6.1 secs

     total energy              =      55.35963385 Ry
     Harris-Foulkes estimate   =    -421.25320527 Ry
     estimated scf accuracy    <       7.08556622 Ry

     iteration #  2     ecut=    90.00 Ry     beta=0.70
     Davidson diagonalization with overlap
     ethr =  1.00E-02,  avg # of iterations =  3.0

     total cpu time spent up to now is        6.3 secs

     total energy              =     -32.64835839 Ry
     Harris-Foulkes estimate   =     -38.22099723 Ry
     estimated scf accuracy    <      12.16766192 Ry

     iteration #  3     ecut=    90.00 Ry     beta=0.70
     Davidson diagonalization with overlap
     ethr =  1.00E-02,  avg # of iterations =  3.0

     total cpu time spent up to now is        6.5 secs

     total energy              =     -34.48695786 Ry
     Harris-Foulkes estimate   =     -35.05639003 Ry
     estimated scf accuracy    <       1.80612387 Ry

     iteration #  4     ecut=    90.00 Ry     beta=0.70
     Davidson diagonalization with overlap
     ethr =  1.00E-02,  avg # of iterations =  1.0

     total cpu time spent up to now is        6.7 secs

     total energy              =     -34.44659892 Ry
     Harris-Foulkes estimate   =     -34.52511966 Ry
     estimated scf accuracy    <       0.93570098 Ry

     iteration #  5     ecut=    90.00 Ry     beta=0.70
     Davidson diagonalization with overlap
     ethr =  1.00E-02,  avg # of iterations =  1.0

     total cpu time spent up to now is        6.9 secs

     total energy              =     -34.27573168 Ry
     Harris-Foulkes estimate   =     -34.44767318 Ry
     estimated scf accuracy    <       0.81445412 Ry

     iteration #  6     ecut=    90.00 Ry     beta=0.70
     Davidson diagonalization with overlap
     ethr =  1.00E-02,  avg # of iterations =  1.0

     negative rho (up, down):  1.089E-02 0.000E+00

     total cpu time spent up to now is        7.3 secs

     total energy              =     -34.13234338 Ry
     Harris-Foulkes estimate   =     -34.27873509 Ry
     estimated scf accuracy    <       0.49813676 Ry

     iteration #  7     ecut=    90.00 Ry     beta=0.70
     Davidson diagonalization with overlap
     ethr =  6.23E-03,  avg # of iterations =  1.0

     negative rho (up, down):  1.359E-08 0.000E+00

     total cpu time spent up to now is        7.5 secs

     total energy              =     -34.14663720 Ry
     Harris-Foulkes estimate   =     -34.13631849 Ry
     estimated scf accuracy    <       0.16345053 Ry

     iteration #  8     ecut=    90.00 Ry     beta=0.70
     Davidson diagonalization with overlap
     ethr =  2.04E-03,  avg # of iterations =  1.0

     negative rho (up, down):  3.561E-03 0.000E+00

     total cpu time spent up to now is        7.7 secs

     total energy              =     -34.13267508 Ry
     Harris-Foulkes estimate   =     -34.14707641 Ry
     estimated scf accuracy    <       0.17905847 Ry

     iteration #  9     ecut=    90.00 Ry     beta=0.70
     Davidson diagonalization with overlap
     ethr =  2.04E-03,  avg # of iterations =  1.0

     negative rho (up, down):  9.465E-03 0.000E+00

     total cpu time spent up to now is        7.9 secs

     total energy              =     -34.13901595 Ry
     Harris-Foulkes estimate   =     -34.13310581 Ry
     estimated scf accuracy    <       0.12090796 Ry

     iteration # 10     ecut=    90.00 Ry     beta=0.70
     Davidson diagonalization with overlap
     ethr =  1.51E-03,  avg # of iterations =  1.0

     negative rho (up, down):  1.367E-02 0.000E+00

     total cpu time spent up to now is        8.1 secs

     total energy              =     -34.17562539 Ry
     Harris-Foulkes estimate   =     -34.14203318 Ry
     estimated scf accuracy    <       0.02584722 Ry

     iteration # 11     ecut=    90.00 Ry     beta=0.70
     Davidson diagonalization with overlap
     ethr =  3.23E-04,  avg # of iterations =  3.0

     negative rho (up, down):  8.631E-04 0.000E+00

     total cpu time spent up to now is        8.3 secs

     total energy              =     -34.17736039 Ry
     Harris-Foulkes estimate   =     -34.17751646 Ry
     estimated scf accuracy    <       0.00181378 Ry

     iteration # 12     ecut=    90.00 Ry     beta=0.70
     Davidson diagonalization with overlap
     ethr =  2.27E-05,  avg # of iterations = 12.0

     negative rho (up, down):  3.980E-04 0.000E+00

     total cpu time spent up to now is        8.6 secs

     total energy              =     -34.18126183 Ry
     Harris-Foulkes estimate   =     -34.18156287 Ry
     estimated scf accuracy    <       0.00114585 Ry

     iteration # 13     ecut=    90.00 Ry     beta=0.70
     Davidson diagonalization with overlap
     ethr =  1.43E-05,  avg # of iterations =  1.0

     negative rho (up, down):  2.698E-06 0.000E+00

     total cpu time spent up to now is        8.8 secs

     total energy              =     -34.18119896 Ry
     Harris-Foulkes estimate   =     -34.18133625 Ry
     estimated scf accuracy    <       0.00026293 Ry

     iteration # 14     ecut=    90.00 Ry     beta=0.70
     Davidson diagonalization with overlap
     c_bands:  1 eigenvalues not converged
     ethr =  3.29E-06,  avg # of iterations = 20.0

     negative rho (up, down):  4.068E-05 0.000E+00

     total cpu time spent up to now is        9.1 secs

     total energy              =     -34.18125218 Ry
     Harris-Foulkes estimate   =     -34.18133203 Ry
     estimated scf accuracy    <       0.00015311 Ry

     iteration # 15     ecut=    90.00 Ry     beta=0.70
     Davidson diagonalization with overlap
     ethr =  1.91E-06,  avg # of iterations = 11.0

     total cpu time spent up to now is        9.4 secs

     total energy              =     -34.18128833 Ry
     Harris-Foulkes estimate   =     -34.18128773 Ry
     estimated scf accuracy    <       0.00000642 Ry

     iteration # 16     ecut=    90.00 Ry     beta=0.70
     Davidson diagonalization with overlap
     ethr =  8.02E-08,  avg # of iterations =  1.0

     total cpu time spent up to now is        9.6 secs

     total energy              =     -34.18128864 Ry
     Harris-Foulkes estimate   =     -34.18128859 Ry
     estimated scf accuracy    <       0.00000347 Ry

     iteration # 17     ecut=    90.00 Ry     beta=0.70
     Davidson diagonalization with overlap
     ethr =  4.33E-08,  avg # of iterations =  1.0

     total cpu time spent up to now is        9.8 secs

     total energy              =     -34.18128856 Ry
     Harris-Foulkes estimate   =     -34.18128869 Ry
     estimated scf accuracy    <       0.00000196 Ry

     iteration # 18     ecut=    90.00 Ry     beta=0.70
     Davidson diagonalization with overlap
     ethr =  2.45E-08,  avg # of iterations =  2.0

     total cpu time spent up to now is       10.0 secs

     total energy              =     -34.18128811 Ry
     Harris-Foulkes estimate   =     -34.18128872 Ry
     estimated scf accuracy    <       0.00000244 Ry

     iteration # 19     ecut=    90.00 Ry     beta=0.70
     Davidson diagonalization with overlap
     ethr =  2.45E-08,  avg # of iterations =  2.0

     total cpu time spent up to now is       10.2 secs

     total energy              =     -34.18128834 Ry
     Harris-Foulkes estimate   =     -34.18128847 Ry
     estimated scf accuracy    <       0.00000004 Ry

     iteration # 20     ecut=    90.00 Ry     beta=0.70
     Davidson diagonalization with overlap
     ethr =  4.59E-10,  avg # of iterations =  2.0

     total cpu time spent up to now is       10.4 secs

     End of self-consistent calculation

          k = 0.0000 0.0000 0.0000 (115313 PWs)   bands (ev):

   -25.2197 -12.4098  -9.5150  -7.1115  -0.9687   0.4123   0.7638   1.1166

     the Fermi energy is    -5.1273 ev

!    total energy              =     -34.18128845 Ry
     Harris-Foulkes estimate   =     -34.18128835 Ry
     estimated scf accuracy    <          1.9E-09 Ry

     The total energy is the sum of the following terms:

     one-electron contribution =     -63.68827332 Ry
     hartree contribution      =      33.25411239 Ry
     xc contribution           =      -8.35534819 Ry
     ewald contribution        =       4.60822066 Ry
     smearing contrib. (-TS)   =       0.00000000 Ry

     convergence has been achieved in  20 iterations

     Forces acting on atoms (Ry/au):

     atom    1 type  1   force =    -0.01076512   -0.01702823    0.01001652
     atom    2 type  1   force =     0.00143016    0.01976089    0.01850563
     atom    3 type  2   force =     0.00933496   -0.00273266   -0.02852215

     Total force =     0.046361     Total SCF correction =     0.000147

     number of scf cycles    =   3
     number of bfgs steps    =   2

     energy   old            =     -34.1747255598 Ry
     energy   new            =     -34.1812884503 Ry

     CASE: energy  _new < energy  _old

     new trust radius        =       0.0581066619 bohr
     new conv_thr            =       0.0000000029 Ry


ATOMIC_POSITIONS (angstrom)
H        0.022589474  -0.423943781  -0.789512977
H        0.376155845   0.889390493  -0.120519267
O       -0.000276319   0.005028288   0.075531244



     Writing output data file pwscf.save
     Check: negative starting charge=   -0.016041
     NEW-OLD atomic charge density approx. for the potential
     Check: negative starting charge=   -0.016009

     negative rho (up, down):  9.832E-03 0.000E+00

     total cpu time spent up to now is       11.0 secs

     per-process dynamical memory:    45.8 Mb

     Self-consistent Calculation

     iteration #  1     ecut=    90.00 Ry     beta=0.70
     Davidson diagonalization with overlap
     c_bands:  1 eigenvalues not converged
     ethr =  1.00E-06,  avg # of iterations = 20.0

     negative rho (up, down):  2.584E-03 0.000E+00

     total cpu time spent up to now is       11.5 secs

     total energy              =     -34.17524112 Ry
     Harris-Foulkes estimate   =     -34.17664772 Ry
     estimated scf accuracy    <       0.00091622 Ry

     iteration #  2     ecut=    90.00 Ry     beta=0.70
     Davidson diagonalization with overlap
     ethr =  1.15E-05,  avg # of iterations = 17.0

     negative rho (up, down):  1.522E-03 0.000E+00

     total cpu time spent up to now is       11.8 secs

     total energy              =     -34.17863744 Ry
     Harris-Foulkes estimate   =     -34.17781040 Ry
     estimated scf accuracy    <       0.00069951 Ry

     iteration #  3     ecut=    90.00 Ry     beta=0.70
     Davidson diagonalization with overlap
     ethr =  8.74E-06,  avg # of iterations =  5.0

     negative rho (up, down):  3.594E-04 0.000E+00

     total cpu time spent up to now is       12.0 secs

     total energy              =     -34.17910686 Ry
     Harris-Foulkes estimate   =     -34.17880415 Ry
     estimated scf accuracy    <       0.00002303 Ry

     iteration #  4     ecut=    90.00 Ry     beta=0.70
     Davidson diagonalization with overlap
     c_bands:  1 eigenvalues not converged
     ethr =  2.88E-07,  avg # of iterations = 20.0

     negative rho (up, down):  3.967E-06 0.000E+00

     total cpu time spent up to now is       12.4 secs

     total energy              =     -34.18319537 Ry
     Harris-Foulkes estimate   =     -34.18319281 Ry
     estimated scf accuracy    <       0.00000082 Ry

     iteration #  5     ecut=    90.00 Ry     beta=0.70
     Davidson diagonalization with overlap
     ethr =  1.02E-08,  avg # of iterations = 10.0

     negative rho (up, down):  4.522E-08 0.000E+00

     total cpu time spent up to now is       12.6 secs

     total energy              =     -34.18319503 Ry
     Harris-Foulkes estimate   =     -34.18319565 Ry
     estimated scf accuracy    <       0.00000002 Ry

     iteration #  6     ecut=    90.00 Ry     beta=0.70
     Davidson diagonalization with overlap
     ethr =  2.12E-10,  avg # of iterations =  2.0

     total cpu time spent up to now is       12.8 secs

     End of self-consistent calculation

          k = 0.0000 0.0000 0.0000 (115313 PWs)   bands (ev):

   -25.2056 -12.7618  -9.2454  -7.0997  -0.9284   0.4308   0.7676   1.1225

     the Fermi energy is    -5.1193 ev

!    total energy              =     -34.18319502 Ry
     Harris-Foulkes estimate   =     -34.18319504 Ry
     estimated scf accuracy    <          5.3E-10 Ry

     The total energy is the sum of the following terms:

     one-electron contribution =     -63.84334973 Ry
     hartree contribution      =      33.33673696 Ry
     xc contribution           =      -8.36937794 Ry
     ewald contribution        =       4.69279569 Ry
     smearing contrib. (-TS)   =       0.00000000 Ry

     convergence has been achieved in   6 iterations

     Forces acting on atoms (Ry/au):

     atom    1 type  1   force =    -0.00167380   -0.01610578   -0.02971886
     atom    2 type  1   force =    -0.00060031    0.00397102    0.00100741
     atom    3 type  2   force =     0.00227411    0.01213476    0.02871145

     Total force =     0.046253     Total SCF correction =     0.000069

     number of scf cycles    =   4
     number of bfgs steps    =   3

     energy   old            =     -34.1812884503 Ry
     energy   new            =     -34.1831950232 Ry

     CASE: energy  _new < energy  _old

     new trust radius        =       0.0308196972 bohr
     new conv_thr            =       0.0000000019 Ry


ATOMIC_POSITIONS (angstrom)
H        0.018905459  -0.436232469  -0.799582849
H        0.377859742   0.899711660  -0.115457867
O        0.001703800   0.006995809   0.080539716



     Writing output data file pwscf.save
     Check: negative starting charge=   -0.016009
     NEW-OLD atomic charge density approx. for the potential
     Check: negative starting charge=   -0.016000

     negative rho (up, down):  1.718E-03 0.000E+00

     total cpu time spent up to now is       13.3 secs

     per-process dynamical memory:    45.8 Mb

     Self-consistent Calculation

     iteration #  1     ecut=    90.00 Ry     beta=0.70
     Davidson diagonalization with overlap
     ethr =  1.00E-06,  avg # of iterations = 13.0

     negative rho (up, down):  4.375E-04 0.000E+00

     total cpu time spent up to now is       13.7 secs

     total energy              =     -34.17941306 Ry
     Harris-Foulkes estimate   =     -34.17928993 Ry
     estimated scf accuracy    <       0.00043568 Ry

     iteration #  2     ecut=    90.00 Ry     beta=0.70
     Davidson diagonalization with overlap
     ethr =  5.45E-06,  avg # of iterations =  5.0

     negative rho (up, down):  2.622E-04 0.000E+00

     total cpu time spent up to now is       14.0 secs

     total energy              =     -34.18357347 Ry
     Harris-Foulkes estimate   =     -34.18377624 Ry
     estimated scf accuracy    <       0.00040886 Ry

     iteration #  3     ecut=    90.00 Ry     beta=0.70
     Davidson diagonalization with overlap
     ethr =  5.11E-06,  avg # of iterations =  2.0

     negative rho (up, down):  4.321E-05 0.000E+00

     total cpu time spent up to now is       14.2 secs

     total energy              =     -34.18366405 Ry
     Harris-Foulkes estimate   =     -34.18366306 Ry
     estimated scf accuracy    <       0.00000495 Ry

     iteration #  4     ecut=    90.00 Ry     beta=0.70
     Davidson diagonalization with overlap
     ethr =  6.18E-08,  avg # of iterations =  4.0

     negative rho (up, down):  1.891E-06 0.000E+00

     total cpu time spent up to now is       14.4 secs

     total energy              =     -34.18366576 Ry
     Harris-Foulkes estimate   =     -34.18366548 Ry
     estimated scf accuracy    <       0.00000011 Ry

     iteration #  5     ecut=    90.00 Ry     beta=0.70
     Davidson diagonalization with overlap
     ethr =  1.39E-09,  avg # of iterations =  2.0

     total cpu time spent up to now is       14.8 secs

     total energy              =     -34.18366582 Ry
     Harris-Foulkes estimate   =     -34.18366579 Ry
     estimated scf accuracy    <          5.2E-09 Ry

     iteration #  6     ecut=    90.00 Ry     beta=0.70
     Davidson diagonalization with overlap
     ethr =  6.47E-11,  avg # of iterations =  2.0

     total cpu time spent up to now is       14.9 secs

     End of self-consistent calculation

          k = 0.0000 0.0000 0.0000 (115313 PWs)   bands (ev):

   -25.0457 -12.6674  -9.1945  -7.0707  -0.9660   0.4195   0.7356   1.1209

     the Fermi energy is    -5.0806 ev

!    total energy              =     -34.18366586 Ry
     Harris-Foulkes estimate   =     -34.18366582 Ry
     estimated scf accuracy    <          3.3E-10 Ry

     The total energy is the sum of the following terms:

     one-electron contribution =     -63.52626728 Ry
     hartree contribution      =      33.18671841 Ry
     xc contribution           =      -8.34491191 Ry
     ewald contribution        =       4.50079493 Ry
     smearing contrib. (-TS)   =       0.00000000 Ry

     convergence has been achieved in   6 iterations

     Forces acting on atoms (Ry/au):

     atom    1 type  1   force =    -0.00005287    0.00535228    0.00454995
     atom    2 type  1   force =    -0.00449144   -0.00868537    0.00081772
     atom    3 type  2   force =     0.00454431    0.00333309   -0.00536767

     Total force =     0.014360     Total SCF correction =     0.000115

     number of scf cycles    =   5
     number of bfgs steps    =   4

     energy   old            =     -34.1831950232 Ry
     energy   new            =     -34.1836658597 Ry

     CASE: energy  _new < energy  _old

     new trust radius        =       0.0103768042 bohr
     new conv_thr            =       0.0000000005 Ry


ATOMIC_POSITIONS (angstrom)
H        0.019959547  -0.431644045  -0.797832576
H        0.376211222   0.894905765  -0.117540818
O        0.002298230   0.007213280   0.080872393



     Writing output data file pwscf.save
     Check: negative starting charge=   -0.016000
     NEW-OLD atomic charge density approx. for the potential
     Check: negative starting charge=   -0.016005

     negative rho (up, down):  1.649E-04 0.000E+00

     total cpu time spent up to now is       15.5 secs

     per-process dynamical memory:    45.8 Mb

     Self-consistent Calculation

     iteration #  1     ecut=    90.00 Ry     beta=0.70
     Davidson diagonalization with overlap
     ethr =  1.00E-06,  avg # of iterations =  4.0

     negative rho (up, down):  3.229E-05 0.000E+00

     total cpu time spent up to now is       15.8 secs

     total energy              =     -34.18372961 Ry
     Harris-Foulkes estimate   =     -34.18374938 Ry
     estimated scf accuracy    <       0.00003484 Ry

     iteration #  2     ecut=    90.00 Ry     beta=0.70
     Davidson diagonalization with overlap
     ethr =  4.36E-07,  avg # of iterations =  2.0

     negative rho (up, down):  1.583E-05 0.000E+00

     total cpu time spent up to now is       16.0 secs

     total energy              =     -34.18373703 Ry
     Harris-Foulkes estimate   =     -34.18375142 Ry
     estimated scf accuracy    <       0.00003116 Ry

     iteration #  3     ecut=    90.00 Ry     beta=0.70
     Davidson diagonalization with overlap
     ethr =  3.90E-07,  avg # of iterations =  2.0

     negative rho (up, down):  5.911E-07 0.000E+00

     total cpu time spent up to now is       16.2 secs

     total energy              =     -34.18374463 Ry
     Harris-Foulkes estimate   =     -34.18374401 Ry
     estimated scf accuracy    <       0.00000049 Ry

     iteration #  4     ecut=    90.00 Ry     beta=0.70
     Davidson diagonalization with overlap
     ethr =  6.12E-09,  avg # of iterations =  2.0

     total cpu time spent up to now is       16.4 secs

     total energy              =     -34.18374490 Ry
     Harris-Foulkes estimate   =     -34.18374475 Ry
     estimated scf accuracy    <          8.7E-09 Ry

     iteration #  5     ecut=    90.00 Ry     beta=0.70
     Davidson diagonalization with overlap
     ethr =  1.08E-10,  avg # of iterations =  2.0

     total cpu time spent up to now is       16.5 secs

     End of self-consistent calculation

          k = 0.0000 0.0000 0.0000 (115313 PWs)   bands (ev):

   -25.0959 -12.6854  -9.2199  -7.0803  -0.9547   0.4228   0.7462   1.1212

     the Fermi energy is    -5.0929 ev

!    total energy              =     -34.18374496 Ry
     Harris-Foulkes estimate   =     -34.18374490 Ry
     estimated scf accuracy    <          4.3E-10 Ry

     The total energy is the sum of the following terms:

     one-electron contribution =     -63.62130612 Ry
     hartree contribution      =      33.23135181 Ry
     xc contribution           =      -8.35218098 Ry
     ewald contribution        =       4.55839033 Ry
     smearing contrib. (-TS)   =       0.00000000 Ry

     convergence has been achieved in   5 iterations

     Forces acting on atoms (Ry/au):

     atom    1 type  1   force =    -0.00023096    0.00111101   -0.00028769
     atom    2 type  1   force =    -0.00071656    0.00020940    0.00069219
     atom    3 type  2   force =     0.00094752   -0.00132040   -0.00040450

     Total force =     0.002283     Total SCF correction =     0.000106

     number of scf cycles    =   6
     number of bfgs steps    =   5

     energy   old            =     -34.1836658597 Ry
     energy   new            =     -34.1837449582 Ry

     CASE: energy  _new < energy  _old

     new trust radius        =       0.0015575176 bohr
     new conv_thr            =            1.0E-10 Ry


ATOMIC_POSITIONS (angstrom)
H        0.019859753  -0.430992204  -0.798110676
H        0.375747958   0.894852409  -0.117198752
O        0.002861289   0.006614795   0.080808428



     Writing output data file pwscf.save
     Check: negative starting charge=   -0.016005
     NEW-OLD atomic charge density approx. for the potential
     Check: negative starting charge=   -0.016005

     negative rho (up, down):  1.837E-04 0.000E+00

     total cpu time spent up to now is       17.1 secs

     per-process dynamical memory:    45.8 Mb

     Self-consistent Calculation

     iteration #  1     ecut=    90.00 Ry     beta=0.70
     Davidson diagonalization with overlap
     ethr =  1.00E-06,  avg # of iterations =  3.0

     Threshold (ethr) on eigenvalues was too large:
     Diagonalizing with lowered threshold

     Davidson diagonalization with overlap
     ethr =  5.59E-09,  avg # of iterations =  2.0

     negative rho (up, down):  3.704E-05 0.000E+00

     total cpu time spent up to now is       17.4 secs

     total energy              =     -34.18374810 Ry
     Harris-Foulkes estimate   =     -34.18374615 Ry
     estimated scf accuracy    <       0.00000053 Ry

     iteration #  2     ecut=    90.00 Ry     beta=0.70
     Davidson diagonalization with overlap
     ethr =  6.58E-09,  avg # of iterations =  2.0

     negative rho (up, down):  8.992E-06 0.000E+00

     total cpu time spent up to now is       17.6 secs

     total energy              =     -34.18374870 Ry
     Harris-Foulkes estimate   =     -34.18374827 Ry
     estimated scf accuracy    <       0.00000010 Ry

     iteration #  3     ecut=    90.00 Ry     beta=0.70
     Davidson diagonalization with overlap
     ethr =  1.22E-09,  avg # of iterations =  2.0

     negative rho (up, down):  4.949E-07 0.000E+00

     total cpu time spent up to now is       17.7 secs

     total energy              =     -34.18374877 Ry
     Harris-Foulkes estimate   =     -34.18374875 Ry
     estimated scf accuracy    <       0.00000004 Ry

     iteration #  4     ecut=    90.00 Ry     beta=0.70
     Davidson diagonalization with overlap
     ethr =  4.97E-10,  avg # of iterations =  2.0

     total cpu time spent up to now is       17.9 secs

     total energy              =     -34.18374887 Ry
     Harris-Foulkes estimate   =     -34.18374879 Ry
     estimated scf accuracy    <          8.8E-10 Ry

     iteration #  5     ecut=    90.00 Ry     beta=0.70
     Davidson diagonalization with overlap
     ethr =  1.10E-11,  avg # of iterations =  2.0

     total cpu time spent up to now is       18.1 secs

     End of self-consistent calculation

          k = 0.0000 0.0000 0.0000 (115313 PWs)   bands (ev):

   -25.0981 -12.6865  -9.2209  -7.0807  -0.9542   0.4229   0.7464   1.1211

     the Fermi energy is    -5.0935 ev

!    total energy              =     -34.18374888 Ry
     Harris-Foulkes estimate   =     -34.18374887 Ry
     estimated scf accuracy    <          2.8E-11 Ry

     The total energy is the sum of the following terms:

     one-electron contribution =     -63.62549236 Ry
     hartree contribution      =      33.23332969 Ry
     xc contribution           =      -8.35250817 Ry
     ewald contribution        =       4.56092196 Ry
     smearing contrib. (-TS)   =       0.00000000 Ry

     convergence has been achieved in   5 iterations

     Forces acting on atoms (Ry/au):

     atom    1 type  1   force =     0.00016301    0.00052464   -0.00096932
     atom    2 type  1   force =    -0.00032505   -0.00001965    0.00070890
     atom    3 type  2   force =     0.00016204   -0.00050500    0.00026042

     Total force =     0.001483     Total SCF correction =     0.000032

     bfgs converged in   7 scf cycles and   6 bfgs steps
     (criteria: energy <  1.0E-04, force <  1.0E-03)

     End of BFGS Geometry Optimization

     Final energy   =     -34.1837488772 Ry
Begin final coordinates

ATOMIC_POSITIONS (angstrom)
H        0.019859753  -0.430992204  -0.798110676
H        0.375747958   0.894852409  -0.117198752
O        0.002861289   0.006614795   0.080808428
End final coordinates



     Writing output data file pwscf.save
 
     init_run     :      0.52s CPU      0.55s WALL (       1 calls)
     electrons    :     12.45s CPU     14.83s WALL (       7 calls)
     update_pot   :      1.46s CPU      1.71s WALL (       6 calls)
     forces       :      0.47s CPU      0.47s WALL (       7 calls)

     Called by init_run:
     wfcinit      :      0.03s CPU      0.04s WALL (       1 calls)
     potinit      :      0.11s CPU      0.11s WALL (       1 calls)

     Called by electrons:
     c_bands      :      5.80s CPU      5.89s WALL (      57 calls)
     sum_band     :      1.24s CPU      1.35s WALL (      57 calls)
     v_of_rho     :      3.25s CPU      3.31s WALL (      63 calls)
     mix_rho      :      1.55s CPU      2.97s WALL (      57 calls)

     Called by c_bands:
     init_us_2    :      0.03s CPU      0.04s WALL (     115 calls)
     cegterg      :      5.77s CPU      5.83s WALL (      57 calls)

     Called by sum_band:

     Called by *egterg:
     h_psi        :      4.93s CPU      4.98s WALL (     393 calls)
     g_psi        :      0.05s CPU      0.05s WALL (     335 calls)
     cdiaghg      :      0.09s CPU      0.10s WALL (     385 calls)

     Called by h_psi:
     h_psi:pot    :      4.88s CPU      4.92s WALL (     393 calls)
     h_psi:calbec :      0.08s CPU      0.08s WALL (     393 calls)
     vloc_psi     :      4.76s CPU      4.80s WALL (     393 calls)
     add_vuspsi   :      0.03s CPU      0.04s WALL (     393 calls)

     General routines
     calbec       :      0.08s CPU      0.09s WALL (     421 calls)
     fft          :      2.29s CPU      2.44s WALL (     708 calls)
     fftw         :      4.75s CPU      4.80s WALL (    3744 calls)
     davcio       :      0.21s CPU      1.20s WALL (     548 calls)
 
     Parallel routines
     fft_scatter  :      2.54s CPU      2.71s WALL (    4452 calls)
 
     PWSCF        :    15.49s CPU        18.64s WALL

 
   This run was terminated on:   2:42: 2  28Jul2018            

=------------------------------------------------------------------------------=
   JOB DONE.
=------------------------------------------------------------------------------=
