
     Program PWSCF v.6.0 (svn rev. 13079) starts on 28Jul2018 at  2:44: 4 

     This program is part of the open-source Quantum ESPRESSO suite
     for quantum simulation of materials; please cite
         "P. Giannozzi et al., J. Phys.:Condens. Matter 21 395502 (2009);
          URL http://www.quantum-espresso.org", 
     in publications or presentations arising from this work. More details at
     http://www.quantum-espresso.org/quote

     Parallel version (MPI), running on    28 processors
     R & G space division:  proc/nbgrp/npool/nimage =      28
     Reading input from ../QMCmins/relax-79.in

     Current dimensions of program PWSCF are:
     Max number of different atomic species (ntypx) = 10
     Max number of k-points (npk) =  40000
     Max angular momentum in pseudopotentials (lmaxx) =  3
     Message from routine iosys:
     pot_extrapolation='second-order' not available, using 'atomic'
     Message from routine iosys:
     wfc_extrapolation='second-order' not available, using 'atomic'

     Subspace diagonalization in iterative solution of the eigenvalue problem:
     a serial algorithm will be used

 
     Parallelization info
     --------------------
     sticks:   dense  smooth     PW     G-vecs:    dense   smooth      PW
     Min         408     408    102                32936    32936    4116
     Max         409     409    103                32943    32943    4121
     Sum       11449   11449   2869               922329   922329  115313
 


     bravais-lattice index     =            1
     lattice parameter (alat)  =      20.0000  a.u.
     unit-cell volume          =    8000.0000 (a.u.)^3
     number of atoms/cell      =            3
     number of atomic types    =            2
     number of electrons       =         8.00
     number of Kohn-Sham states=            8
     kinetic-energy cutoff     =      90.0000  Ry
     charge density cutoff     =     360.0000  Ry
     convergence threshold     =      1.0E-08
     mixing beta               =       0.7000
     number of iterations used =            8  plain     mixing
     Exchange-correlation      = BLYP ( 1  3  1  3 0 0)
     nstep                     =           50


     celldm(1)=  20.000000  celldm(2)=   0.000000  celldm(3)=   0.000000
     celldm(4)=   0.000000  celldm(5)=   0.000000  celldm(6)=   0.000000

     crystal axes: (cart. coord. in units of alat)
               a(1) = (   1.000000   0.000000   0.000000 )  
               a(2) = (   0.000000   1.000000   0.000000 )  
               a(3) = (   0.000000   0.000000   1.000000 )  

     reciprocal axes: (cart. coord. in units 2 pi/alat)
               b(1) = (  1.000000  0.000000  0.000000 )  
               b(2) = (  0.000000  1.000000  0.000000 )  
               b(3) = (  0.000000  0.000000  1.000000 )  


     PseudoPot. # 1 for  H read from file:
     ../H.blyp-hgh.UPF
     MD5 check sum: c576e69559cde411e611be972c763230
     Pseudo is Norm-conserving, Zval =  1.0
     Generated in analytical, separable form
     Using radial grid of  929 points,  0 beta functions with: 

     PseudoPot. # 2 for  O read from file:
     ../O.blyp-hgh.UPF
     MD5 check sum: d0b7156309aa9befef28faac7bc56342
     Pseudo is Norm-conserving, Zval =  6.0
     Generated in analytical, separable form
     Using radial grid of 1095 points,  1 beta functions with: 
                l(1) =   0

     atomic species   valence    mass     pseudopotential
        H              1.00     1.01000      H( 1.00)
        O              6.00    16.00000      O( 1.00)

     No symmetry found



   Cartesian axes

     site n.     atom                  positions (alat units)
         1           H   tau(   1) = (  -0.0454982  -0.0660629  -0.0511160  )
         2           H   tau(   2) = (  -0.0152844   0.0806050  -0.0292500  )
         3           O   tau(   3) = (   0.0038369  -0.0009179   0.0106511  )

     number of k points=     1  Marzari-Vanderbilt smearing, width (Ry)=  0.0250
                       cart. coord. in units 2pi/alat
        k(    1) = (   0.0000000   0.0000000   0.0000000), wk =   2.0000000

     Dense  grid:   922329 G-vectors     FFT dimensions: ( 125, 125, 125)

     Estimated max dynamical RAM per process >      31.67Mb

     Estimated total allocated dynamical RAM >     886.64Mb

     Initial potential from superposition of free atoms
     Check: negative starting charge=   -0.015926

     starting charge    7.99998, renormalised to    8.00000

     negative rho (up, down):  1.593E-02 0.000E+00
     Starting wfc are    6 randomized atomic wfcs +    2 random wfc

     total cpu time spent up to now is        0.7 secs

     per-process dynamical memory:    33.5 Mb

     Self-consistent Calculation

     iteration #  1     ecut=    90.00 Ry     beta=0.70
     Davidson diagonalization with overlap
     ethr =  1.00E-02,  avg # of iterations =  7.0

     negative rho (up, down):  4.614E-03 0.000E+00

     total cpu time spent up to now is        1.0 secs

     total energy              =     -34.02356683 Ry
     Harris-Foulkes estimate   =     -34.24463096 Ry
     estimated scf accuracy    <       0.33618133 Ry

     iteration #  2     ecut=    90.00 Ry     beta=0.70
     Davidson diagonalization with overlap
     ethr =  4.20E-03,  avg # of iterations =  2.0

     negative rho (up, down):  2.887E-03 0.000E+00

     total cpu time spent up to now is        1.3 secs

     total energy              =     -34.06786625 Ry
     Harris-Foulkes estimate   =     -34.27322837 Ry
     estimated scf accuracy    <       0.46105257 Ry

     iteration #  3     ecut=    90.00 Ry     beta=0.70
     Davidson diagonalization with overlap
     ethr =  4.20E-03,  avg # of iterations =  2.0

     negative rho (up, down):  1.508E-04 0.000E+00

     total cpu time spent up to now is        1.4 secs

     total energy              =     -34.16701550 Ry
     Harris-Foulkes estimate   =     -34.16761798 Ry
     estimated scf accuracy    <       0.00585900 Ry

     iteration #  4     ecut=    90.00 Ry     beta=0.70
     Davidson diagonalization with overlap
     ethr =  7.32E-05,  avg # of iterations =  6.0

     negative rho (up, down):  2.312E-06 0.000E+00

     total cpu time spent up to now is        1.7 secs

     total energy              =     -34.16856284 Ry
     Harris-Foulkes estimate   =     -34.16867694 Ry
     estimated scf accuracy    <       0.00030587 Ry

     iteration #  5     ecut=    90.00 Ry     beta=0.70
     Davidson diagonalization with overlap
     c_bands:  1 eigenvalues not converged
     ethr =  3.82E-06,  avg # of iterations = 20.0

     negative rho (up, down):  3.820E-06 0.000E+00

     total cpu time spent up to now is        2.0 secs

     total energy              =     -34.16857990 Ry
     Harris-Foulkes estimate   =     -34.16858645 Ry
     estimated scf accuracy    <       0.00002462 Ry

     iteration #  6     ecut=    90.00 Ry     beta=0.70
     Davidson diagonalization with overlap
     ethr =  3.08E-07,  avg # of iterations = 10.0

     negative rho (up, down):  2.938E-07 0.000E+00

     total cpu time spent up to now is        2.2 secs

     total energy              =     -34.16858246 Ry
     Harris-Foulkes estimate   =     -34.16858266 Ry
     estimated scf accuracy    <       0.00000038 Ry

     iteration #  7     ecut=    90.00 Ry     beta=0.70
     Davidson diagonalization with overlap
     ethr =  4.70E-09,  avg # of iterations =  2.0

     total cpu time spent up to now is        2.4 secs

     total energy              =     -34.16858226 Ry
     Harris-Foulkes estimate   =     -34.16858254 Ry
     estimated scf accuracy    <       0.00000002 Ry

     iteration #  8     ecut=    90.00 Ry     beta=0.70
     Davidson diagonalization with overlap
     ethr =  2.56E-10,  avg # of iterations =  2.0

     total cpu time spent up to now is        2.6 secs

     End of self-consistent calculation

          k = 0.0000 0.0000 0.0000 (115313 PWs)   bands (ev):

   -24.6524 -12.2116  -9.1893  -6.9993  -1.1631   0.3391   0.6484   1.1039

     the Fermi energy is    -4.9951 ev

!    total energy              =     -34.16858215 Ry
     Harris-Foulkes estimate   =     -34.16858227 Ry
     estimated scf accuracy    <          4.2E-09 Ry

     The total energy is the sum of the following terms:

     one-electron contribution =     -62.55395029 Ry
     hartree contribution      =      32.72047833 Ry
     xc contribution           =      -8.27126072 Ry
     ewald contribution        =       3.93615053 Ry
     smearing contrib. (-TS)   =       0.00000000 Ry

     convergence has been achieved in   8 iterations

     Forces acting on atoms (Ry/au):

     atom    1 type  1   force =     0.06540941    0.08686671    0.08118054
     atom    2 type  1   force =    -0.00045882    0.00201875   -0.00172746
     atom    3 type  2   force =    -0.06495058   -0.08888546   -0.07945308

     Total force =     0.191973     Total SCF correction =     0.000094

     BFGS Geometry Optimization

     number of scf cycles    =   1
     number of bfgs steps    =   0

     energy   new            =     -34.1685821458 Ry

     new trust radius        =       0.1357644851 bohr
     new conv_thr            =       0.0000000100 Ry


ATOMIC_POSITIONS (angstrom)
H       -0.446918832  -0.653212115  -0.498029109
H       -0.162005800   0.854155276  -0.310483132
O        0.006237632  -0.056751161   0.070681241



     Writing output data file pwscf.save
     Check: negative starting charge=   -0.015926
     NEW-OLD atomic charge density approx. for the potential
     Check: negative starting charge=   -0.015980

     negative rho (up, down):  2.366E-02 0.000E+00

     total cpu time spent up to now is        3.2 secs

     per-process dynamical memory:    45.8 Mb

     Self-consistent Calculation

     iteration #  1     ecut=    90.00 Ry     beta=0.70
     Davidson diagonalization with overlap
     c_bands:  1 eigenvalues not converged
     ethr =  1.00E-06,  avg # of iterations = 20.0

     negative rho (up, down):  6.187E-03 0.000E+00

     total cpu time spent up to now is        3.7 secs

     total energy              =     -34.16691864 Ry
     Harris-Foulkes estimate   =     -34.15000103 Ry
     estimated scf accuracy    <       0.01330558 Ry

     iteration #  2     ecut=    90.00 Ry     beta=0.70
     Davidson diagonalization with overlap
     ethr =  1.66E-04,  avg # of iterations =  4.0

     negative rho (up, down):  3.664E-03 0.000E+00

     total cpu time spent up to now is        3.9 secs

     total energy              =     -34.17042241 Ry
     Harris-Foulkes estimate   =     -34.17497363 Ry
     estimated scf accuracy    <       0.01055376 Ry

     iteration #  3     ecut=    90.00 Ry     beta=0.70
     Davidson diagonalization with overlap
     ethr =  1.32E-04,  avg # of iterations =  3.0

     negative rho (up, down):  9.510E-04 0.000E+00

     total cpu time spent up to now is        4.1 secs

     total energy              =     -34.17533680 Ry
     Harris-Foulkes estimate   =     -34.17286880 Ry
     estimated scf accuracy    <       0.00016588 Ry

     iteration #  4     ecut=    90.00 Ry     beta=0.70
     Davidson diagonalization with overlap
     c_bands:  1 eigenvalues not converged
     ethr =  2.07E-06,  avg # of iterations = 20.0

     negative rho (up, down):  1.309E-04 0.000E+00

     total cpu time spent up to now is        4.5 secs

     total energy              =     -34.17951876 Ry
     Harris-Foulkes estimate   =     -34.17948791 Ry
     estimated scf accuracy    <       0.00000591 Ry

     iteration #  5     ecut=    90.00 Ry     beta=0.70
     Davidson diagonalization with overlap
     ethr =  7.39E-08,  avg # of iterations =  7.0

     negative rho (up, down):  4.064E-08 0.000E+00

     total cpu time spent up to now is        4.7 secs

     total energy              =     -34.17951739 Ry
     Harris-Foulkes estimate   =     -34.17952053 Ry
     estimated scf accuracy    <       0.00000029 Ry

     iteration #  6     ecut=    90.00 Ry     beta=0.70
     Davidson diagonalization with overlap
     ethr =  3.58E-09,  avg # of iterations =  2.0

     total cpu time spent up to now is        4.8 secs

     End of self-consistent calculation

          k = 0.0000 0.0000 0.0000 (115313 PWs)   bands (ev):

   -25.1924 -12.9319  -9.0943  -7.0897  -0.9263   0.4281   0.7783   1.1151

     the Fermi energy is    -5.1217 ev

!    total energy              =     -34.17951713 Ry
     Harris-Foulkes estimate   =     -34.17951749 Ry
     estimated scf accuracy    <          5.6E-09 Ry

     The total energy is the sum of the following terms:

     one-electron contribution =     -63.89263950 Ry
     hartree contribution      =      33.36510016 Ry
     xc contribution           =      -8.37452690 Ry
     ewald contribution        =       4.72254911 Ry
     smearing contrib. (-TS)   =       0.00000000 Ry

     convergence has been achieved in   6 iterations

     Forces acting on atoms (Ry/au):

     atom    1 type  1   force =    -0.04266299   -0.05144539   -0.05483781
     atom    2 type  1   force =     0.00461403   -0.03838946    0.01177679
     atom    3 type  2   force =     0.03804896    0.08983485    0.04306102

     Total force =     0.143108     Total SCF correction =     0.000149

     number of scf cycles    =   2
     number of bfgs steps    =   1

     energy   old            =     -34.1685821458 Ry
     energy   new            =     -34.1795171326 Ry

     CASE: energy  _new < energy  _old

     new trust radius        =       0.0596909417 bohr
     new conv_thr            =       0.0000000090 Ry


ATOMIC_POSITIONS (angstrom)
H       -0.459382804  -0.668139306  -0.514087095
H       -0.160572930   0.842210490  -0.306833033
O        0.017268734  -0.029879184   0.083089128



     Writing output data file pwscf.save
     Check: negative starting charge=   -0.015980
     NEW-OLD atomic charge density approx. for the potential
     Check: negative starting charge=   -0.015987

     negative rho (up, down):  1.083E-02 0.000E+00

     total cpu time spent up to now is        5.4 secs

     per-process dynamical memory:    45.8 Mb

     Self-consistent Calculation

     iteration #  1     ecut=    90.00 Ry     beta=0.70
     Davidson diagonalization with overlap
     c_bands:  1 eigenvalues not converged
     ethr =  1.00E-06,  avg # of iterations = 20.0

     negative rho (up, down):  2.836E-03 0.000E+00

     total cpu time spent up to now is        5.8 secs

     total energy              =     -34.17632952 Ry
     Harris-Foulkes estimate   =     -34.17161989 Ry
     estimated scf accuracy    <       0.00155386 Ry

     iteration #  2     ecut=    90.00 Ry     beta=0.70
     Davidson diagonalization with overlap
     ethr =  1.94E-05,  avg # of iterations =  7.0

     negative rho (up, down):  1.186E-03 0.000E+00

     total cpu time spent up to now is        6.3 secs

     total energy              =     -34.17875214 Ry
     Harris-Foulkes estimate   =     -34.17720128 Ry
     estimated scf accuracy    <       0.00022358 Ry

     iteration #  3     ecut=    90.00 Ry     beta=0.70
     Davidson diagonalization with overlap
     c_bands:  1 eigenvalues not converged
     ethr =  2.79E-06,  avg # of iterations = 20.0

     negative rho (up, down):  5.154E-04 0.000E+00

     total cpu time spent up to now is        6.6 secs

     total energy              =     -34.17890678 Ry
     Harris-Foulkes estimate   =     -34.17884659 Ry
     estimated scf accuracy    <       0.00007560 Ry

     iteration #  4     ecut=    90.00 Ry     beta=0.70
     Davidson diagonalization with overlap
     ethr =  9.45E-07,  avg # of iterations =  9.0

     negative rho (up, down):  6.944E-06 0.000E+00

     total cpu time spent up to now is        6.9 secs

     total energy              =     -34.18300966 Ry
     Harris-Foulkes estimate   =     -34.18300193 Ry
     estimated scf accuracy    <       0.00000265 Ry

     iteration #  5     ecut=    90.00 Ry     beta=0.70
     Davidson diagonalization with overlap
     ethr =  3.32E-08,  avg # of iterations =  5.0

     total cpu time spent up to now is        7.1 secs

     total energy              =     -34.18301056 Ry
     Harris-Foulkes estimate   =     -34.18301050 Ry
     estimated scf accuracy    <       0.00000007 Ry

     iteration #  6     ecut=    90.00 Ry     beta=0.70
     Davidson diagonalization with overlap
     ethr =  8.48E-10,  avg # of iterations =  3.0

     total cpu time spent up to now is        7.3 secs

     End of self-consistent calculation

          k = 0.0000 0.0000 0.0000 (115313 PWs)   bands (ev):

   -25.0584 -12.7654  -9.1295  -7.0690  -0.9562   0.4225   0.7527   1.1135

     the Fermi energy is    -5.0894 ev

!    total energy              =     -34.18301060 Ry
     Harris-Foulkes estimate   =     -34.18301058 Ry
     estimated scf accuracy    <          2.1E-09 Ry

     The total energy is the sum of the following terms:

     one-electron contribution =     -63.59606119 Ry
     hartree contribution      =      33.22214388 Ry
     xc contribution           =      -8.35059883 Ry
     ewald contribution        =       4.54150554 Ry
     smearing contrib. (-TS)   =       0.00000000 Ry

     convergence has been achieved in   6 iterations

     Forces acting on atoms (Ry/au):

     atom    1 type  1   force =     0.01275892    0.02020135    0.01497741
     atom    2 type  1   force =    -0.00432869    0.01505781   -0.00906885
     atom    3 type  2   force =    -0.00843022   -0.03525916   -0.00590856

     Total force =     0.049720     Total SCF correction =     0.000088

     number of scf cycles    =   3
     number of bfgs steps    =   2

     energy   old            =     -34.1795171326 Ry
     energy   new            =     -34.1830106028 Ry

     CASE: energy  _new < energy  _old

     new trust radius        =       0.0164407872 bohr
     new conv_thr            =       0.0000000035 Ry


ATOMIC_POSITIONS (angstrom)
H       -0.456994382  -0.663398294  -0.511563636
H       -0.162038149   0.846109809  -0.309785363
O        0.016345531  -0.038519516   0.083517998



     Writing output data file pwscf.save
     Check: negative starting charge=   -0.015987
     NEW-OLD atomic charge density approx. for the potential
     Check: negative starting charge=   -0.015996

     negative rho (up, down):  2.712E-03 0.000E+00

     total cpu time spent up to now is        7.9 secs

     per-process dynamical memory:    45.8 Mb

     Self-consistent Calculation

     iteration #  1     ecut=    90.00 Ry     beta=0.70
     Davidson diagonalization with overlap
     c_bands:  1 eigenvalues not converged
     ethr =  1.00E-06,  avg # of iterations = 20.0

     negative rho (up, down):  6.980E-04 0.000E+00

     total cpu time spent up to now is        8.3 secs

     total energy              =     -34.17942018 Ry
     Harris-Foulkes estimate   =     -34.17790050 Ry
     estimated scf accuracy    <       0.00010012 Ry

     iteration #  2     ecut=    90.00 Ry     beta=0.70
     Davidson diagonalization with overlap
     c_bands:  1 eigenvalues not converged
     ethr =  1.25E-06,  avg # of iterations = 20.0

     negative rho (up, down):  2.431E-04 0.000E+00

     total cpu time spent up to now is        8.7 secs

     total energy              =     -34.18353884 Ry
     Harris-Foulkes estimate   =     -34.18352793 Ry
     estimated scf accuracy    <       0.00000763 Ry

     iteration #  3     ecut=    90.00 Ry     beta=0.70
     Davidson diagonalization with overlap
     ethr =  9.54E-08,  avg # of iterations =  4.0

     negative rho (up, down):  6.616E-05 0.000E+00

     total cpu time spent up to now is        8.9 secs

     total energy              =     -34.18354341 Ry
     Harris-Foulkes estimate   =     -34.18354122 Ry
     estimated scf accuracy    <       0.00000115 Ry

     iteration #  4     ecut=    90.00 Ry     beta=0.70
     Davidson diagonalization with overlap
     ethr =  1.43E-08,  avg # of iterations =  2.0

     negative rho (up, down):  1.023E-06 0.000E+00

     total cpu time spent up to now is        9.1 secs

     total energy              =     -34.18354450 Ry
     Harris-Foulkes estimate   =     -34.18354393 Ry
     estimated scf accuracy    <       0.00000039 Ry

     iteration #  5     ecut=    90.00 Ry     beta=0.70
     Davidson diagonalization with overlap
     ethr =  4.92E-09,  avg # of iterations =  3.0

     total cpu time spent up to now is        9.2 secs

     End of self-consistent calculation

          k = 0.0000 0.0000 0.0000 (115313 PWs)   bands (ev):

   -25.0533 -12.7447  -9.1438  -7.0693  -0.9570   0.4234   0.7514   1.1139

     the Fermi energy is    -5.0878 ev

!    total energy              =     -34.18354468 Ry
     Harris-Foulkes estimate   =     -34.18354461 Ry
     estimated scf accuracy    <          1.9E-09 Ry

     The total energy is the sum of the following terms:

     one-electron contribution =     -63.58038902 Ry
     hartree contribution      =      33.21415382 Ry
     xc contribution           =      -8.34923519 Ry
     ewald contribution        =       4.53192570 Ry
     smearing contrib. (-TS)   =       0.00000000 Ry

     convergence has been achieved in   5 iterations

     Forces acting on atoms (Ry/au):

     atom    1 type  1   force =     0.00271496    0.00557830    0.00290270
     atom    2 type  1   force =     0.00042972   -0.00709965    0.00146373
     atom    3 type  2   force =    -0.00314468    0.00152135   -0.00436643

     Total force =     0.011442     Total SCF correction =     0.000587

     number of scf cycles    =   4
     number of bfgs steps    =   3

     energy   old            =     -34.1830106028 Ry
     energy   new            =     -34.1835446784 Ry

     CASE: energy  _new < energy  _old

     new trust radius        =       0.0075813535 bohr
     new conv_thr            =       0.0000000005 Ry


ATOMIC_POSITIONS (angstrom)
H       -0.455434049  -0.660080414  -0.509935074
H       -0.161923759   0.842442705  -0.309221703
O        0.014670808  -0.038170291   0.081325777



     Writing output data file pwscf.save
     Check: negative starting charge=   -0.015996
     NEW-OLD atomic charge density approx. for the potential
     Check: negative starting charge=   -0.015998

     negative rho (up, down):  7.706E-04 0.000E+00

     total cpu time spent up to now is        9.8 secs

     per-process dynamical memory:    45.8 Mb

     Self-consistent Calculation

     iteration #  1     ecut=    90.00 Ry     beta=0.70
     Davidson diagonalization with overlap
     ethr =  1.00E-06,  avg # of iterations =  4.0

     negative rho (up, down):  1.870E-04 0.000E+00

     total cpu time spent up to now is       10.0 secs

     total energy              =     -34.18354520 Ry
     Harris-Foulkes estimate   =     -34.18357597 Ry
     estimated scf accuracy    <       0.00006820 Ry

     iteration #  2     ecut=    90.00 Ry     beta=0.70
     Davidson diagonalization with overlap
     ethr =  8.52E-07,  avg # of iterations =  3.0

     negative rho (up, down):  1.098E-04 0.000E+00

     total cpu time spent up to now is       10.2 secs

     total energy              =     -34.18356134 Ry
     Harris-Foulkes estimate   =     -34.18359460 Ry
     estimated scf accuracy    <       0.00007198 Ry

     iteration #  3     ecut=    90.00 Ry     beta=0.70
     Davidson diagonalization with overlap
     ethr =  8.52E-07,  avg # of iterations =  2.0

     negative rho (up, down):  1.209E-05 0.000E+00

     total cpu time spent up to now is       10.4 secs

     total energy              =     -34.18357462 Ry
     Harris-Foulkes estimate   =     -34.18357619 Ry
     estimated scf accuracy    <       0.00000037 Ry

     iteration #  4     ecut=    90.00 Ry     beta=0.70
     Davidson diagonalization with overlap
     ethr =  4.66E-09,  avg # of iterations =  2.0

     negative rho (up, down):  5.829E-07 0.000E+00

     total cpu time spent up to now is       10.6 secs

     total energy              =     -34.18357474 Ry
     Harris-Foulkes estimate   =     -34.18357483 Ry
     estimated scf accuracy    <       0.00000001 Ry

     iteration #  5     ecut=    90.00 Ry     beta=0.70
     Davidson diagonalization with overlap
     ethr =  1.82E-10,  avg # of iterations =  2.0

     total cpu time spent up to now is       10.9 secs

     total energy              =     -34.18357462 Ry
     Harris-Foulkes estimate   =     -34.18357474 Ry
     estimated scf accuracy    <          7.0E-10 Ry

     iteration #  6     ecut=    90.00 Ry     beta=0.70
     Davidson diagonalization with overlap
     ethr =  8.78E-12,  avg # of iterations =  2.0

     total cpu time spent up to now is       11.0 secs

     End of self-consistent calculation

          k = 0.0000 0.0000 0.0000 (115313 PWs)   bands (ev):

   -25.1093 -12.7999  -9.1464  -7.0792  -0.9408   0.4283   0.7631   1.1148

     the Fermi energy is    -5.1011 ev

!    total energy              =     -34.18357460 Ry
     Harris-Foulkes estimate   =     -34.18357462 Ry
     estimated scf accuracy    <          2.4E-11 Ry

     The total energy is the sum of the following terms:

     one-electron contribution =     -63.70379326 Ry
     hartree contribution      =      33.27320455 Ry
     xc contribution           =      -8.35889209 Ry
     ewald contribution        =       4.60590619 Ry
     smearing contrib. (-TS)   =       0.00000000 Ry

     convergence has been achieved in   6 iterations

     Forces acting on atoms (Ry/au):

     atom    1 type  1   force =    -0.00226329   -0.00118625   -0.00336866
     atom    2 type  1   force =    -0.00104311    0.00156621   -0.00201246
     atom    3 type  2   force =     0.00330640   -0.00037995    0.00538112

     Total force =     0.008093     Total SCF correction =     0.000005

     number of scf cycles    =   5
     number of bfgs steps    =   4

     energy   old            =     -34.1835446784 Ry
     energy   new            =     -34.1835746042 Ry

     CASE: energy  _new < energy  _old

     new trust radius        =       0.0034832084 bohr
     new conv_thr            =            1.0E-10 Ry


ATOMIC_POSITIONS (angstrom)
H       -0.456033125  -0.660221691  -0.510873899
H       -0.162260502   0.842801230  -0.309855951
O        0.015606628  -0.038387539   0.082898850



     Writing output data file pwscf.save
     Check: negative starting charge=   -0.015998
     NEW-OLD atomic charge density approx. for the potential
     Check: negative starting charge=   -0.015998

     negative rho (up, down):  4.778E-04 0.000E+00

     total cpu time spent up to now is       11.8 secs

     per-process dynamical memory:    45.8 Mb

     Self-consistent Calculation

     iteration #  1     ecut=    90.00 Ry     beta=0.70
     Davidson diagonalization with overlap
     ethr =  1.00E-06,  avg # of iterations =  3.0

     negative rho (up, down):  1.114E-04 0.000E+00

     total cpu time spent up to now is       12.0 secs

     total energy              =     -34.18358715 Ry
     Harris-Foulkes estimate   =     -34.18359105 Ry
     estimated scf accuracy    <       0.00001137 Ry

     iteration #  2     ecut=    90.00 Ry     beta=0.70
     Davidson diagonalization with overlap
     ethr =  1.42E-07,  avg # of iterations =  3.0

     negative rho (up, down):  6.637E-05 0.000E+00

     total cpu time spent up to now is       12.2 secs

     total energy              =     -34.18359076 Ry
     Harris-Foulkes estimate   =     -34.18359679 Ry
     estimated scf accuracy    <       0.00001478 Ry

     iteration #  3     ecut=    90.00 Ry     beta=0.70
     Davidson diagonalization with overlap
     ethr =  1.42E-07,  avg # of iterations =  2.0

     negative rho (up, down):  3.035E-06 0.000E+00

     total cpu time spent up to now is       12.4 secs

     total energy              =     -34.18359534 Ry
     Harris-Foulkes estimate   =     -34.18359350 Ry
     estimated scf accuracy    <       0.00000004 Ry

     iteration #  4     ecut=    90.00 Ry     beta=0.70
     Davidson diagonalization with overlap
     ethr =  5.55E-10,  avg # of iterations =  3.0

     negative rho (up, down):  2.774E-07 0.000E+00

     total cpu time spent up to now is       12.6 secs

     total energy              =     -34.18359552 Ry
     Harris-Foulkes estimate   =     -34.18359539 Ry
     estimated scf accuracy    <          5.0E-09 Ry

     iteration #  5     ecut=    90.00 Ry     beta=0.70
     Davidson diagonalization with overlap
     ethr =  6.31E-11,  avg # of iterations =  2.0

     total cpu time spent up to now is       12.8 secs

     total energy              =     -34.18359565 Ry
     Harris-Foulkes estimate   =     -34.18359552 Ry
     estimated scf accuracy    <          4.2E-10 Ry

     iteration #  6     ecut=    90.00 Ry     beta=0.70
     Davidson diagonalization with overlap
     ethr =  5.22E-12,  avg # of iterations =  2.0

     total cpu time spent up to now is       12.9 secs

     End of self-consistent calculation

          k = 0.0000 0.0000 0.0000 (115313 PWs)   bands (ev):

   -25.0927 -12.7713  -9.1549  -7.0767  -0.9469   0.4263   0.7593   1.1143

     the Fermi energy is    -5.0973 ev

!    total energy              =     -34.18359566 Ry
     Harris-Foulkes estimate   =     -34.18359565 Ry
     estimated scf accuracy    <          1.3E-11 Ry

     The total energy is the sum of the following terms:

     one-electron contribution =     -63.66086405 Ry
     hartree contribution      =      33.25241294 Ry
     xc contribution           =      -8.35549248 Ry
     ewald contribution        =       4.58034793 Ry
     smearing contrib. (-TS)   =       0.00000000 Ry

     convergence has been achieved in   6 iterations

     Forces acting on atoms (Ry/au):

     atom    1 type  1   force =    -0.00022857    0.00098525   -0.00072428
     atom    2 type  1   force =    -0.00029312   -0.00078663   -0.00056513
     atom    3 type  2   force =     0.00052168   -0.00019862    0.00128941

     Total force =     0.002132     Total SCF correction =     0.000009

     number of scf cycles    =   6
     number of bfgs steps    =   5

     energy   old            =     -34.1835746042 Ry
     energy   new            =     -34.1835956649 Ry

     CASE: energy  _new < energy  _old

     new trust radius        =       0.0019178564 bohr
     new conv_thr            =            1.0E-10 Ry


ATOMIC_POSITIONS (angstrom)
H       -0.456129654  -0.659321358  -0.511332240
H       -0.162504885   0.842134209  -0.310303360
O        0.015947539  -0.038620851   0.083804600



     Writing output data file pwscf.save
     Check: negative starting charge=   -0.015998
     NEW-OLD atomic charge density approx. for the potential
     Check: negative starting charge=   -0.015999

     negative rho (up, down):  2.315E-04 0.000E+00

     total cpu time spent up to now is       13.5 secs

     per-process dynamical memory:    45.8 Mb

     Self-consistent Calculation

     iteration #  1     ecut=    90.00 Ry     beta=0.70
     Davidson diagonalization with overlap
     ethr =  1.00E-06,  avg # of iterations =  3.0

     Threshold (ethr) on eigenvalues was too large:
     Diagonalizing with lowered threshold

     Davidson diagonalization with overlap
     ethr =  1.30E-08,  avg # of iterations =  2.0

     negative rho (up, down):  4.890E-05 0.000E+00

     total cpu time spent up to now is       13.8 secs

     total energy              =     -34.18359858 Ry
     Harris-Foulkes estimate   =     -34.18359577 Ry
     estimated scf accuracy    <       0.00000079 Ry

     iteration #  2     ecut=    90.00 Ry     beta=0.70
     Davidson diagonalization with overlap
     ethr =  9.87E-09,  avg # of iterations =  2.0

     negative rho (up, down):  2.298E-05 0.000E+00

     total cpu time spent up to now is       14.0 secs

     total energy              =     -34.18359936 Ry
     Harris-Foulkes estimate   =     -34.18359900 Ry
     estimated scf accuracy    <       0.00000052 Ry

     iteration #  3     ecut=    90.00 Ry     beta=0.70
     Davidson diagonalization with overlap
     ethr =  6.50E-09,  avg # of iterations =  2.0

     negative rho (up, down):  2.650E-07 0.000E+00

     total cpu time spent up to now is       14.2 secs

     total energy              =     -34.18360035 Ry
     Harris-Foulkes estimate   =     -34.18359950 Ry
     estimated scf accuracy    <       0.00000003 Ry

     iteration #  4     ecut=    90.00 Ry     beta=0.70
     Davidson diagonalization with overlap
     ethr =  3.78E-10,  avg # of iterations =  2.0

     total cpu time spent up to now is       14.4 secs

     total energy              =     -34.18360043 Ry
     Harris-Foulkes estimate   =     -34.18360036 Ry
     estimated scf accuracy    <          6.1E-10 Ry

     iteration #  5     ecut=    90.00 Ry     beta=0.70
     Davidson diagonalization with overlap
     ethr =  7.68E-12,  avg # of iterations =  3.0

     total cpu time spent up to now is       14.5 secs

     End of self-consistent calculation

          k = 0.0000 0.0000 0.0000 (115313 PWs)   bands (ev):

   -25.0929 -12.7596  -9.1639  -7.0771  -0.9481   0.4258   0.7592   1.1141

     the Fermi energy is    -5.0975 ev

!    total energy              =     -34.18360045 Ry
     Harris-Foulkes estimate   =     -34.18360043 Ry
     estimated scf accuracy    <          7.9E-11 Ry

     The total energy is the sum of the following terms:

     one-electron contribution =     -63.65527586 Ry
     hartree contribution      =      33.24946553 Ry
     xc contribution           =      -8.35501168 Ry
     ewald contribution        =       4.57722156 Ry
     smearing contrib. (-TS)   =       0.00000000 Ry

     convergence has been achieved in   5 iterations

     Forces acting on atoms (Ry/au):

     atom    1 type  1   force =     0.00012259    0.00082584   -0.00017582
     atom    2 type  1   force =     0.00004169   -0.00082940   -0.00006092
     atom    3 type  2   force =    -0.00016428    0.00000356    0.00023674

     Total force =     0.001227     Total SCF correction =     0.000086

     bfgs converged in   7 scf cycles and   6 bfgs steps
     (criteria: energy <  1.0E-04, force <  1.0E-03)

     End of BFGS Geometry Optimization

     Final energy   =     -34.1836004456 Ry
Begin final coordinates

ATOMIC_POSITIONS (angstrom)
H       -0.456129654  -0.659321358  -0.511332240
H       -0.162504885   0.842134209  -0.310303360
O        0.015947539  -0.038620851   0.083804600
End final coordinates



     Writing output data file pwscf.save
 
     init_run     :      0.51s CPU      0.55s WALL (       1 calls)
     electrons    :      9.51s CPU     11.30s WALL (       7 calls)
     update_pot   :      1.46s CPU      1.75s WALL (       6 calls)
     forces       :      0.47s CPU      0.48s WALL (       7 calls)

     Called by init_run:
     wfcinit      :      0.03s CPU      0.04s WALL (       1 calls)
     potinit      :      0.11s CPU      0.11s WALL (       1 calls)

     Called by electrons:
     c_bands      :      4.65s CPU      4.88s WALL (      43 calls)
     sum_band     :      0.93s CPU      0.95s WALL (      43 calls)
     v_of_rho     :      2.49s CPU      2.54s WALL (      49 calls)
     mix_rho      :      0.91s CPU      1.69s WALL (      43 calls)

     Called by c_bands:
     init_us_2    :      0.02s CPU      0.03s WALL (      87 calls)
     cegterg      :      4.62s CPU      4.84s WALL (      43 calls)

     Called by sum_band:

     Called by *egterg:
     h_psi        :      3.96s CPU      4.13s WALL (     308 calls)
     g_psi        :      0.04s CPU      0.04s WALL (     264 calls)
     cdiaghg      :      0.08s CPU      0.09s WALL (     300 calls)

     Called by h_psi:
     h_psi:pot    :      3.92s CPU      4.09s WALL (     308 calls)
     h_psi:calbec :      0.06s CPU      0.10s WALL (     308 calls)
     vloc_psi     :      3.83s CPU      3.96s WALL (     308 calls)
     add_vuspsi   :      0.03s CPU      0.03s WALL (     308 calls)

     General routines
     calbec       :      0.06s CPU      0.10s WALL (     336 calls)
     fft          :      1.75s CPU      1.81s WALL (     554 calls)
     fftw         :      3.84s CPU      3.97s WALL (    2992 calls)
     davcio       :      0.11s CPU      0.69s WALL (     280 calls)
 
     Parallel routines
     fft_scatter  :      2.01s CPU      2.16s WALL (    3546 calls)
 
     PWSCF        :    12.40s CPU        14.95s WALL

 
   This run was terminated on:   2:44:19  28Jul2018            

=------------------------------------------------------------------------------=
   JOB DONE.
=------------------------------------------------------------------------------=
