
     Program PWSCF v.6.0 (svn rev. 13079) starts on 28Jul2018 at  2:22:26 

     This program is part of the open-source Quantum ESPRESSO suite
     for quantum simulation of materials; please cite
         "P. Giannozzi et al., J. Phys.:Condens. Matter 21 395502 (2009);
          URL http://www.quantum-espresso.org", 
     in publications or presentations arising from this work. More details at
     http://www.quantum-espresso.org/quote

     Parallel version (MPI), running on    28 processors
     R & G space division:  proc/nbgrp/npool/nimage =      28
     Reading input from ../QMCmins/relax-24.in

     Current dimensions of program PWSCF are:
     Max number of different atomic species (ntypx) = 10
     Max number of k-points (npk) =  40000
     Max angular momentum in pseudopotentials (lmaxx) =  3
     Message from routine iosys:
     pot_extrapolation='second-order' not available, using 'atomic'
     Message from routine iosys:
     wfc_extrapolation='second-order' not available, using 'atomic'

     Subspace diagonalization in iterative solution of the eigenvalue problem:
     a serial algorithm will be used

 
     Parallelization info
     --------------------
     sticks:   dense  smooth     PW     G-vecs:    dense   smooth      PW
     Min         408     408    102                32936    32936    4116
     Max         409     409    103                32943    32943    4121
     Sum       11449   11449   2869               922329   922329  115313
 


     bravais-lattice index     =            1
     lattice parameter (alat)  =      20.0000  a.u.
     unit-cell volume          =    8000.0000 (a.u.)^3
     number of atoms/cell      =            3
     number of atomic types    =            2
     number of electrons       =         8.00
     number of Kohn-Sham states=            8
     kinetic-energy cutoff     =      90.0000  Ry
     charge density cutoff     =     360.0000  Ry
     convergence threshold     =      1.0E-08
     mixing beta               =       0.7000
     number of iterations used =            8  plain     mixing
     Exchange-correlation      = BLYP ( 1  3  1  3 0 0)
     nstep                     =           50


     celldm(1)=  20.000000  celldm(2)=   0.000000  celldm(3)=   0.000000
     celldm(4)=   0.000000  celldm(5)=   0.000000  celldm(6)=   0.000000

     crystal axes: (cart. coord. in units of alat)
               a(1) = (   1.000000   0.000000   0.000000 )  
               a(2) = (   0.000000   1.000000   0.000000 )  
               a(3) = (   0.000000   0.000000   1.000000 )  

     reciprocal axes: (cart. coord. in units 2 pi/alat)
               b(1) = (  1.000000  0.000000  0.000000 )  
               b(2) = (  0.000000  1.000000  0.000000 )  
               b(3) = (  0.000000  0.000000  1.000000 )  


     PseudoPot. # 1 for  H read from file:
     ../H.blyp-hgh.UPF
     MD5 check sum: c576e69559cde411e611be972c763230
     Pseudo is Norm-conserving, Zval =  1.0
     Generated in analytical, separable form
     Using radial grid of  929 points,  0 beta functions with: 

     PseudoPot. # 2 for  O read from file:
     ../O.blyp-hgh.UPF
     MD5 check sum: d0b7156309aa9befef28faac7bc56342
     Pseudo is Norm-conserving, Zval =  6.0
     Generated in analytical, separable form
     Using radial grid of 1095 points,  1 beta functions with: 
                l(1) =   0

     atomic species   valence    mass     pseudopotential
        H              1.00     1.01000      H( 1.00)
        O              6.00    16.00000      O( 1.00)

     No symmetry found



   Cartesian axes

     site n.     atom                  positions (alat units)
         1           H   tau(   1) = (  -0.0343136  -0.0713752  -0.0284264  )
         2           H   tau(   2) = (   0.0192172   0.0579319  -0.0627399  )
         3           O   tau(   3) = (   0.0009530   0.0008486   0.0113329  )

     number of k points=     1  Marzari-Vanderbilt smearing, width (Ry)=  0.0250
                       cart. coord. in units 2pi/alat
        k(    1) = (   0.0000000   0.0000000   0.0000000), wk =   2.0000000

     Dense  grid:   922329 G-vectors     FFT dimensions: ( 125, 125, 125)

     Estimated max dynamical RAM per process >      31.67Mb

     Estimated total allocated dynamical RAM >     886.64Mb

     Initial potential from superposition of free atoms
     Check: negative starting charge=   -0.016002

     starting charge    7.99998, renormalised to    8.00000

     negative rho (up, down):  1.600E-02 0.000E+00
     Starting wfc are    6 randomized atomic wfcs +    2 random wfc

     total cpu time spent up to now is        0.8 secs

     per-process dynamical memory:    33.5 Mb

     Self-consistent Calculation

     iteration #  1     ecut=    90.00 Ry     beta=0.70
     Davidson diagonalization with overlap
     ethr =  1.00E-02,  avg # of iterations =  8.0

     negative rho (up, down):  4.668E-03 0.000E+00

     total cpu time spent up to now is        1.0 secs

     total energy              =     -34.03487837 Ry
     Harris-Foulkes estimate   =     -34.26955967 Ry
     estimated scf accuracy    <       0.35395095 Ry

     iteration #  2     ecut=    90.00 Ry     beta=0.70
     Davidson diagonalization with overlap
     ethr =  4.42E-03,  avg # of iterations =  2.0

     negative rho (up, down):  2.866E-03 0.000E+00

     total cpu time spent up to now is        1.2 secs

     total energy              =     -34.09094439 Ry
     Harris-Foulkes estimate   =     -34.27197439 Ry
     estimated scf accuracy    <       0.38892842 Ry

     iteration #  3     ecut=    90.00 Ry     beta=0.70
     Davidson diagonalization with overlap
     ethr =  4.42E-03,  avg # of iterations =  2.0

     negative rho (up, down):  1.724E-04 0.000E+00

     total cpu time spent up to now is        1.4 secs

     total energy              =     -34.17853952 Ry
     Harris-Foulkes estimate   =     -34.17939088 Ry
     estimated scf accuracy    <       0.00595609 Ry

     iteration #  4     ecut=    90.00 Ry     beta=0.70
     Davidson diagonalization with overlap
     ethr =  7.45E-05,  avg # of iterations =  6.0

     negative rho (up, down):  2.850E-06 0.000E+00

     total cpu time spent up to now is        1.7 secs

     total energy              =     -34.18022581 Ry
     Harris-Foulkes estimate   =     -34.18035465 Ry
     estimated scf accuracy    <       0.00034719 Ry

     iteration #  5     ecut=    90.00 Ry     beta=0.70
     Davidson diagonalization with overlap
     ethr =  4.34E-06,  avg # of iterations =  4.0

     negative rho (up, down):  5.960E-08 0.000E+00

     total cpu time spent up to now is        1.9 secs

     total energy              =     -34.18024486 Ry
     Harris-Foulkes estimate   =     -34.18025280 Ry
     estimated scf accuracy    <       0.00002873 Ry

     iteration #  6     ecut=    90.00 Ry     beta=0.70
     Davidson diagonalization with overlap
     ethr =  3.59E-07,  avg # of iterations =  2.0

     negative rho (up, down):  2.128E-07 0.000E+00

     total cpu time spent up to now is        2.1 secs

     total energy              =     -34.18024794 Ry
     Harris-Foulkes estimate   =     -34.18024786 Ry
     estimated scf accuracy    <       0.00000202 Ry

     iteration #  7     ecut=    90.00 Ry     beta=0.70
     Davidson diagonalization with overlap
     ethr =  2.53E-08,  avg # of iterations =  2.0

     total cpu time spent up to now is        2.3 secs

     total energy              =     -34.18024810 Ry
     Harris-Foulkes estimate   =     -34.18024824 Ry
     estimated scf accuracy    <       0.00000005 Ry

     iteration #  8     ecut=    90.00 Ry     beta=0.70
     Davidson diagonalization with overlap
     ethr =  6.67E-10,  avg # of iterations =  2.0

     total cpu time spent up to now is        2.5 secs

     total energy              =     -34.18024796 Ry
     Harris-Foulkes estimate   =     -34.18024812 Ry
     estimated scf accuracy    <       0.00000002 Ry

     iteration #  9     ecut=    90.00 Ry     beta=0.70
     Davidson diagonalization with overlap
     ethr =  2.20E-10,  avg # of iterations =  2.0

     total cpu time spent up to now is        2.7 secs

     End of self-consistent calculation

          k = 0.0000 0.0000 0.0000 (115313 PWs)   bands (ev):

   -25.1625 -12.7144  -9.2344  -7.0905  -0.9531   0.4179   0.7658   1.1547

     the Fermi energy is    -5.0845 ev

!    total energy              =     -34.18024791 Ry
     Harris-Foulkes estimate   =     -34.18024796 Ry
     estimated scf accuracy    <          8.0E-10 Ry

     The total energy is the sum of the following terms:

     one-electron contribution =     -63.73141605 Ry
     hartree contribution      =      33.28364175 Ry
     xc contribution           =      -8.36110254 Ry
     ewald contribution        =       4.62862893 Ry
     smearing contrib. (-TS)   =       0.00000000 Ry

     convergence has been achieved in   9 iterations

     Forces acting on atoms (Ry/au):

     atom    1 type  1   force =    -0.02765448   -0.05748939   -0.02710034
     atom    2 type  1   force =    -0.00775381   -0.02601997    0.03894960
     atom    3 type  2   force =     0.03540829    0.08350937   -0.01184925

     Total force =     0.124203     Total SCF correction =     0.000033

     BFGS Geometry Optimization

     number of scf cycles    =   1
     number of bfgs steps    =   0

     energy   new            =     -34.1802479115 Ry

     new trust radius        =       0.0914765866 bohr
     new conv_thr            =       0.0000000100 Ry


ATOMIC_POSITIONS (angstrom)
H       -0.377793121  -0.785825077  -0.315192885
H        0.199282861   0.599355824  -0.643399762
O        0.028823260   0.053172253   0.113671646



     Writing output data file pwscf.save
     Check: negative starting charge=   -0.016002
     NEW-OLD atomic charge density approx. for the potential
     Check: negative starting charge=   -0.015946

     negative rho (up, down):  1.630E-02 0.000E+00

     total cpu time spent up to now is        3.4 secs

     per-process dynamical memory:    45.8 Mb

     Self-consistent Calculation

     iteration #  1     ecut=    90.00 Ry     beta=0.70
     Davidson diagonalization with overlap
     c_bands:  1 eigenvalues not converged
     ethr =  1.00E-06,  avg # of iterations = 20.0

     negative rho (up, down):  4.288E-03 0.000E+00

     total cpu time spent up to now is        3.9 secs

     total energy              =     -34.16935332 Ry
     Harris-Foulkes estimate   =     -34.15572402 Ry
     estimated scf accuracy    <       0.00311532 Ry

     iteration #  2     ecut=    90.00 Ry     beta=0.70
     Davidson diagonalization with overlap
     ethr =  3.89E-05,  avg # of iterations =  5.0

     negative rho (up, down):  1.522E-03 0.000E+00

     total cpu time spent up to now is        4.1 secs

     total energy              =     -34.17378079 Ry
     Harris-Foulkes estimate   =     -34.17019671 Ry
     estimated scf accuracy    <       0.00019100 Ry

     iteration #  3     ecut=    90.00 Ry     beta=0.70
     Davidson diagonalization with overlap
     ethr =  2.39E-06,  avg # of iterations = 15.0

     negative rho (up, down):  9.770E-05 0.000E+00

     total cpu time spent up to now is        4.4 secs

     total energy              =     -34.17413551 Ry
     Harris-Foulkes estimate   =     -34.17382587 Ry
     estimated scf accuracy    <       0.00001026 Ry

     iteration #  4     ecut=    90.00 Ry     beta=0.70
     Davidson diagonalization with overlap
     c_bands:  1 eigenvalues not converged
     ethr =  1.28E-07,  avg # of iterations = 20.0

     negative rho (up, down):  2.210E-05 0.000E+00

     total cpu time spent up to now is        4.9 secs

     total energy              =     -34.17821707 Ry
     Harris-Foulkes estimate   =     -34.17821804 Ry
     estimated scf accuracy    <       0.00000267 Ry

     iteration #  5     ecut=    90.00 Ry     beta=0.70
     Davidson diagonalization with overlap
     c_bands:  1 eigenvalues not converged
     ethr =  3.33E-08,  avg # of iterations = 20.0

     negative rho (up, down):  1.374E-07 0.000E+00

     total cpu time spent up to now is        5.2 secs

     total energy              =     -34.17821757 Ry
     Harris-Foulkes estimate   =     -34.17821773 Ry
     estimated scf accuracy    <       0.00000010 Ry

     iteration #  6     ecut=    90.00 Ry     beta=0.70
     Davidson diagonalization with overlap
     ethr =  1.31E-09,  avg # of iterations =  3.0

     total cpu time spent up to now is        5.3 secs

     End of self-consistent calculation

          k = 0.0000 0.0000 0.0000 (115313 PWs)   bands (ev):

   -25.0836 -12.6200  -9.2356  -7.0749  -0.9883   0.4035   0.7480   1.1258

     the Fermi energy is    -5.0864 ev

!    total energy              =     -34.17821766 Ry
     Harris-Foulkes estimate   =     -34.17821760 Ry
     estimated scf accuracy    <          1.1E-09 Ry

     The total energy is the sum of the following terms:

     one-electron contribution =     -63.53837756 Ry
     hartree contribution      =      33.19125288 Ry
     xc contribution           =      -8.34642453 Ry
     ewald contribution        =       4.51533154 Ry
     smearing contrib. (-TS)   =       0.00000000 Ry

     convergence has been achieved in   6 iterations

     Forces acting on atoms (Ry/au):

     atom    1 type  1   force =     0.02835543    0.05899770    0.03334209
     atom    2 type  1   force =     0.01362478    0.04308235   -0.05375809
     atom    3 type  2   force =    -0.04198021   -0.10208005    0.02041601

     Total force =     0.151419     Total SCF correction =     0.000172

     number of scf cycles    =   2
     number of bfgs steps    =   1

     energy   old            =     -34.1802479115 Ry
     energy   new            =     -34.1782176589 Ry

     CASE: energy  _new > energy  _old

     new trust radius        =       0.0404188228 bohr
     new conv_thr            =       0.0000000100 Ry


ATOMIC_POSITIONS (angstrom)
H       -0.369625069  -0.768844959  -0.307188503
H        0.201573033   0.607041106  -0.654903948
O        0.018365037   0.028506853   0.117171451



     Writing output data file pwscf.save
     Check: negative starting charge=   -0.015946
     NEW-OLD atomic charge density approx. for the potential
     Check: negative starting charge=   -0.015978

     negative rho (up, down):  9.227E-03 0.000E+00

     total cpu time spent up to now is        6.0 secs

     per-process dynamical memory:    45.8 Mb

     Self-consistent Calculation

     iteration #  1     ecut=    90.00 Ry     beta=0.70
     Davidson diagonalization with overlap
     c_bands:  1 eigenvalues not converged
     ethr =  1.00E-06,  avg # of iterations = 20.0

     negative rho (up, down):  2.418E-03 0.000E+00

     total cpu time spent up to now is        6.5 secs

     total energy              =     -34.17797240 Ry
     Harris-Foulkes estimate   =     -34.16925365 Ry
     estimated scf accuracy    <       0.00098695 Ry

     iteration #  2     ecut=    90.00 Ry     beta=0.70
     Davidson diagonalization with overlap
     ethr =  1.23E-05,  avg # of iterations =  7.0

     negative rho (up, down):  9.654E-04 0.000E+00

     total cpu time spent up to now is        6.8 secs

     total energy              =     -34.17940261 Ry
     Harris-Foulkes estimate   =     -34.17828059 Ry
     estimated scf accuracy    <       0.00012712 Ry

     iteration #  3     ecut=    90.00 Ry     beta=0.70
     Davidson diagonalization with overlap
     c_bands:  1 eigenvalues not converged
     ethr =  1.59E-06,  avg # of iterations = 20.0

     negative rho (up, down):  3.924E-04 0.000E+00

     total cpu time spent up to now is        7.1 secs

     total energy              =     -34.18355467 Ry
     Harris-Foulkes estimate   =     -34.18352782 Ry
     estimated scf accuracy    <       0.00003328 Ry

     iteration #  4     ecut=    90.00 Ry     beta=0.70
     Davidson diagonalization with overlap
     ethr =  4.16E-07,  avg # of iterations = 11.0

     negative rho (up, down):  9.973E-06 0.000E+00

     total cpu time spent up to now is        7.4 secs

     total energy              =     -34.18356764 Ry
     Harris-Foulkes estimate   =     -34.18356463 Ry
     estimated scf accuracy    <       0.00000293 Ry

     iteration #  5     ecut=    90.00 Ry     beta=0.70
     Davidson diagonalization with overlap
     ethr =  3.66E-08,  avg # of iterations = 20.0

     total cpu time spent up to now is        7.7 secs

     total energy              =     -34.18356818 Ry
     Harris-Foulkes estimate   =     -34.18356843 Ry
     estimated scf accuracy    <       0.00000002 Ry

     iteration #  6     ecut=    90.00 Ry     beta=0.70
     Davidson diagonalization with overlap
     ethr =  2.41E-10,  avg # of iterations =  3.0

     total cpu time spent up to now is        7.9 secs

     End of self-consistent calculation

          k = 0.0000 0.0000 0.0000 (115313 PWs)   bands (ev):

   -25.1030 -12.6778  -9.2331  -7.0820  -0.9544   0.4229   0.7539   1.1267

     the Fermi energy is    -5.0906 ev

!    total energy              =     -34.18356819 Ry
     Harris-Foulkes estimate   =     -34.18356820 Ry
     estimated scf accuracy    <          2.0E-09 Ry

     The total energy is the sum of the following terms:

     one-electron contribution =     -63.63103744 Ry
     hartree contribution      =      33.23578690 Ry
     xc contribution           =      -8.35278458 Ry
     ewald contribution        =       4.56446694 Ry
     smearing contrib. (-TS)   =       0.00000000 Ry

     convergence has been achieved in   6 iterations

     Forces acting on atoms (Ry/au):

     atom    1 type  1   force =     0.00043318    0.00036704    0.00425673
     atom    2 type  1   force =     0.00098208    0.00163712    0.00267067
     atom    3 type  2   force =    -0.00141527   -0.00200416   -0.00692740

     Total force =     0.009123     Total SCF correction =     0.000139

     number of scf cycles    =   3
     number of bfgs steps    =   1

     energy   old            =     -34.1802479115 Ry
     energy   new            =     -34.1835681893 Ry

     CASE: energy  _new < energy  _old

     new trust radius        =       0.0070970668 bohr
     new conv_thr            =       0.0000000007 Ry


ATOMIC_POSITIONS (angstrom)
H       -0.369592703  -0.769055833  -0.305158651
H        0.202030841   0.607712645  -0.653238927
O        0.017874862   0.028046188   0.113476578



     Writing output data file pwscf.save
     Check: negative starting charge=   -0.015978
     NEW-OLD atomic charge density approx. for the potential
     Check: negative starting charge=   -0.015977

     negative rho (up, down):  1.063E-03 0.000E+00

     total cpu time spent up to now is        8.4 secs

     per-process dynamical memory:    45.8 Mb

     Self-consistent Calculation

     iteration #  1     ecut=    90.00 Ry     beta=0.70
     Davidson diagonalization with overlap
     ethr =  1.00E-06,  avg # of iterations =  5.0

     negative rho (up, down):  2.641E-04 0.000E+00

     total cpu time spent up to now is        8.8 secs

     total energy              =     -34.18358840 Ry
     Harris-Foulkes estimate   =     -34.18353800 Ry
     estimated scf accuracy    <       0.00003018 Ry

     iteration #  2     ecut=    90.00 Ry     beta=0.70
     Davidson diagonalization with overlap
     ethr =  3.77E-07,  avg # of iterations =  4.0

     negative rho (up, down):  1.585E-04 0.000E+00

     total cpu time spent up to now is        9.0 secs

     total energy              =     -34.18359929 Ry
     Harris-Foulkes estimate   =     -34.18361132 Ry
     estimated scf accuracy    <       0.00003249 Ry

     iteration #  3     ecut=    90.00 Ry     beta=0.70
     Davidson diagonalization with overlap
     ethr =  3.77E-07,  avg # of iterations =  2.0

     negative rho (up, down):  1.291E-05 0.000E+00

     total cpu time spent up to now is        9.2 secs

     total energy              =     -34.18360400 Ry
     Harris-Foulkes estimate   =     -34.18360588 Ry
     estimated scf accuracy    <       0.00000019 Ry

     iteration #  4     ecut=    90.00 Ry     beta=0.70
     Davidson diagonalization with overlap
     ethr =  2.37E-09,  avg # of iterations =  3.0

     negative rho (up, down):  6.812E-07 0.000E+00

     total cpu time spent up to now is        9.4 secs

     total energy              =     -34.18360390 Ry
     Harris-Foulkes estimate   =     -34.18360416 Ry
     estimated scf accuracy    <       0.00000001 Ry

     iteration #  5     ecut=    90.00 Ry     beta=0.70
     Davidson diagonalization with overlap
     ethr =  1.46E-10,  avg # of iterations =  2.0

     total cpu time spent up to now is        9.6 secs

     End of self-consistent calculation

          k = 0.0000 0.0000 0.0000 (115313 PWs)   bands (ev):

   -25.1270 -12.7324  -9.2105  -7.0851  -0.9440   0.4268   0.7597   1.1274

     the Fermi energy is    -5.0961 ev

!    total energy              =     -34.18360385 Ry
     Harris-Foulkes estimate   =     -34.18360391 Ry
     estimated scf accuracy    <          5.6E-10 Ry

     The total energy is the sum of the following terms:

     one-electron contribution =     -63.69952826 Ry
     hartree contribution      =      33.26920627 Ry
     xc contribution           =      -8.35824944 Ry
     ewald contribution        =       4.60496758 Ry
     smearing contrib. (-TS)   =       0.00000000 Ry

     convergence has been achieved in   5 iterations

     Forces acting on atoms (Ry/au):

     atom    1 type  1   force =    -0.00130785   -0.00295204    0.00089503
     atom    2 type  1   force =     0.00162239    0.00418171   -0.00280010
     atom    3 type  2   force =    -0.00031454   -0.00122967    0.00190507

     Total force =     0.006665     Total SCF correction =     0.000469

     number of scf cycles    =   4
     number of bfgs steps    =   2

     energy   old            =     -34.1835681893 Ry
     energy   new            =     -34.1836038484 Ry

     CASE: energy  _new < energy  _old

     new trust radius        =       0.0045872668 bohr
     new conv_thr            =            1.0E-10 Ry


ATOMIC_POSITIONS (angstrom)
H       -0.370276187  -0.770702472  -0.303969785
H        0.202965179   0.609892234  -0.653757627
O        0.017624008   0.027513238   0.112806412



     Writing output data file pwscf.save
     Check: negative starting charge=   -0.015977
     NEW-OLD atomic charge density approx. for the potential
     Check: negative starting charge=   -0.015975

     negative rho (up, down):  2.068E-04 0.000E+00

     total cpu time spent up to now is       10.1 secs

     per-process dynamical memory:    45.8 Mb

     Self-consistent Calculation

     iteration #  1     ecut=    90.00 Ry     beta=0.70
     Davidson diagonalization with overlap
     ethr =  1.00E-06,  avg # of iterations =  3.0

     Threshold (ethr) on eigenvalues was too large:
     Diagonalizing with lowered threshold

     Davidson diagonalization with overlap
     ethr =  3.25E-08,  avg # of iterations =  2.0

     negative rho (up, down):  4.276E-05 0.000E+00

     total cpu time spent up to now is       10.4 secs

     total energy              =     -34.18362987 Ry
     Harris-Foulkes estimate   =     -34.18363205 Ry
     estimated scf accuracy    <       0.00000287 Ry

     iteration #  2     ecut=    90.00 Ry     beta=0.70
     Davidson diagonalization with overlap
     ethr =  3.59E-08,  avg # of iterations =  2.0

     negative rho (up, down):  1.858E-05 0.000E+00

     total cpu time spent up to now is       10.6 secs

     total energy              =     -34.18362969 Ry
     Harris-Foulkes estimate   =     -34.18363108 Ry
     estimated scf accuracy    <       0.00000154 Ry

     iteration #  3     ecut=    90.00 Ry     beta=0.70
     Davidson diagonalization with overlap
     ethr =  1.92E-08,  avg # of iterations =  2.0

     negative rho (up, down):  4.275E-07 0.000E+00

     total cpu time spent up to now is       10.8 secs

     total energy              =     -34.18362973 Ry
     Harris-Foulkes estimate   =     -34.18363014 Ry
     estimated scf accuracy    <       0.00000013 Ry

     iteration #  4     ecut=    90.00 Ry     beta=0.70
     Davidson diagonalization with overlap
     ethr =  1.66E-09,  avg # of iterations =  2.0

     total cpu time spent up to now is       11.0 secs

     total energy              =     -34.18362964 Ry
     Harris-Foulkes estimate   =     -34.18362976 Ry
     estimated scf accuracy    <          1.4E-09 Ry

     iteration #  5     ecut=    90.00 Ry     beta=0.70
     Davidson diagonalization with overlap
     ethr =  1.70E-11,  avg # of iterations =  3.0

     total cpu time spent up to now is       11.2 secs

     total energy              =     -34.18362957 Ry
     Harris-Foulkes estimate   =     -34.18362964 Ry
     estimated scf accuracy    <          1.4E-10 Ry

     iteration #  6     ecut=    90.00 Ry     beta=0.70
     Davidson diagonalization with overlap
     ethr =  1.75E-12,  avg # of iterations =  2.0

     total cpu time spent up to now is       11.3 secs

     End of self-consistent calculation

          k = 0.0000 0.0000 0.0000 (115313 PWs)   bands (ev):

   -25.1113 -12.7362  -9.1955  -7.0819  -0.9463   0.4258   0.7567   1.1274

     the Fermi energy is    -5.0922 ev

!    total energy              =     -34.18362955 Ry
     Harris-Foulkes estimate   =     -34.18362957 Ry
     estimated scf accuracy    <          4.2E-12 Ry

     The total energy is the sum of the following terms:

     one-electron contribution =     -63.67492729 Ry
     hartree contribution      =      33.25788487 Ry
     xc contribution           =      -8.35639919 Ry
     ewald contribution        =       4.58981206 Ry
     smearing contrib. (-TS)   =       0.00000000 Ry

     convergence has been achieved in   6 iterations

     Forces acting on atoms (Ry/au):

     atom    1 type  1   force =    -0.00086911   -0.00190237    0.00055068
     atom    2 type  1   force =     0.00063850    0.00141759   -0.00042090
     atom    3 type  2   force =     0.00023060    0.00048477   -0.00012978

     Total force =     0.002753     Total SCF correction =     0.000019

     number of scf cycles    =   5
     number of bfgs steps    =   3

     energy   old            =     -34.1836038484 Ry
     energy   new            =     -34.1836295526 Ry

     CASE: energy  _new < energy  _old

     new trust radius        =       0.0053117766 bohr
     new conv_thr            =            1.0E-10 Ry


ATOMIC_POSITIONS (angstrom)
H       -0.371178863  -0.772823038  -0.302360633
H        0.204004682   0.612147651  -0.653891789
O        0.017487180   0.027378387   0.111331421



     Writing output data file pwscf.save
     Check: negative starting charge=   -0.015975
     NEW-OLD atomic charge density approx. for the potential
     Check: negative starting charge=   -0.015973

     negative rho (up, down):  3.687E-04 0.000E+00

     total cpu time spent up to now is       12.1 secs

     per-process dynamical memory:    45.8 Mb

     Self-consistent Calculation

     iteration #  1     ecut=    90.00 Ry     beta=0.70
     Davidson diagonalization with overlap
     ethr =  1.00E-06,  avg # of iterations =  3.0

     Threshold (ethr) on eigenvalues was too large:
     Diagonalizing with lowered threshold

     Davidson diagonalization with overlap
     ethr =  2.55E-08,  avg # of iterations =  1.0

     negative rho (up, down):  8.354E-05 0.000E+00

     total cpu time spent up to now is       12.6 secs

     total energy              =     -34.18364064 Ry
     Harris-Foulkes estimate   =     -34.18363687 Ry
     estimated scf accuracy    <       0.00000211 Ry

     iteration #  2     ecut=    90.00 Ry     beta=0.70
     Davidson diagonalization with overlap
     ethr =  2.64E-08,  avg # of iterations =  2.0

     negative rho (up, down):  1.515E-05 0.000E+00

     total cpu time spent up to now is       12.8 secs

     total energy              =     -34.18363923 Ry
     Harris-Foulkes estimate   =     -34.18364098 Ry
     estimated scf accuracy    <       0.00000027 Ry

     iteration #  3     ecut=    90.00 Ry     beta=0.70
     Davidson diagonalization with overlap
     ethr =  3.39E-09,  avg # of iterations =  3.0

     negative rho (up, down):  3.774E-07 0.000E+00

     total cpu time spent up to now is       13.0 secs

     total energy              =     -34.18363907 Ry
     Harris-Foulkes estimate   =     -34.18363937 Ry
     estimated scf accuracy    <       0.00000016 Ry

     iteration #  4     ecut=    90.00 Ry     beta=0.70
     Davidson diagonalization with overlap
     ethr =  1.95E-09,  avg # of iterations =  2.0

     total cpu time spent up to now is       13.2 secs

     total energy              =     -34.18363895 Ry
     Harris-Foulkes estimate   =     -34.18363911 Ry
     estimated scf accuracy    <          2.3E-09 Ry

     iteration #  5     ecut=    90.00 Ry     beta=0.70
     Davidson diagonalization with overlap
     ethr =  2.86E-11,  avg # of iterations =  2.0

     total cpu time spent up to now is       13.4 secs

     End of self-consistent calculation

          k = 0.0000 0.0000 0.0000 (115313 PWs)   bands (ev):

   -25.0979 -12.7491  -9.1752  -7.0788  -0.9472   0.4256   0.7544   1.1274

     the Fermi energy is    -5.0888 ev

!    total energy              =     -34.18363894 Ry
     Harris-Foulkes estimate   =     -34.18363895 Ry
     estimated scf accuracy    <          5.5E-11 Ry

     The total energy is the sum of the following terms:

     one-electron contribution =     -63.65877261 Ry
     hartree contribution      =      33.25078145 Ry
     xc contribution           =      -8.35523862 Ry
     ewald contribution        =       4.57959085 Ry
     smearing contrib. (-TS)   =       0.00000000 Ry

     convergence has been achieved in   5 iterations

     Forces acting on atoms (Ry/au):

     atom    1 type  1   force =    -0.00011161   -0.00009847    0.00011324
     atom    2 type  1   force =    -0.00008304   -0.00034173    0.00002744
     atom    3 type  2   force =     0.00019464    0.00044021   -0.00014068

     Total force =     0.000641     Total SCF correction =     0.000011

     bfgs converged in   6 scf cycles and   4 bfgs steps
     (criteria: energy <  1.0E-04, force <  1.0E-03)

     End of BFGS Geometry Optimization

     Final energy   =     -34.1836389387 Ry
Begin final coordinates

ATOMIC_POSITIONS (angstrom)
H       -0.371178863  -0.772823038  -0.302360633
H        0.204004682   0.612147651  -0.653891789
O        0.017487180   0.027378387   0.111331421
End final coordinates



     Writing output data file pwscf.save
 
     init_run     :      0.57s CPU      0.62s WALL (       1 calls)
     electrons    :      8.79s CPU     10.16s WALL (       6 calls)
     update_pot   :      1.26s CPU      1.64s WALL (       5 calls)
     forces       :      0.39s CPU      0.40s WALL (       6 calls)

     Called by init_run:
     wfcinit      :      0.03s CPU      0.04s WALL (       1 calls)
     potinit      :      0.11s CPU      0.11s WALL (       1 calls)

     Called by electrons:
     c_bands      :      4.25s CPU      4.32s WALL (      39 calls)
     sum_band     :      0.81s CPU      0.83s WALL (      39 calls)
     v_of_rho     :      2.25s CPU      2.37s WALL (      43 calls)
     mix_rho      :      0.80s CPU      1.43s WALL (      39 calls)

     Called by c_bands:
     init_us_2    :      0.02s CPU      0.02s WALL (      79 calls)
     cegterg      :      4.23s CPU      4.29s WALL (      39 calls)

     Called by sum_band:

     Called by *egterg:
     h_psi        :      3.63s CPU      3.68s WALL (     279 calls)
     g_psi        :      0.03s CPU      0.03s WALL (     239 calls)
     cdiaghg      :      0.07s CPU      0.07s WALL (     271 calls)

     Called by h_psi:
     h_psi:pot    :      3.59s CPU      3.64s WALL (     279 calls)
     h_psi:calbec :      0.05s CPU      0.06s WALL (     279 calls)
     vloc_psi     :      3.52s CPU      3.56s WALL (     279 calls)
     add_vuspsi   :      0.02s CPU      0.03s WALL (     279 calls)

     General routines
     calbec       :      0.05s CPU      0.06s WALL (     303 calls)
     fft          :      1.62s CPU      1.70s WALL (     488 calls)
     fftw         :      3.50s CPU      3.55s WALL (    2650 calls)
     davcio       :      0.10s CPU      0.64s WALL (     259 calls)
 
     Parallel routines
     fft_scatter  :      1.92s CPU      2.01s WALL (    3138 calls)
 
     PWSCF        :    11.51s CPU        13.90s WALL

 
   This run was terminated on:   2:22:40  28Jul2018            

=------------------------------------------------------------------------------=
   JOB DONE.
=------------------------------------------------------------------------------=
