
     Program PWSCF v.6.0 (svn rev. 13079) starts on 28Jul2018 at  2:27: 5 

     This program is part of the open-source Quantum ESPRESSO suite
     for quantum simulation of materials; please cite
         "P. Giannozzi et al., J. Phys.:Condens. Matter 21 395502 (2009);
          URL http://www.quantum-espresso.org", 
     in publications or presentations arising from this work. More details at
     http://www.quantum-espresso.org/quote

     Parallel version (MPI), running on    28 processors
     R & G space division:  proc/nbgrp/npool/nimage =      28
     Reading input from ../QMCmins/relax-36.in

     Current dimensions of program PWSCF are:
     Max number of different atomic species (ntypx) = 10
     Max number of k-points (npk) =  40000
     Max angular momentum in pseudopotentials (lmaxx) =  3
     Message from routine iosys:
     pot_extrapolation='second-order' not available, using 'atomic'
     Message from routine iosys:
     wfc_extrapolation='second-order' not available, using 'atomic'

     Subspace diagonalization in iterative solution of the eigenvalue problem:
     a serial algorithm will be used

 
     Parallelization info
     --------------------
     sticks:   dense  smooth     PW     G-vecs:    dense   smooth      PW
     Min         408     408    102                32936    32936    4116
     Max         409     409    103                32943    32943    4121
     Sum       11449   11449   2869               922329   922329  115313
 


     bravais-lattice index     =            1
     lattice parameter (alat)  =      20.0000  a.u.
     unit-cell volume          =    8000.0000 (a.u.)^3
     number of atoms/cell      =            3
     number of atomic types    =            2
     number of electrons       =         8.00
     number of Kohn-Sham states=            8
     kinetic-energy cutoff     =      90.0000  Ry
     charge density cutoff     =     360.0000  Ry
     convergence threshold     =      1.0E-08
     mixing beta               =       0.7000
     number of iterations used =            8  plain     mixing
     Exchange-correlation      = BLYP ( 1  3  1  3 0 0)
     nstep                     =           50


     celldm(1)=  20.000000  celldm(2)=   0.000000  celldm(3)=   0.000000
     celldm(4)=   0.000000  celldm(5)=   0.000000  celldm(6)=   0.000000

     crystal axes: (cart. coord. in units of alat)
               a(1) = (   1.000000   0.000000   0.000000 )  
               a(2) = (   0.000000   1.000000   0.000000 )  
               a(3) = (   0.000000   0.000000   1.000000 )  

     reciprocal axes: (cart. coord. in units 2 pi/alat)
               b(1) = (  1.000000  0.000000  0.000000 )  
               b(2) = (  0.000000  1.000000  0.000000 )  
               b(3) = (  0.000000  0.000000  1.000000 )  


     PseudoPot. # 1 for  H read from file:
     ../H.blyp-hgh.UPF
     MD5 check sum: c576e69559cde411e611be972c763230
     Pseudo is Norm-conserving, Zval =  1.0
     Generated in analytical, separable form
     Using radial grid of  929 points,  0 beta functions with: 

     PseudoPot. # 2 for  O read from file:
     ../O.blyp-hgh.UPF
     MD5 check sum: d0b7156309aa9befef28faac7bc56342
     Pseudo is Norm-conserving, Zval =  6.0
     Generated in analytical, separable form
     Using radial grid of 1095 points,  1 beta functions with: 
                l(1) =   0

     atomic species   valence    mass     pseudopotential
        H              1.00     1.01000      H( 1.00)
        O              6.00    16.00000      O( 1.00)

     No symmetry found



   Cartesian axes

     site n.     atom                  positions (alat units)
         1           H   tau(   1) = (   0.0276526   0.0794299   0.0123023  )
         2           H   tau(   2) = (   0.0630112  -0.0370376  -0.0529082  )
         3           O   tau(   3) = (  -0.0057231  -0.0026760   0.0081412  )

     number of k points=     1  Marzari-Vanderbilt smearing, width (Ry)=  0.0250
                       cart. coord. in units 2pi/alat
        k(    1) = (   0.0000000   0.0000000   0.0000000), wk =   2.0000000

     Dense  grid:   922329 G-vectors     FFT dimensions: ( 125, 125, 125)

     Estimated max dynamical RAM per process >      31.67Mb

     Estimated total allocated dynamical RAM >     886.64Mb

     Initial potential from superposition of free atoms
     Check: negative starting charge=   -0.016027

     starting charge    7.99998, renormalised to    8.00000

     negative rho (up, down):  1.603E-02 0.000E+00
     Starting wfc are    6 randomized atomic wfcs +    2 random wfc

     total cpu time spent up to now is        0.7 secs

     per-process dynamical memory:    33.5 Mb

     Self-consistent Calculation

     iteration #  1     ecut=    90.00 Ry     beta=0.70
     Davidson diagonalization with overlap
     ethr =  1.00E-02,  avg # of iterations =  8.0

     negative rho (up, down):  4.670E-03 0.000E+00

     total cpu time spent up to now is        1.1 secs

     total energy              =     -34.02831374 Ry
     Harris-Foulkes estimate   =     -34.25774378 Ry
     estimated scf accuracy    <       0.34697741 Ry

     iteration #  2     ecut=    90.00 Ry     beta=0.70
     Davidson diagonalization with overlap
     ethr =  4.34E-03,  avg # of iterations =  2.0

     negative rho (up, down):  2.811E-03 0.000E+00

     total cpu time spent up to now is        1.3 secs

     total energy              =     -34.07986746 Ry
     Harris-Foulkes estimate   =     -34.26530450 Ry
     estimated scf accuracy    <       0.40273323 Ry

     iteration #  3     ecut=    90.00 Ry     beta=0.70
     Davidson diagonalization with overlap
     ethr =  4.34E-03,  avg # of iterations =  2.0

     negative rho (up, down):  1.833E-04 0.000E+00

     total cpu time spent up to now is        1.5 secs

     total energy              =     -34.16978149 Ry
     Harris-Foulkes estimate   =     -34.17075529 Ry
     estimated scf accuracy    <       0.00616952 Ry

     iteration #  4     ecut=    90.00 Ry     beta=0.70
     Davidson diagonalization with overlap
     ethr =  7.71E-05,  avg # of iterations =  6.0

     negative rho (up, down):  4.067E-06 0.000E+00

     total cpu time spent up to now is        1.8 secs

     total energy              =     -34.17154101 Ry
     Harris-Foulkes estimate   =     -34.17168584 Ry
     estimated scf accuracy    <       0.00038225 Ry

     iteration #  5     ecut=    90.00 Ry     beta=0.70
     Davidson diagonalization with overlap
     ethr =  4.78E-06,  avg # of iterations = 11.0

     negative rho (up, down):  5.674E-08 0.000E+00

     total cpu time spent up to now is        2.0 secs

     total energy              =     -34.17156338 Ry
     Harris-Foulkes estimate   =     -34.17157090 Ry
     estimated scf accuracy    <       0.00002821 Ry

     iteration #  6     ecut=    90.00 Ry     beta=0.70
     Davidson diagonalization with overlap
     ethr =  3.53E-07,  avg # of iterations =  1.0

     negative rho (up, down):  3.027E-07 0.000E+00

     total cpu time spent up to now is        2.2 secs

     total energy              =     -34.17156587 Ry
     Harris-Foulkes estimate   =     -34.17156557 Ry
     estimated scf accuracy    <       0.00000254 Ry

     iteration #  7     ecut=    90.00 Ry     beta=0.70
     Davidson diagonalization with overlap
     ethr =  3.17E-08,  avg # of iterations =  2.0

     total cpu time spent up to now is        2.4 secs

     total energy              =     -34.17156594 Ry
     Harris-Foulkes estimate   =     -34.17156633 Ry
     estimated scf accuracy    <       0.00000007 Ry

     iteration #  8     ecut=    90.00 Ry     beta=0.70
     Davidson diagonalization with overlap
     ethr =  8.36E-10,  avg # of iterations =  2.0

     total cpu time spent up to now is        2.6 secs

     End of self-consistent calculation

          k = 0.0000 0.0000 0.0000 (115313 PWs)   bands (ev):

   -25.2185 -12.2656  -9.5807  -7.1090  -1.0274   0.3835   0.7617   1.1148

     the Fermi energy is    -5.1284 ev

!    total energy              =     -34.17156580 Ry
     Harris-Foulkes estimate   =     -34.17156595 Ry
     estimated scf accuracy    <          4.6E-09 Ry

     The total energy is the sum of the following terms:

     one-electron contribution =     -63.56401715 Ry
     hartree contribution      =      33.19254690 Ry
     xc contribution           =      -8.34661712 Ry
     ewald contribution        =       4.54652156 Ry
     smearing contrib. (-TS)   =       0.00000000 Ry

     convergence has been achieved in   8 iterations

     Forces acting on atoms (Ry/au):

     atom    1 type  1   force =     0.01812600    0.10084735    0.02152349
     atom    2 type  1   force =    -0.06786953    0.00750351    0.05127544
     atom    3 type  2   force =     0.04974353   -0.10835086   -0.07279893

     Total force =     0.194339     Total SCF correction =     0.000097

     BFGS Geometry Optimization

     number of scf cycles    =   1
     number of bfgs steps    =   0

     energy   new            =     -34.1715658002 Ry

     new trust radius        =       0.1396925619 bohr
     new conv_thr            =       0.0000000100 Ry


ATOMIC_POSITIONS (angstrom)
H        0.302254868   0.894016121   0.141591740
H        0.630966992  -0.388018315  -0.532822204
O       -0.034247860  -0.085658806   0.047639464



     Writing output data file pwscf.save
     Check: negative starting charge=   -0.016027
     NEW-OLD atomic charge density approx. for the potential
     Check: negative starting charge=   -0.016007

     negative rho (up, down):  2.332E-02 0.000E+00

     total cpu time spent up to now is        3.2 secs

     per-process dynamical memory:    45.8 Mb

     Self-consistent Calculation

     iteration #  1     ecut=    90.00 Ry     beta=0.70
     Davidson diagonalization with overlap
     c_bands:  2 eigenvalues not converged
     ethr =  1.00E-06,  avg # of iterations = 20.0

     negative rho (up, down):  6.249E-03 0.000E+00

     total cpu time spent up to now is        4.4 secs

     total energy              =     -33.51707647 Ry
     Harris-Foulkes estimate   =     -34.57281962 Ry
     estimated scf accuracy    <       0.10507504 Ry

     iteration #  2     ecut=    90.00 Ry     beta=0.70
     Davidson diagonalization with overlap
     ethr =  1.31E-03,  avg # of iterations =  3.0

     negative rho (up, down):  4.386E-03 0.000E+00

     total cpu time spent up to now is        4.8 secs

     total energy              =     -34.12776101 Ry
     Harris-Foulkes estimate   =     -34.24819649 Ry
     estimated scf accuracy    <       0.35538413 Ry

     iteration #  3     ecut=    90.00 Ry     beta=0.70
     Davidson diagonalization with overlap
     ethr =  1.31E-03,  avg # of iterations =  2.0

     negative rho (up, down):  2.858E-03 0.000E+00

     total cpu time spent up to now is        5.2 secs

     total energy              =     -34.16627115 Ry
     Harris-Foulkes estimate   =     -34.16651180 Ry
     estimated scf accuracy    <       0.02680678 Ry

     iteration #  4     ecut=    90.00 Ry     beta=0.70
     Davidson diagonalization with overlap
     ethr =  3.35E-04,  avg # of iterations =  2.0

     negative rho (up, down):  8.135E-04 0.000E+00

     total cpu time spent up to now is        5.7 secs

     total energy              =     -34.16597042 Ry
     Harris-Foulkes estimate   =     -34.16673506 Ry
     estimated scf accuracy    <       0.01358629 Ry

     iteration #  5     ecut=    90.00 Ry     beta=0.70
     Davidson diagonalization with overlap
     ethr =  1.70E-04,  avg # of iterations =  4.0

     negative rho (up, down):  2.522E-04 0.000E+00

     total cpu time spent up to now is        5.9 secs

     total energy              =     -34.17177902 Ry
     Harris-Foulkes estimate   =     -34.17161294 Ry
     estimated scf accuracy    <       0.00052581 Ry

     iteration #  6     ecut=    90.00 Ry     beta=0.70
     Davidson diagonalization with overlap
     ethr =  6.57E-06,  avg # of iterations = 11.0

     negative rho (up, down):  2.250E-06 0.000E+00

     total cpu time spent up to now is        6.2 secs

     total energy              =     -34.17181172 Ry
     Harris-Foulkes estimate   =     -34.17183138 Ry
     estimated scf accuracy    <       0.00013307 Ry

     iteration #  7     ecut=    90.00 Ry     beta=0.70
     Davidson diagonalization with overlap
     ethr =  1.66E-06,  avg # of iterations = 11.0

     negative rho (up, down):  2.437E-06 0.000E+00

     total cpu time spent up to now is        6.4 secs

     total energy              =     -34.17184032 Ry
     Harris-Foulkes estimate   =     -34.17184223 Ry
     estimated scf accuracy    <       0.00000485 Ry

     iteration #  8     ecut=    90.00 Ry     beta=0.70
     Davidson diagonalization with overlap
     ethr =  6.06E-08,  avg # of iterations =  2.0

     total cpu time spent up to now is        6.7 secs

     total energy              =     -34.17184136 Ry
     Harris-Foulkes estimate   =     -34.17184174 Ry
     estimated scf accuracy    <       0.00000053 Ry

     iteration #  9     ecut=    90.00 Ry     beta=0.70
     Davidson diagonalization with overlap
     ethr =  6.61E-09,  avg # of iterations =  2.0

     total cpu time spent up to now is        6.9 secs

     total energy              =     -34.17184139 Ry
     Harris-Foulkes estimate   =     -34.17184143 Ry
     estimated scf accuracy    <       0.00000002 Ry

     iteration # 10     ecut=    90.00 Ry     beta=0.70
     Davidson diagonalization with overlap
     ethr =  1.89E-10,  avg # of iterations =  3.0

     total cpu time spent up to now is        7.0 secs

     End of self-consistent calculation

          k = 0.0000 0.0000 0.0000 (115313 PWs)   bands (ev):

   -25.2048 -12.4050  -9.4627  -7.1015  -1.0157   0.3860   0.7597   1.1144

     the Fermi energy is    -5.1252 ev

!    total energy              =     -34.17184137 Ry
     Harris-Foulkes estimate   =     -34.17184139 Ry
     estimated scf accuracy    <          1.9E-09 Ry

     The total energy is the sum of the following terms:

     one-electron contribution =     -63.60661043 Ry
     hartree contribution      =      33.21673726 Ry
     xc contribution           =      -8.35109057 Ry
     ewald contribution        =       4.56912237 Ry
     smearing contrib. (-TS)   =       0.00000000 Ry

     convergence has been achieved in  10 iterations

     Forces acting on atoms (Ry/au):

     atom    1 type  1   force =    -0.04022985   -0.07793699    0.00284056
     atom    2 type  1   force =     0.07306664   -0.05348978   -0.07001519
     atom    3 type  2   force =    -0.03283679    0.13142677    0.06717463

     Total force =     0.208965     Total SCF correction =     0.000063

     number of scf cycles    =   2
     number of bfgs steps    =   1

     energy   old            =     -34.1715658002 Ry
     energy   new            =     -34.1718413724 Ry

     CASE: energy  _new > energy  _old

     new trust radius        =       0.0703596597 bohr
     new conv_thr            =       0.0000000100 Ry


ATOMIC_POSITIONS (angstrom)
H        0.297494185   0.867529184   0.135938728
H        0.648792506  -0.389989065  -0.546289384
O       -0.047312691  -0.057201119   0.066759656



     Writing output data file pwscf.save
     Check: negative starting charge=   -0.016007
     NEW-OLD atomic charge density approx. for the potential
     Check: negative starting charge=   -0.016019

     negative rho (up, down):  1.274E-02 0.000E+00

     total cpu time spent up to now is        7.7 secs

     per-process dynamical memory:    45.8 Mb

     Self-consistent Calculation

     iteration #  1     ecut=    90.00 Ry     beta=0.70
     Davidson diagonalization with overlap
     c_bands:  1 eigenvalues not converged
     ethr =  1.00E-06,  avg # of iterations = 20.0

     negative rho (up, down):  3.341E-03 0.000E+00

     total cpu time spent up to now is        8.2 secs

     total energy              =     -34.17419184 Ry
     Harris-Foulkes estimate   =     -34.16123573 Ry
     estimated scf accuracy    <       0.00167204 Ry

     iteration #  2     ecut=    90.00 Ry     beta=0.70
     Davidson diagonalization with overlap
     ethr =  2.09E-05,  avg # of iterations =  6.0

     negative rho (up, down):  1.184E-03 0.000E+00

     total cpu time spent up to now is        8.5 secs

     total energy              =     -34.17698136 Ry
     Harris-Foulkes estimate   =     -34.17462752 Ry
     estimated scf accuracy    <       0.00011672 Ry

     iteration #  3     ecut=    90.00 Ry     beta=0.70
     Davidson diagonalization with overlap
     c_bands:  1 eigenvalues not converged
     ethr =  1.46E-06,  avg # of iterations = 20.0

     negative rho (up, down):  2.702E-04 0.000E+00

     total cpu time spent up to now is        8.8 secs

     total energy              =     -34.18118243 Ry
     Harris-Foulkes estimate   =     -34.18109271 Ry
     estimated scf accuracy    <       0.00001388 Ry

     iteration #  4     ecut=    90.00 Ry     beta=0.70
     Davidson diagonalization with overlap
     ethr =  1.74E-07,  avg # of iterations =  5.0

     negative rho (up, down):  1.969E-05 0.000E+00

     total cpu time spent up to now is        9.1 secs

     total energy              =     -34.18118889 Ry
     Harris-Foulkes estimate   =     -34.18118977 Ry
     estimated scf accuracy    <       0.00000740 Ry

     iteration #  5     ecut=    90.00 Ry     beta=0.70
     Davidson diagonalization with overlap
     ethr =  9.25E-08,  avg # of iterations =  4.0

     negative rho (up, down):  7.102E-08 0.000E+00

     total cpu time spent up to now is        9.3 secs

     total energy              =     -34.18119038 Ry
     Harris-Foulkes estimate   =     -34.18119048 Ry
     estimated scf accuracy    <       0.00000004 Ry

     iteration #  6     ecut=    90.00 Ry     beta=0.70
     Davidson diagonalization with overlap
     ethr =  4.94E-10,  avg # of iterations =  2.0

     total cpu time spent up to now is        9.4 secs

     End of self-consistent calculation

          k = 0.0000 0.0000 0.0000 (115313 PWs)   bands (ev):

   -25.1571 -12.3482  -9.5173  -7.1016  -0.9864   0.4104   0.7515   1.1150

     the Fermi energy is    -5.1129 ev

!    total energy              =     -34.18119045 Ry
     Harris-Foulkes estimate   =     -34.18119042 Ry
     estimated scf accuracy    <          2.3E-09 Ry

     The total energy is the sum of the following terms:

     one-electron contribution =     -63.55334041 Ry
     hartree contribution      =      33.18965871 Ry
     xc contribution           =      -8.34481594 Ry
     ewald contribution        =       4.52730719 Ry
     smearing contrib. (-TS)   =       0.00000000 Ry

     convergence has been achieved in   6 iterations

     Forces acting on atoms (Ry/au):

     atom    1 type  1   force =    -0.01856642   -0.00276661    0.01290892
     atom    2 type  1   force =    -0.00962302   -0.01939636    0.00081333
     atom    3 type  2   force =     0.02818944    0.02216297   -0.01372225

     Total force =     0.049625     Total SCF correction =     0.000169

     number of scf cycles    =   3
     number of bfgs steps    =   1

     energy   old            =     -34.1715658002 Ry
     energy   new            =     -34.1811904521 Ry

     CASE: energy  _new < energy  _old

     new trust radius        =       0.0396042653 bohr
     new conv_thr            =       0.0000000028 Ry


ATOMIC_POSITIONS (angstrom)
H        0.288219343   0.869425131   0.143527155
H        0.641404778  -0.400060345  -0.544144012
O       -0.030650121  -0.049025786   0.057025858



     Writing output data file pwscf.save
     Check: negative starting charge=   -0.016019
     NEW-OLD atomic charge density approx. for the potential
     Check: negative starting charge=   -0.015986

     negative rho (up, down):  7.119E-03 0.000E+00

     total cpu time spent up to now is       10.0 secs

     per-process dynamical memory:    45.8 Mb

     Self-consistent Calculation

     iteration #  1     ecut=    90.00 Ry     beta=0.70
     Davidson diagonalization with overlap
     c_bands:  1 eigenvalues not converged
     ethr =  1.00E-06,  avg # of iterations = 20.0

     negative rho (up, down):  1.869E-03 0.000E+00

     total cpu time spent up to now is       10.7 secs

     total energy              =     -34.17747024 Ry
     Harris-Foulkes estimate   =     -34.17049167 Ry
     estimated scf accuracy    <       0.00078798 Ry

     iteration #  2     ecut=    90.00 Ry     beta=0.70
     Davidson diagonalization with overlap
     ethr =  9.85E-06,  avg # of iterations = 16.0

     negative rho (up, down):  1.156E-03 0.000E+00

     total cpu time spent up to now is       11.0 secs

     total energy              =     -34.17813096 Ry
     Harris-Foulkes estimate   =     -34.17802278 Ry
     estimated scf accuracy    <       0.00078577 Ry

     iteration #  3     ecut=    90.00 Ry     beta=0.70
     Davidson diagonalization with overlap
     ethr =  9.82E-06,  avg # of iterations =  4.0

     negative rho (up, down):  1.717E-04 0.000E+00

     total cpu time spent up to now is       11.2 secs

     total energy              =     -34.18245712 Ry
     Harris-Foulkes estimate   =     -34.18237263 Ry
     estimated scf accuracy    <       0.00000713 Ry

     iteration #  4     ecut=    90.00 Ry     beta=0.70
     Davidson diagonalization with overlap
     c_bands:  1 eigenvalues not converged
     ethr =  8.92E-08,  avg # of iterations = 20.0

     negative rho (up, down):  5.982E-06 0.000E+00

     total cpu time spent up to now is       11.5 secs

     total energy              =     -34.18246022 Ry
     Harris-Foulkes estimate   =     -34.18246136 Ry
     estimated scf accuracy    <       0.00000022 Ry

     iteration #  5     ecut=    90.00 Ry     beta=0.70
     Davidson diagonalization with overlap
     ethr =  2.70E-09,  avg # of iterations =  5.0

     total cpu time spent up to now is       11.7 secs

     total energy              =     -34.18245992 Ry
     Harris-Foulkes estimate   =     -34.18246032 Ry
     estimated scf accuracy    <          7.7E-09 Ry

     iteration #  6     ecut=    90.00 Ry     beta=0.70
     Davidson diagonalization with overlap
     ethr =  9.68E-11,  avg # of iterations =  2.0

     total cpu time spent up to now is       11.9 secs

     End of self-consistent calculation

          k = 0.0000 0.0000 0.0000 (115313 PWs)   bands (ev):

   -25.2669 -12.6506  -9.3754  -7.1142  -0.9307   0.4289   0.7777   1.1181

     the Fermi energy is    -5.1380 ev

!    total energy              =     -34.18245990 Ry
     Harris-Foulkes estimate   =     -34.18245992 Ry
     estimated scf accuracy    <          2.9E-10 Ry

     The total energy is the sum of the following terms:

     one-electron contribution =     -63.89332237 Ry
     hartree contribution      =      33.35688562 Ry
     xc contribution           =      -8.37247703 Ry
     ewald contribution        =       4.72645387 Ry
     smearing contrib. (-TS)   =       0.00000000 Ry

     convergence has been achieved in   6 iterations

     Forces acting on atoms (Ry/au):

     atom    1 type  1   force =    -0.00514726    0.01489694    0.00950824
     atom    2 type  1   force =     0.01561316   -0.02286732   -0.01830079
     atom    3 type  2   force =    -0.01046590    0.00797038    0.00879255

     Total force =     0.041119     Total SCF correction =     0.000022

     number of scf cycles    =   4
     number of bfgs steps    =   2

     energy   old            =     -34.1811904521 Ry
     energy   new            =     -34.1824599030 Ry

     CASE: energy  _new < energy  _old

     new trust radius        =       0.0375285506 bohr
     new conv_thr            =       0.0000000013 Ry


ATOMIC_POSITIONS (angstrom)
H        0.280311597   0.880799068   0.153651129
H        0.643988678  -0.418260171  -0.551659311
O       -0.025326275  -0.042199897   0.054417182



     Writing output data file pwscf.save
     Check: negative starting charge=   -0.015986
     NEW-OLD atomic charge density approx. for the potential
     Check: negative starting charge=   -0.015971

     negative rho (up, down):  2.871E-03 0.000E+00

     total cpu time spent up to now is       12.4 secs

     per-process dynamical memory:    45.8 Mb

     Self-consistent Calculation

     iteration #  1     ecut=    90.00 Ry     beta=0.70
     Davidson diagonalization with overlap
     c_bands:  1 eigenvalues not converged
     ethr =  1.00E-06,  avg # of iterations = 20.0

     negative rho (up, down):  7.415E-04 0.000E+00

     total cpu time spent up to now is       13.2 secs

     total energy              =     -34.17941189 Ry
     Harris-Foulkes estimate   =     -34.17771705 Ry
     estimated scf accuracy    <       0.00013704 Ry

     iteration #  2     ecut=    90.00 Ry     beta=0.70
     Davidson diagonalization with overlap
     ethr =  1.71E-06,  avg # of iterations = 14.0

     negative rho (up, down):  3.337E-04 0.000E+00

     total cpu time spent up to now is       13.6 secs

     total energy              =     -34.18352168 Ry
     Harris-Foulkes estimate   =     -34.18352953 Ry
     estimated scf accuracy    <       0.00004188 Ry

     iteration #  3     ecut=    90.00 Ry     beta=0.70
     Davidson diagonalization with overlap
     ethr =  5.23E-07,  avg # of iterations = 18.0

     negative rho (up, down):  3.480E-05 0.000E+00

     total cpu time spent up to now is       13.8 secs

     total energy              =     -34.18353610 Ry
     Harris-Foulkes estimate   =     -34.18353810 Ry
     estimated scf accuracy    <       0.00001161 Ry

     iteration #  4     ecut=    90.00 Ry     beta=0.70
     Davidson diagonalization with overlap
     ethr =  1.45E-07,  avg # of iterations =  4.0

     negative rho (up, down):  4.524E-07 0.000E+00

     total cpu time spent up to now is       14.0 secs

     total energy              =     -34.18353795 Ry
     Harris-Foulkes estimate   =     -34.18353846 Ry
     estimated scf accuracy    <       0.00000011 Ry

     iteration #  5     ecut=    90.00 Ry     beta=0.70
     Davidson diagonalization with overlap
     ethr =  1.37E-09,  avg # of iterations =  2.0

     total cpu time spent up to now is       14.2 secs

     total energy              =     -34.18353793 Ry
     Harris-Foulkes estimate   =     -34.18353800 Ry
     estimated scf accuracy    <          5.2E-09 Ry

     iteration #  6     ecut=    90.00 Ry     beta=0.70
     Davidson diagonalization with overlap
     ethr =  6.45E-11,  avg # of iterations =  2.0

     total cpu time spent up to now is       14.4 secs

     End of self-consistent calculation

          k = 0.0000 0.0000 0.0000 (115313 PWs)   bands (ev):

   -25.1549 -12.7210  -9.2413  -7.0905  -0.9399   0.4275   0.7586   1.1194

     the Fermi energy is    -5.1090 ev

!    total energy              =     -34.18353793 Ry
     Harris-Foulkes estimate   =     -34.18353794 Ry
     estimated scf accuracy    <          2.2E-10 Ry

     The total energy is the sum of the following terms:

     one-electron contribution =     -63.74186226 Ry
     hartree contribution      =      33.28855884 Ry
     xc contribution           =      -8.36140783 Ry
     ewald contribution        =       4.63117332 Ry
     smearing contrib. (-TS)   =       0.00000000 Ry

     convergence has been achieved in   6 iterations

     Forces acting on atoms (Ry/au):

     atom    1 type  1   force =    -0.00047470    0.00851243    0.00381824
     atom    2 type  1   force =     0.00280963   -0.00630437   -0.00364062
     atom    3 type  2   force =    -0.00233493   -0.00220806   -0.00017762

     Total force =     0.012590     Total SCF correction =     0.000046

     number of scf cycles    =   5
     number of bfgs steps    =   3

     energy   old            =     -34.1824599030 Ry
     energy   new            =     -34.1835379289 Ry

     CASE: energy  _new < energy  _old

     new trust radius        =       0.0183804404 bohr
     new conv_thr            =       0.0000000009 Ry


ATOMIC_POSITIONS (angstrom)
H        0.276674250   0.887887502   0.159230448
H        0.644586244  -0.427132905  -0.554602268
O       -0.022286494  -0.040415597   0.051780820



     Writing output data file pwscf.save
     Check: negative starting charge=   -0.015971
     NEW-OLD atomic charge density approx. for the potential
     Check: negative starting charge=   -0.015964

     negative rho (up, down):  1.302E-03 0.000E+00

     total cpu time spent up to now is       14.9 secs

     per-process dynamical memory:    45.8 Mb

     Self-consistent Calculation

     iteration #  1     ecut=    90.00 Ry     beta=0.70
     Davidson diagonalization with overlap
     ethr =  1.00E-06,  avg # of iterations = 12.0

     negative rho (up, down):  3.271E-04 0.000E+00

     total cpu time spent up to now is       15.3 secs

     total energy              =     -34.18366272 Ry
     Harris-Foulkes estimate   =     -34.18354995 Ry
     estimated scf accuracy    <       0.00003405 Ry

     iteration #  2     ecut=    90.00 Ry     beta=0.70
     Davidson diagonalization with overlap
     ethr =  4.26E-07,  avg # of iterations =  9.0

     negative rho (up, down):  1.460E-04 0.000E+00

     total cpu time spent up to now is       15.5 secs

     total energy              =     -34.18366966 Ry
     Harris-Foulkes estimate   =     -34.18367309 Ry
     estimated scf accuracy    <       0.00001172 Ry

     iteration #  3     ecut=    90.00 Ry     beta=0.70
     Davidson diagonalization with overlap
     ethr =  1.46E-07,  avg # of iterations =  2.0

     negative rho (up, down):  6.746E-06 0.000E+00

     total cpu time spent up to now is       15.7 secs

     total energy              =     -34.18367172 Ry
     Harris-Foulkes estimate   =     -34.18367406 Ry
     estimated scf accuracy    <       0.00000289 Ry

     iteration #  4     ecut=    90.00 Ry     beta=0.70
     Davidson diagonalization with overlap
     ethr =  3.61E-08,  avg # of iterations =  8.0

     negative rho (up, down):  1.068E-08 0.000E+00

     total cpu time spent up to now is       16.0 secs

     total energy              =     -34.18367201 Ry
     Harris-Foulkes estimate   =     -34.18367233 Ry
     estimated scf accuracy    <       0.00000002 Ry

     iteration #  5     ecut=    90.00 Ry     beta=0.70
     Davidson diagonalization with overlap
     ethr =  1.92E-10,  avg # of iterations =  2.0

     total cpu time spent up to now is       16.2 secs

     total energy              =     -34.18367200 Ry
     Harris-Foulkes estimate   =     -34.18367203 Ry
     estimated scf accuracy    <          9.2E-10 Ry

     iteration #  6     ecut=    90.00 Ry     beta=0.70
     Davidson diagonalization with overlap
     ethr =  1.15E-11,  avg # of iterations =  2.0

     total cpu time spent up to now is       16.3 secs

     End of self-consistent calculation

          k = 0.0000 0.0000 0.0000 (115313 PWs)   bands (ev):

   -25.0969 -12.7525  -9.1730  -7.0780  -0.9464   0.4259   0.7481   1.1191

     the Fermi energy is    -5.0948 ev

!    total energy              =     -34.18367199 Ry
     Harris-Foulkes estimate   =     -34.18367200 Ry
     estimated scf accuracy    <          8.0E-11 Ry

     The total energy is the sum of the following terms:

     one-electron contribution =     -63.65981519 Ry
     hartree contribution      =      33.25145431 Ry
     xc contribution           =      -8.35535852 Ry
     ewald contribution        =       4.58004742 Ry
     smearing contrib. (-TS)   =       0.00000000 Ry

     convergence has been achieved in   6 iterations

     Forces acting on atoms (Ry/au):

     atom    1 type  1   force =     0.00006234   -0.00037845    0.00028767
     atom    2 type  1   force =     0.00039380   -0.00001366    0.00014497
     atom    3 type  2   force =    -0.00045614    0.00039211   -0.00043264

     Total force =     0.000977     Total SCF correction =     0.000009

     number of scf cycles    =   6
     number of bfgs steps    =   4

     energy   old            =     -34.1835379289 Ry
     energy   new            =     -34.1836719886 Ry

     CASE: energy  _new < energy  _old

     new trust radius        =       0.0007004426 bohr
     new conv_thr            =            1.0E-10 Ry


ATOMIC_POSITIONS (angstrom)
H        0.276739757   0.887742243   0.159376443
H        0.644759038  -0.427104600  -0.554489571
O       -0.022524796  -0.040298642   0.051522128



     Writing output data file pwscf.save
     Check: negative starting charge=   -0.015964
     NEW-OLD atomic charge density approx. for the potential
     Check: negative starting charge=   -0.015964

     negative rho (up, down):  6.525E-05 0.000E+00

     total cpu time spent up to now is       16.9 secs

     per-process dynamical memory:    45.8 Mb

     Self-consistent Calculation

     iteration #  1     ecut=    90.00 Ry     beta=0.70
     Davidson diagonalization with overlap
     ethr =  1.00E-06,  avg # of iterations =  2.0

     Threshold (ethr) on eigenvalues was too large:
     Diagonalizing with lowered threshold

     Davidson diagonalization with overlap
     ethr =  7.89E-10,  avg # of iterations =  3.0

     negative rho (up, down):  9.953E-06 0.000E+00

     total cpu time spent up to now is       17.3 secs

     total energy              =     -34.18367270 Ry
     Harris-Foulkes estimate   =     -34.18367168 Ry
     estimated scf accuracy    <       0.00000008 Ry

     iteration #  2     ecut=    90.00 Ry     beta=0.70
     Davidson diagonalization with overlap
     ethr =  1.03E-09,  avg # of iterations =  2.0

     negative rho (up, down):  1.872E-07 0.000E+00

     total cpu time spent up to now is       17.4 secs

     total energy              =     -34.18367271 Ry
     Harris-Foulkes estimate   =     -34.18367272 Ry
     estimated scf accuracy    <          4.6E-09 Ry

     iteration #  3     ecut=    90.00 Ry     beta=0.70
     Davidson diagonalization with overlap
     ethr =  5.75E-11,  avg # of iterations =  2.0

     total cpu time spent up to now is       17.6 secs

     total energy              =     -34.18367279 Ry
     Harris-Foulkes estimate   =     -34.18367271 Ry
     estimated scf accuracy    <          1.6E-10 Ry

     iteration #  4     ecut=    90.00 Ry     beta=0.70
     Davidson diagonalization with overlap
     ethr =  1.97E-12,  avg # of iterations =  2.0

     total cpu time spent up to now is       17.9 secs

     End of self-consistent calculation

          k = 0.0000 0.0000 0.0000 (115313 PWs)   bands (ev):

   -25.0972 -12.7523  -9.1734  -7.0780  -0.9464   0.4259   0.7481   1.1191

     the Fermi energy is    -5.0948 ev

!    total energy              =     -34.18367278 Ry
     Harris-Foulkes estimate   =     -34.18367279 Ry
     estimated scf accuracy    <          4.1E-12 Ry

     The total energy is the sum of the following terms:

     one-electron contribution =     -63.66014108 Ry
     hartree contribution      =      33.25158334 Ry
     xc contribution           =      -8.35538016 Ry
     ewald contribution        =       4.58026512 Ry
     smearing contrib. (-TS)   =       0.00000000 Ry

     convergence has been achieved in   4 iterations

     Forces acting on atoms (Ry/au):

     atom    1 type  1   force =     0.00010557   -0.00015587    0.00031766
     atom    2 type  1   force =     0.00027218    0.00003182    0.00023159
     atom    3 type  2   force =    -0.00037775    0.00012405   -0.00054925

     Total force =     0.000851     Total SCF correction =     0.000021

     bfgs converged in   7 scf cycles and   5 bfgs steps
     (criteria: energy <  1.0E-04, force <  1.0E-03)

     End of BFGS Geometry Optimization

     Final energy   =     -34.1836727783 Ry
Begin final coordinates

ATOMIC_POSITIONS (angstrom)
H        0.276739757   0.887742243   0.159376443
H        0.644759038  -0.427104600  -0.554489571
O       -0.022524796  -0.040298642   0.051522128
End final coordinates



     Writing output data file pwscf.save
 
     init_run     :      0.53s CPU      0.62s WALL (       1 calls)
     electrons    :     12.08s CPU     14.54s WALL (       7 calls)
     update_pot   :      1.45s CPU      1.81s WALL (       6 calls)
     forces       :      0.47s CPU      0.48s WALL (       7 calls)

     Called by init_run:
     wfcinit      :      0.02s CPU      0.04s WALL (       1 calls)
     potinit      :      0.11s CPU      0.12s WALL (       1 calls)

     Called by electrons:
     c_bands      :      6.05s CPU      6.26s WALL (      47 calls)
     sum_band     :      1.16s CPU      1.62s WALL (      47 calls)
     v_of_rho     :      2.83s CPU      3.10s WALL (      53 calls)
     mix_rho      :      1.09s CPU      2.03s WALL (      47 calls)

     Called by c_bands:
     init_us_2    :      0.03s CPU      0.03s WALL (      95 calls)
     cegterg      :      6.02s CPU      6.19s WALL (      47 calls)

     Called by sum_band:

     Called by *egterg:
     h_psi        :      5.08s CPU      5.23s WALL (     372 calls)
     g_psi        :      0.04s CPU      0.04s WALL (     324 calls)
     cdiaghg      :      0.12s CPU      0.13s WALL (     364 calls)

     Called by h_psi:
     h_psi:pot    :      5.03s CPU      5.18s WALL (     372 calls)
     h_psi:calbec :      0.17s CPU      0.19s WALL (     372 calls)
     vloc_psi     :      4.83s CPU      4.96s WALL (     372 calls)
     add_vuspsi   :      0.03s CPU      0.03s WALL (     372 calls)

     General routines
     calbec       :      0.17s CPU      0.19s WALL (     400 calls)
     fft          :      2.16s CPU      2.65s WALL (     598 calls)
     fftw         :      4.86s CPU      5.21s WALL (    3426 calls)
     davcio       :      0.14s CPU      0.84s WALL (     350 calls)
 
     Parallel routines
     fft_scatter  :      2.96s CPU      3.76s WALL (    4024 calls)
 
     PWSCF        :    15.03s CPU        18.47s WALL

 
   This run was terminated on:   2:27:23  28Jul2018            

=------------------------------------------------------------------------------=
   JOB DONE.
=------------------------------------------------------------------------------=
