
     Program PWSCF v.6.0 (svn rev. 13079) starts on 28Jul2018 at  2:51:21 

     This program is part of the open-source Quantum ESPRESSO suite
     for quantum simulation of materials; please cite
         "P. Giannozzi et al., J. Phys.:Condens. Matter 21 395502 (2009);
          URL http://www.quantum-espresso.org", 
     in publications or presentations arising from this work. More details at
     http://www.quantum-espresso.org/quote

     Parallel version (MPI), running on    28 processors
     R & G space division:  proc/nbgrp/npool/nimage =      28
     Reading input from ../QMCmins/relax-97.in

     Current dimensions of program PWSCF are:
     Max number of different atomic species (ntypx) = 10
     Max number of k-points (npk) =  40000
     Max angular momentum in pseudopotentials (lmaxx) =  3
     Message from routine iosys:
     pot_extrapolation='second-order' not available, using 'atomic'
     Message from routine iosys:
     wfc_extrapolation='second-order' not available, using 'atomic'

     Subspace diagonalization in iterative solution of the eigenvalue problem:
     a serial algorithm will be used

 
     Parallelization info
     --------------------
     sticks:   dense  smooth     PW     G-vecs:    dense   smooth      PW
     Min         408     408    102                32936    32936    4116
     Max         409     409    103                32943    32943    4121
     Sum       11449   11449   2869               922329   922329  115313
 


     bravais-lattice index     =            1
     lattice parameter (alat)  =      20.0000  a.u.
     unit-cell volume          =    8000.0000 (a.u.)^3
     number of atoms/cell      =            3
     number of atomic types    =            2
     number of electrons       =         8.00
     number of Kohn-Sham states=            8
     kinetic-energy cutoff     =      90.0000  Ry
     charge density cutoff     =     360.0000  Ry
     convergence threshold     =      1.0E-08
     mixing beta               =       0.7000
     number of iterations used =            8  plain     mixing
     Exchange-correlation      = BLYP ( 1  3  1  3 0 0)
     nstep                     =           50


     celldm(1)=  20.000000  celldm(2)=   0.000000  celldm(3)=   0.000000
     celldm(4)=   0.000000  celldm(5)=   0.000000  celldm(6)=   0.000000

     crystal axes: (cart. coord. in units of alat)
               a(1) = (   1.000000   0.000000   0.000000 )  
               a(2) = (   0.000000   1.000000   0.000000 )  
               a(3) = (   0.000000   0.000000   1.000000 )  

     reciprocal axes: (cart. coord. in units 2 pi/alat)
               b(1) = (  1.000000  0.000000  0.000000 )  
               b(2) = (  0.000000  1.000000  0.000000 )  
               b(3) = (  0.000000  0.000000  1.000000 )  


     PseudoPot. # 1 for  H read from file:
     ../H.blyp-hgh.UPF
     MD5 check sum: c576e69559cde411e611be972c763230
     Pseudo is Norm-conserving, Zval =  1.0
     Generated in analytical, separable form
     Using radial grid of  929 points,  0 beta functions with: 

     PseudoPot. # 2 for  O read from file:
     ../O.blyp-hgh.UPF
     MD5 check sum: d0b7156309aa9befef28faac7bc56342
     Pseudo is Norm-conserving, Zval =  6.0
     Generated in analytical, separable form
     Using radial grid of 1095 points,  1 beta functions with: 
                l(1) =   0

     atomic species   valence    mass     pseudopotential
        H              1.00     1.01000      H( 1.00)
        O              6.00    16.00000      O( 1.00)

     No symmetry found



   Cartesian axes

     site n.     atom                  positions (alat units)
         1           H   tau(   1) = (   0.0291507  -0.0633622  -0.0556859  )
         2           H   tau(   2) = (   0.0715918   0.0366156   0.0564006  )
         3           O   tau(   3) = (  -0.0063594   0.0016884   0.0055328  )

     number of k points=     1  Marzari-Vanderbilt smearing, width (Ry)=  0.0250
                       cart. coord. in units 2pi/alat
        k(    1) = (   0.0000000   0.0000000   0.0000000), wk =   2.0000000

     Dense  grid:   922329 G-vectors     FFT dimensions: ( 125, 125, 125)

     Estimated max dynamical RAM per process >      31.67Mb

     Estimated total allocated dynamical RAM >     886.64Mb

     Initial potential from superposition of free atoms
     Check: negative starting charge=   -0.015898

     starting charge    7.99998, renormalised to    8.00000

     negative rho (up, down):  1.590E-02 0.000E+00
     Starting wfc are    6 randomized atomic wfcs +    2 random wfc

     total cpu time spent up to now is        0.7 secs

     per-process dynamical memory:    33.5 Mb

     Self-consistent Calculation

     iteration #  1     ecut=    90.00 Ry     beta=0.70
     Davidson diagonalization with overlap
     ethr =  1.00E-02,  avg # of iterations =  8.0

     negative rho (up, down):  4.603E-03 0.000E+00

     total cpu time spent up to now is        1.0 secs

     total energy              =     -34.03004787 Ry
     Harris-Foulkes estimate   =     -34.24817805 Ry
     estimated scf accuracy    <       0.33248456 Ry

     iteration #  2     ecut=    90.00 Ry     beta=0.70
     Davidson diagonalization with overlap
     ethr =  4.16E-03,  avg # of iterations =  2.0

     negative rho (up, down):  2.824E-03 0.000E+00

     total cpu time spent up to now is        1.1 secs

     total energy              =     -34.07409487 Ry
     Harris-Foulkes estimate   =     -34.27507299 Ry
     estimated scf accuracy    <       0.44957121 Ry

     iteration #  3     ecut=    90.00 Ry     beta=0.70
     Davidson diagonalization with overlap
     ethr =  4.16E-03,  avg # of iterations =  2.0

     negative rho (up, down):  1.529E-04 0.000E+00

     total cpu time spent up to now is        1.3 secs

     total energy              =     -34.17138282 Ry
     Harris-Foulkes estimate   =     -34.17205883 Ry
     estimated scf accuracy    <       0.00590839 Ry

     iteration #  4     ecut=    90.00 Ry     beta=0.70
     Davidson diagonalization with overlap
     ethr =  7.39E-05,  avg # of iterations =  6.0

     negative rho (up, down):  7.027E-06 0.000E+00

     total cpu time spent up to now is        1.7 secs

     total energy              =     -34.17295397 Ry
     Harris-Foulkes estimate   =     -34.17306002 Ry
     estimated scf accuracy    <       0.00029181 Ry

     iteration #  5     ecut=    90.00 Ry     beta=0.70
     Davidson diagonalization with overlap
     ethr =  3.65E-06,  avg # of iterations = 10.0

     negative rho (up, down):  4.192E-06 0.000E+00

     total cpu time spent up to now is        1.9 secs

     total energy              =     -34.17297386 Ry
     Harris-Foulkes estimate   =     -34.17297764 Ry
     estimated scf accuracy    <       0.00001792 Ry

     iteration #  6     ecut=    90.00 Ry     beta=0.70
     Davidson diagonalization with overlap
     ethr =  2.24E-07,  avg # of iterations =  2.0

     negative rho (up, down):  1.186E-07 0.000E+00

     total cpu time spent up to now is        2.2 secs

     total energy              =     -34.17297550 Ry
     Harris-Foulkes estimate   =     -34.17297620 Ry
     estimated scf accuracy    <       0.00000019 Ry

     iteration #  7     ecut=    90.00 Ry     beta=0.70
     Davidson diagonalization with overlap
     ethr =  2.43E-09,  avg # of iterations =  3.0

     total cpu time spent up to now is        2.4 secs

     total energy              =     -34.17297517 Ry
     Harris-Foulkes estimate   =     -34.17297555 Ry
     estimated scf accuracy    <       0.00000002 Ry

     iteration #  8     ecut=    90.00 Ry     beta=0.70
     Davidson diagonalization with overlap
     ethr =  2.53E-10,  avg # of iterations =  2.0

     total cpu time spent up to now is        2.5 secs

     End of self-consistent calculation

          k = 0.0000 0.0000 0.0000 (115313 PWs)   bands (ev):

   -24.5251 -12.3850  -8.9733  -6.9689  -1.1294   0.3700   0.6020   1.1293

     the Fermi energy is    -4.9442 ev

!    total energy              =     -34.17297507 Ry
     Harris-Foulkes estimate   =     -34.17297517 Ry
     estimated scf accuracy    <          4.4E-09 Ry

     The total energy is the sum of the following terms:

     one-electron contribution =     -62.45956116 Ry
     hartree contribution      =      32.68317237 Ry
     xc contribution           =      -8.26379693 Ry
     ewald contribution        =       3.86721064 Ry
     smearing contrib. (-TS)   =       0.00000000 Ry

     convergence has been achieved in   8 iterations

     Forces acting on atoms (Ry/au):

     atom    1 type  1   force =    -0.01240522    0.04360426    0.04442028
     atom    2 type  1   force =    -0.07820366   -0.04544966   -0.06064969
     atom    3 type  2   force =     0.09060889    0.00184539    0.01622941

     Total force =     0.156093     Total SCF correction =     0.000099

     BFGS Geometry Optimization

     number of scf cycles    =   1
     number of bfgs steps    =   0

     energy   new            =     -34.1729750711 Ry

     new trust radius        =       0.1089030261 bohr
     new conv_thr            =       0.0000000100 Ry


ATOMIC_POSITIONS (angstrom)
H        0.301953439  -0.647522618  -0.565847801
H        0.716311404   0.363472077   0.564823566
O       -0.019356843   0.018845541   0.067145234



     Writing output data file pwscf.save
     Check: negative starting charge=   -0.015898
     NEW-OLD atomic charge density approx. for the potential
     Check: negative starting charge=   -0.015950

     negative rho (up, down):  1.667E-02 0.000E+00

     total cpu time spent up to now is        3.1 secs

     per-process dynamical memory:    45.8 Mb

     Self-consistent Calculation

     iteration #  1     ecut=    90.00 Ry     beta=0.70
     Davidson diagonalization with overlap
     c_bands:  1 eigenvalues not converged
     ethr =  1.00E-06,  avg # of iterations = 20.0

     negative rho (up, down):  4.369E-03 0.000E+00

     total cpu time spent up to now is        3.5 secs

     total energy              =     -34.16706585 Ry
     Harris-Foulkes estimate   =     -34.17165356 Ry
     estimated scf accuracy    <       0.01282277 Ry

     iteration #  2     ecut=    90.00 Ry     beta=0.70
     Davidson diagonalization with overlap
     ethr =  1.60E-04,  avg # of iterations =  4.0

     negative rho (up, down):  2.708E-03 0.000E+00

     total cpu time spent up to now is        3.8 secs

     total energy              =     -34.17230710 Ry
     Harris-Foulkes estimate   =     -34.17663446 Ry
     estimated scf accuracy    <       0.01372760 Ry

     iteration #  3     ecut=    90.00 Ry     beta=0.70
     Davidson diagonalization with overlap
     ethr =  1.60E-04,  avg # of iterations =  3.0

     negative rho (up, down):  5.649E-04 0.000E+00

     total cpu time spent up to now is        3.9 secs

     total energy              =     -34.17663855 Ry
     Harris-Foulkes estimate   =     -34.17509258 Ry
     estimated scf accuracy    <       0.00006403 Ry

     iteration #  4     ecut=    90.00 Ry     beta=0.70
     Davidson diagonalization with overlap
     ethr =  8.00E-07,  avg # of iterations = 15.0

     negative rho (up, down):  9.743E-05 0.000E+00

     total cpu time spent up to now is        4.4 secs

     total energy              =     -34.18078012 Ry
     Harris-Foulkes estimate   =     -34.18076522 Ry
     estimated scf accuracy    <       0.00000264 Ry

     iteration #  5     ecut=    90.00 Ry     beta=0.70
     Davidson diagonalization with overlap
     ethr =  3.31E-08,  avg # of iterations =  4.0

     total cpu time spent up to now is        4.6 secs

     total energy              =     -34.18077610 Ry
     Harris-Foulkes estimate   =     -34.18078077 Ry
     estimated scf accuracy    <       0.00000016 Ry

     iteration #  6     ecut=    90.00 Ry     beta=0.70
     Davidson diagonalization with overlap
     ethr =  2.04E-09,  avg # of iterations =  3.0

     total cpu time spent up to now is        4.7 secs

     End of self-consistent calculation

          k = 0.0000 0.0000 0.0000 (115313 PWs)   bands (ev):

   -25.1919 -13.1954  -8.9125  -7.0840  -0.8862   0.4474   0.7705   1.1390

     the Fermi energy is    -5.1036 ev

!    total energy              =     -34.18077592 Ry
     Harris-Foulkes estimate   =     -34.18077619 Ry
     estimated scf accuracy    <          2.0E-09 Ry

     The total energy is the sum of the following terms:

     one-electron contribution =     -64.04376315 Ry
     hartree contribution      =      33.44313040 Ry
     xc contribution           =      -8.38656959 Ry
     ewald contribution        =       4.80642641 Ry
     smearing contrib. (-TS)   =       0.00000000 Ry

     convergence has been achieved in   6 iterations

     Forces acting on atoms (Ry/au):

     atom    1 type  1   force =     0.01678481   -0.00313659    0.00031701
     atom    2 type  1   force =     0.05057509    0.00978862    0.02014337
     atom    3 type  2   force =    -0.06735989   -0.00665203   -0.02046038

     Total force =     0.091386     Total SCF correction =     0.000098

     number of scf cycles    =   2
     number of bfgs steps    =   1

     energy   old            =     -34.1729750711 Ry
     energy   new            =     -34.1807759237 Ry

     CASE: energy  _new < energy  _old

     new trust radius        =       0.0435113415 bohr
     new conv_thr            =       0.0000000067 Ry


ATOMIC_POSITIONS (angstrom)
H        0.307598353  -0.647774010  -0.564872154
H        0.732525856   0.366020385   0.570707412
O       -0.041216209   0.016548625   0.060285743



     Writing output data file pwscf.save
     Check: negative starting charge=   -0.015950
     NEW-OLD atomic charge density approx. for the potential
     Check: negative starting charge=   -0.015956

     negative rho (up, down):  7.682E-03 0.000E+00

     total cpu time spent up to now is        5.3 secs

     per-process dynamical memory:    45.8 Mb

     Self-consistent Calculation

     iteration #  1     ecut=    90.00 Ry     beta=0.70
     Davidson diagonalization with overlap
     c_bands:  1 eigenvalues not converged
     ethr =  1.00E-06,  avg # of iterations = 20.0

     negative rho (up, down):  1.995E-03 0.000E+00

     total cpu time spent up to now is        5.7 secs

     total energy              =     -34.17747431 Ry
     Harris-Foulkes estimate   =     -34.17004210 Ry
     estimated scf accuracy    <       0.00137167 Ry

     iteration #  2     ecut=    90.00 Ry     beta=0.70
     Davidson diagonalization with overlap
     ethr =  1.71E-05,  avg # of iterations =  7.0

     negative rho (up, down):  1.214E-03 0.000E+00

     total cpu time spent up to now is        6.0 secs

     total energy              =     -34.18248864 Ry
     Harris-Foulkes estimate   =     -34.18243617 Ry
     estimated scf accuracy    <       0.00118283 Ry

     iteration #  3     ecut=    90.00 Ry     beta=0.70
     Davidson diagonalization with overlap
     ethr =  1.48E-05,  avg # of iterations = 11.0

     negative rho (up, down):  2.950E-04 0.000E+00

     total cpu time spent up to now is        6.2 secs

     total energy              =     -34.18287737 Ry
     Harris-Foulkes estimate   =     -34.18275917 Ry
     estimated scf accuracy    <       0.00001997 Ry

     iteration #  4     ecut=    90.00 Ry     beta=0.70
     Davidson diagonalization with overlap
     ethr =  2.50E-07,  avg # of iterations = 14.0

     negative rho (up, down):  1.958E-05 0.000E+00

     total cpu time spent up to now is        6.7 secs

     total energy              =     -34.18288765 Ry
     Harris-Foulkes estimate   =     -34.18288339 Ry
     estimated scf accuracy    <       0.00000051 Ry

     iteration #  5     ecut=    90.00 Ry     beta=0.70
     Davidson diagonalization with overlap
     ethr =  6.36E-09,  avg # of iterations =  3.0

     total cpu time spent up to now is        6.9 secs

     total energy              =     -34.18288817 Ry
     Harris-Foulkes estimate   =     -34.18288787 Ry
     estimated scf accuracy    <       0.00000002 Ry

     iteration #  6     ecut=    90.00 Ry     beta=0.70
     Davidson diagonalization with overlap
     ethr =  2.19E-10,  avg # of iterations =  2.0

     total cpu time spent up to now is        7.1 secs

     End of self-consistent calculation

          k = 0.0000 0.0000 0.0000 (115313 PWs)   bands (ev):

   -25.0113 -12.8860  -9.0006  -7.0561  -0.9486   0.4261   0.7338   1.1355

     the Fermi energy is    -5.0611 ev

!    total energy              =     -34.18288821 Ry
     Harris-Foulkes estimate   =     -34.18288818 Ry
     estimated scf accuracy    <          7.9E-10 Ry

     The total energy is the sum of the following terms:

     one-electron contribution =     -63.58097258 Ry
     hartree contribution      =      33.21935336 Ry
     xc contribution           =      -8.35002443 Ry
     ewald contribution        =       4.52875544 Ry
     smearing contrib. (-TS)   =       0.00000000 Ry

     convergence has been achieved in   6 iterations

     Forces acting on atoms (Ry/au):

     atom    1 type  1   force =     0.01117362   -0.00209465    0.00067877
     atom    2 type  1   force =    -0.01067731   -0.01390691   -0.01578618
     atom    3 type  2   force =    -0.00049631    0.01600156    0.01510741

     Total force =     0.034218     Total SCF correction =     0.000122

     number of scf cycles    =   3
     number of bfgs steps    =   2

     energy   old            =     -34.1807759237 Ry
     energy   new            =     -34.1828882109 Ry

     CASE: energy  _new < energy  _old

     new trust radius        =       0.0194868050 bohr
     new conv_thr            =       0.0000000016 Ry


ATOMIC_POSITIONS (angstrom)
H        0.314161060  -0.648773242  -0.564281392
H        0.731423880   0.360124743   0.564733536
O       -0.046676940   0.023443499   0.065668856



     Writing output data file pwscf.save
     Check: negative starting charge=   -0.015956
     NEW-OLD atomic charge density approx. for the potential
     Check: negative starting charge=   -0.015962

     negative rho (up, down):  3.341E-03 0.000E+00

     total cpu time spent up to now is        7.7 secs

     per-process dynamical memory:    45.8 Mb

     Self-consistent Calculation

     iteration #  1     ecut=    90.00 Ry     beta=0.70
     Davidson diagonalization with overlap
     c_bands:  1 eigenvalues not converged
     ethr =  1.00E-06,  avg # of iterations = 20.0

     negative rho (up, down):  8.610E-04 0.000E+00

     total cpu time spent up to now is        8.1 secs

     total energy              =     -34.17915246 Ry
     Harris-Foulkes estimate   =     -34.17685028 Ry
     estimated scf accuracy    <       0.00011828 Ry

     iteration #  2     ecut=    90.00 Ry     beta=0.70
     Davidson diagonalization with overlap
     ethr =  1.48E-06,  avg # of iterations = 14.0

     negative rho (up, down):  4.234E-04 0.000E+00

     total cpu time spent up to now is        8.4 secs

     total energy              =     -34.18327501 Ry
     Harris-Foulkes estimate   =     -34.18328056 Ry
     estimated scf accuracy    <       0.00004274 Ry

     iteration #  3     ecut=    90.00 Ry     beta=0.70
     Davidson diagonalization with overlap
     ethr =  5.34E-07,  avg # of iterations =  3.0

     negative rho (up, down):  1.129E-04 0.000E+00

     total cpu time spent up to now is        8.6 secs

     total energy              =     -34.18329091 Ry
     Harris-Foulkes estimate   =     -34.18328936 Ry
     estimated scf accuracy    <       0.00000652 Ry

     iteration #  4     ecut=    90.00 Ry     beta=0.70
     Davidson diagonalization with overlap
     ethr =  8.15E-08,  avg # of iterations =  3.0

     negative rho (up, down):  1.307E-06 0.000E+00

     total cpu time spent up to now is        8.8 secs

     total energy              =     -34.18329494 Ry
     Harris-Foulkes estimate   =     -34.18329256 Ry
     estimated scf accuracy    <       0.00000015 Ry

     iteration #  5     ecut=    90.00 Ry     beta=0.70
     Davidson diagonalization with overlap
     ethr =  1.93E-09,  avg # of iterations =  4.0

     total cpu time spent up to now is        9.1 secs

     total energy              =     -34.18329515 Ry
     Harris-Foulkes estimate   =     -34.18329503 Ry
     estimated scf accuracy    <          3.0E-09 Ry

     iteration #  6     ecut=    90.00 Ry     beta=0.70
     Davidson diagonalization with overlap
     ethr =  3.71E-11,  avg # of iterations =  2.0

     total cpu time spent up to now is        9.2 secs

     End of self-consistent calculation

          k = 0.0000 0.0000 0.0000 (115313 PWs)   bands (ev):

   -25.0029 -12.7937  -9.0656  -7.0574  -0.9591   0.4226   0.7305   1.1529

     the Fermi energy is    -5.0459 ev

!    total energy              =     -34.18329520 Ry
     Harris-Foulkes estimate   =     -34.18329516 Ry
     estimated scf accuracy    <          1.5E-10 Ry

     The total energy is the sum of the following terms:

     one-electron contribution =     -63.51996209 Ry
     hartree contribution      =      33.18797487 Ry
     xc contribution           =      -8.34494555 Ry
     ewald contribution        =       4.49363757 Ry
     smearing contrib. (-TS)   =       0.00000000 Ry

     convergence has been achieved in   6 iterations

     Forces acting on atoms (Ry/au):

     atom    1 type  1   force =    -0.00081667    0.01269614    0.01391774
     atom    2 type  1   force =    -0.00219216   -0.00677691   -0.00663255
     atom    3 type  2   force =     0.00300883   -0.00591923   -0.00728520

     Total force =     0.023398     Total SCF correction =     0.000016

     number of scf cycles    =   4
     number of bfgs steps    =   3

     energy   old            =     -34.1828882109 Ry
     energy   new            =     -34.1832951992 Ry

     CASE: energy  _new < energy  _old

     new trust radius        =       0.0201803347 bohr
     new conv_thr            =       0.0000000004 Ry


ATOMIC_POSITIONS (angstrom)
H        0.317810543  -0.642536210  -0.556418748
H        0.730165719   0.353090516   0.557833436
O       -0.049068262   0.024240694   0.064706312



     Writing output data file pwscf.save
     Check: negative starting charge=   -0.015962
     NEW-OLD atomic charge density approx. for the potential
     Check: negative starting charge=   -0.015969

     negative rho (up, down):  7.643E-04 0.000E+00

     total cpu time spent up to now is        9.7 secs

     per-process dynamical memory:    45.8 Mb

     Self-consistent Calculation

     iteration #  1     ecut=    90.00 Ry     beta=0.70
     Davidson diagonalization with overlap
     ethr =  1.00E-06,  avg # of iterations =  5.0

     negative rho (up, down):  1.846E-04 0.000E+00

     total cpu time spent up to now is       10.0 secs

     total energy              =     -34.18358361 Ry
     Harris-Foulkes estimate   =     -34.18360990 Ry
     estimated scf accuracy    <       0.00007604 Ry

     iteration #  2     ecut=    90.00 Ry     beta=0.70
     Davidson diagonalization with overlap
     ethr =  9.50E-07,  avg # of iterations =  3.0

     negative rho (up, down):  1.007E-04 0.000E+00

     total cpu time spent up to now is       10.2 secs

     total energy              =     -34.18359660 Ry
     Harris-Foulkes estimate   =     -34.18362299 Ry
     estimated scf accuracy    <       0.00005585 Ry

     iteration #  3     ecut=    90.00 Ry     beta=0.70
     Davidson diagonalization with overlap
     ethr =  6.98E-07,  avg # of iterations =  2.0

     negative rho (up, down):  5.149E-06 0.000E+00

     total cpu time spent up to now is       10.4 secs

     total energy              =     -34.18361289 Ry
     Harris-Foulkes estimate   =     -34.18361050 Ry
     estimated scf accuracy    <       0.00000207 Ry

     iteration #  4     ecut=    90.00 Ry     beta=0.70
     Davidson diagonalization with overlap
     ethr =  2.58E-08,  avg # of iterations =  3.0

     negative rho (up, down):  6.332E-08 0.000E+00

     total cpu time spent up to now is       10.6 secs

     total energy              =     -34.18361390 Ry
     Harris-Foulkes estimate   =     -34.18361334 Ry
     estimated scf accuracy    <       0.00000002 Ry

     iteration #  5     ecut=    90.00 Ry     beta=0.70
     Davidson diagonalization with overlap
     ethr =  2.48E-10,  avg # of iterations =  2.0

     total cpu time spent up to now is       10.8 secs

     total energy              =     -34.18361399 Ry
     Harris-Foulkes estimate   =     -34.18361391 Ry
     estimated scf accuracy    <          1.2E-09 Ry

     iteration #  6     ecut=    90.00 Ry     beta=0.70
     Davidson diagonalization with overlap
     ethr =  1.47E-11,  avg # of iterations =  2.0

     total cpu time spent up to now is       11.0 secs

     End of self-consistent calculation

          k = 0.0000 0.0000 0.0000 (115313 PWs)   bands (ev):

   -25.0839 -12.7987  -9.1274  -7.0740  -0.9429   0.4273   0.7466   1.1551

     the Fermi energy is    -5.0645 ev

!    total energy              =     -34.18361403 Ry
     Harris-Foulkes estimate   =     -34.18361399 Ry
     estimated scf accuracy    <          1.4E-10 Ry

     The total energy is the sum of the following terms:

     one-electron contribution =     -63.66107124 Ry
     hartree contribution      =      33.25344787 Ry
     xc contribution           =      -8.35566267 Ry
     ewald contribution        =       4.57967201 Ry
     smearing contrib. (-TS)   =       0.00000000 Ry

     convergence has been achieved in   6 iterations

     Forces acting on atoms (Ry/au):

     atom    1 type  1   force =     0.00070625    0.00256733    0.00373163
     atom    2 type  1   force =     0.00330170   -0.00116075    0.00032840
     atom    3 type  2   force =    -0.00400795   -0.00140659   -0.00406003

     Total force =     0.008240     Total SCF correction =     0.000023

     number of scf cycles    =   5
     number of bfgs steps    =   4

     energy   old            =     -34.1832951992 Ry
     energy   new            =     -34.1836140331 Ry

     CASE: energy  _new < energy  _old

     new trust radius        =       0.0090998256 bohr
     new conv_thr            =       0.0000000003 Ry


ATOMIC_POSITIONS (angstrom)
H        0.320111309  -0.640279314  -0.552840876
H        0.731129498   0.349822922   0.555392804
O       -0.052332808   0.025251392   0.063569072



     Writing output data file pwscf.save
     Check: negative starting charge=   -0.015969
     NEW-OLD atomic charge density approx. for the potential
     Check: negative starting charge=   -0.015970

     negative rho (up, down):  1.031E-03 0.000E+00

     total cpu time spent up to now is       11.5 secs

     per-process dynamical memory:    45.8 Mb

     Self-consistent Calculation

     iteration #  1     ecut=    90.00 Ry     beta=0.70
     Davidson diagonalization with overlap
     ethr =  1.00E-06,  avg # of iterations =  5.0

     negative rho (up, down):  2.551E-04 0.000E+00

     total cpu time spent up to now is       12.0 secs

     total energy              =     -34.18365165 Ry
     Harris-Foulkes estimate   =     -34.18360532 Ry
     estimated scf accuracy    <       0.00000876 Ry

     iteration #  2     ecut=    90.00 Ry     beta=0.70
     Davidson diagonalization with overlap
     ethr =  1.10E-07,  avg # of iterations =  4.0

     negative rho (up, down):  6.781E-05 0.000E+00

     total cpu time spent up to now is       12.2 secs

     total energy              =     -34.18365550 Ry
     Harris-Foulkes estimate   =     -34.18365411 Ry
     estimated scf accuracy    <       0.00000143 Ry

     iteration #  3     ecut=    90.00 Ry     beta=0.70
     Davidson diagonalization with overlap
     ethr =  1.79E-08,  avg # of iterations =  2.0

     negative rho (up, down):  8.323E-06 0.000E+00

     total cpu time spent up to now is       12.4 secs

     total energy              =     -34.18365768 Ry
     Harris-Foulkes estimate   =     -34.18365621 Ry
     estimated scf accuracy    <       0.00000079 Ry

     iteration #  4     ecut=    90.00 Ry     beta=0.70
     Davidson diagonalization with overlap
     ethr =  9.92E-09,  avg # of iterations =  3.0

     negative rho (up, down):  2.566E-08 0.000E+00

     total cpu time spent up to now is       12.6 secs

     total energy              =     -34.18365829 Ry
     Harris-Foulkes estimate   =     -34.18365787 Ry
     estimated scf accuracy    <       0.00000001 Ry

     iteration #  5     ecut=    90.00 Ry     beta=0.70
     Davidson diagonalization with overlap
     ethr =  1.49E-10,  avg # of iterations =  2.0

     total cpu time spent up to now is       12.7 secs

     End of self-consistent calculation

          k = 0.0000 0.0000 0.0000 (115313 PWs)   bands (ev):

   -25.0993 -12.7652  -9.1649  -7.0781  -0.9437   0.4270   0.7491   1.1558

     the Fermi energy is    -5.0678 ev

!    total energy              =     -34.18365838 Ry
     Harris-Foulkes estimate   =     -34.18365830 Ry
     estimated scf accuracy    <          2.8E-10 Ry

     The total energy is the sum of the following terms:

     one-electron contribution =     -63.67018586 Ry
     hartree contribution      =      33.25663611 Ry
     xc contribution           =      -8.35618658 Ry
     ewald contribution        =       4.58607795 Ry
     smearing contrib. (-TS)   =       0.00000000 Ry

     convergence has been achieved in   5 iterations

     Forces acting on atoms (Ry/au):

     atom    1 type  1   force =    -0.00000288   -0.00058451    0.00037010
     atom    2 type  1   force =     0.00040580   -0.00037492    0.00063158
     atom    3 type  2   force =    -0.00040292    0.00095943   -0.00100168

     Total force =     0.001808     Total SCF correction =     0.000191
     SCF correction compared to forces is large: reduce conv_thr to get better values

     number of scf cycles    =   6
     number of bfgs steps    =   5

     energy   old            =     -34.1836140331 Ry
     energy   new            =     -34.1836583794 Ry

     CASE: energy  _new < energy  _old

     new trust radius        =       0.0017387627 bohr
     new conv_thr            =            1.0E-10 Ry


ATOMIC_POSITIONS (angstrom)
H        0.320271968  -0.640409669  -0.552339420
H        0.731275038   0.349298457   0.555460613
O       -0.052639006   0.025906212   0.062999807



     Writing output data file pwscf.save
     Check: negative starting charge=   -0.015970
     NEW-OLD atomic charge density approx. for the potential
     Check: negative starting charge=   -0.015969

     negative rho (up, down):  2.104E-04 0.000E+00

     total cpu time spent up to now is       13.3 secs

     per-process dynamical memory:    45.8 Mb

     Self-consistent Calculation

     iteration #  1     ecut=    90.00 Ry     beta=0.70
     Davidson diagonalization with overlap
     ethr =  1.00E-06,  avg # of iterations =  3.0

     Threshold (ethr) on eigenvalues was too large:
     Diagonalizing with lowered threshold

     Davidson diagonalization with overlap
     ethr =  7.06E-09,  avg # of iterations =  2.0

     negative rho (up, down):  4.345E-05 0.000E+00

     total cpu time spent up to now is       13.6 secs

     total energy              =     -34.18366085 Ry
     Harris-Foulkes estimate   =     -34.18366062 Ry
     estimated scf accuracy    <       0.00000054 Ry

     iteration #  2     ecut=    90.00 Ry     beta=0.70
     Davidson diagonalization with overlap
     ethr =  6.75E-09,  avg # of iterations =  2.0

     negative rho (up, down):  1.155E-05 0.000E+00

     total cpu time spent up to now is       13.9 secs

     total energy              =     -34.18366140 Ry
     Harris-Foulkes estimate   =     -34.18366103 Ry
     estimated scf accuracy    <       0.00000012 Ry

     iteration #  3     ecut=    90.00 Ry     beta=0.70
     Davidson diagonalization with overlap
     ethr =  1.56E-09,  avg # of iterations =  3.0

     negative rho (up, down):  2.354E-07 0.000E+00

     total cpu time spent up to now is       14.2 secs

     total energy              =     -34.18366176 Ry
     Harris-Foulkes estimate   =     -34.18366146 Ry
     estimated scf accuracy    <       0.00000005 Ry

     iteration #  4     ecut=    90.00 Ry     beta=0.70
     Davidson diagonalization with overlap
     ethr =  5.99E-10,  avg # of iterations =  2.0

     total cpu time spent up to now is       14.4 secs

     total energy              =     -34.18366189 Ry
     Harris-Foulkes estimate   =     -34.18366178 Ry
     estimated scf accuracy    <          3.2E-10 Ry

     iteration #  5     ecut=    90.00 Ry     beta=0.70
     Davidson diagonalization with overlap
     ethr =  3.96E-12,  avg # of iterations =  3.0

     total cpu time spent up to now is       14.5 secs

     End of self-consistent calculation

          k = 0.0000 0.0000 0.0000 (115313 PWs)   bands (ev):

   -25.0989 -12.7600  -9.1686  -7.0782  -0.9444   0.4265   0.7489   1.1556

     the Fermi energy is    -5.0679 ev

!    total energy              =     -34.18366191 Ry
     Harris-Foulkes estimate   =     -34.18366189 Ry
     estimated scf accuracy    <          4.6E-11 Ry

     The total energy is the sum of the following terms:

     one-electron contribution =     -63.66686068 Ry
     hartree contribution      =      33.25495321 Ry
     xc contribution           =      -8.35591449 Ry
     ewald contribution        =       4.58416006 Ry
     smearing contrib. (-TS)   =       0.00000000 Ry

     convergence has been achieved in   5 iterations

     Forces acting on atoms (Ry/au):

     atom    1 type  1   force =    -0.00015059   -0.00064410    0.00030929
     atom    2 type  1   force =    -0.00005647   -0.00041689    0.00052543
     atom    3 type  2   force =     0.00020706    0.00106099   -0.00083472

     Total force =     0.001689     Total SCF correction =     0.000045

     number of scf cycles    =   7
     number of bfgs steps    =   6

     energy   old            =     -34.1836583794 Ry
     energy   new            =     -34.1836619131 Ry

     CASE: energy  _new < energy  _old


     WARNING: bfgs curvature condition failed, Theta= 0.960
     new trust radius        =       0.0019126390 bohr
     new conv_thr            =            1.0E-10 Ry


ATOMIC_POSITIONS (angstrom)
H        0.320343633  -0.640645550  -0.551850915
H        0.731353177   0.348784953   0.555635717
O       -0.052788810   0.026655597   0.062336198



     Writing output data file pwscf.save
     Check: negative starting charge=   -0.015969
     NEW-OLD atomic charge density approx. for the potential
     Check: negative starting charge=   -0.015968

     negative rho (up, down):  2.346E-04 0.000E+00

     total cpu time spent up to now is       15.1 secs

     per-process dynamical memory:    45.8 Mb

     Self-consistent Calculation

     iteration #  1     ecut=    90.00 Ry     beta=0.70
     Davidson diagonalization with overlap
     ethr =  1.00E-06,  avg # of iterations =  3.0

     Threshold (ethr) on eigenvalues was too large:
     Diagonalizing with lowered threshold

     Davidson diagonalization with overlap
     ethr =  7.55E-09,  avg # of iterations =  2.0

     negative rho (up, down):  4.941E-05 0.000E+00

     total cpu time spent up to now is       15.3 secs

     total energy              =     -34.18366429 Ry
     Harris-Foulkes estimate   =     -34.18366361 Ry
     estimated scf accuracy    <       0.00000061 Ry

     iteration #  2     ecut=    90.00 Ry     beta=0.70
     Davidson diagonalization with overlap
     ethr =  7.66E-09,  avg # of iterations =  2.0

     negative rho (up, down):  9.918E-06 0.000E+00

     total cpu time spent up to now is       15.5 secs

     total energy              =     -34.18366497 Ry
     Harris-Foulkes estimate   =     -34.18366447 Ry
     estimated scf accuracy    <       0.00000011 Ry

     iteration #  3     ecut=    90.00 Ry     beta=0.70
     Davidson diagonalization with overlap
     ethr =  1.32E-09,  avg # of iterations =  3.0

     negative rho (up, down):  2.514E-07 0.000E+00

     total cpu time spent up to now is       15.7 secs

     total energy              =     -34.18366531 Ry
     Harris-Foulkes estimate   =     -34.18366504 Ry
     estimated scf accuracy    <       0.00000006 Ry

     iteration #  4     ecut=    90.00 Ry     beta=0.70
     Davidson diagonalization with overlap
     ethr =  7.35E-10,  avg # of iterations =  2.0

     total cpu time spent up to now is       15.9 secs

     total energy              =     -34.18366538 Ry
     Harris-Foulkes estimate   =     -34.18366533 Ry
     estimated scf accuracy    <          3.7E-10 Ry

     iteration #  5     ecut=    90.00 Ry     beta=0.70
     Davidson diagonalization with overlap
     ethr =  4.68E-12,  avg # of iterations =  3.0

     total cpu time spent up to now is       16.0 secs

     End of self-consistent calculation

          k = 0.0000 0.0000 0.0000 (115313 PWs)   bands (ev):

   -25.0987 -12.7564  -9.1712  -7.0783  -0.9448   0.4263   0.7488   1.1555

     the Fermi energy is    -5.0679 ev

!    total energy              =     -34.18366538 Ry
     Harris-Foulkes estimate   =     -34.18366538 Ry
     estimated scf accuracy    <          4.4E-11 Ry

     The total energy is the sum of the following terms:

     one-electron contribution =     -63.66463222 Ry
     hartree contribution      =      33.25380877 Ry
     xc contribution           =      -8.35573085 Ry
     ewald contribution        =       4.58288892 Ry
     smearing contrib. (-TS)   =       0.00000000 Ry

     convergence has been achieved in   5 iterations

     Forces acting on atoms (Ry/au):

     atom    1 type  1   force =    -0.00027868   -0.00066982    0.00026265
     atom    2 type  1   force =    -0.00037696   -0.00042374    0.00045787
     atom    3 type  2   force =     0.00065564    0.00109355   -0.00072052

     Total force =     0.001809     Total SCF correction =     0.000038

     number of scf cycles    =   8
     number of bfgs steps    =   7

     energy   old            =     -34.1836619131 Ry
     energy   new            =     -34.1836653832 Ry

     CASE: energy  _new < energy  _old

     new trust radius        =       0.0028689584 bohr
     new conv_thr            =            1.0E-10 Ry


ATOMIC_POSITIONS (angstrom)
H        0.320353411  -0.641072253  -0.551185223
H        0.731414229   0.348088529   0.555989075
O       -0.052859639   0.027778724   0.061317148



     Writing output data file pwscf.save
     Check: negative starting charge=   -0.015968
     NEW-OLD atomic charge density approx. for the potential
     Check: negative starting charge=   -0.015966

     negative rho (up, down):  3.791E-04 0.000E+00

     total cpu time spent up to now is       16.6 secs

     per-process dynamical memory:    45.8 Mb

     Self-consistent Calculation

     iteration #  1     ecut=    90.00 Ry     beta=0.70
     Davidson diagonalization with overlap
     ethr =  1.00E-06,  avg # of iterations =  3.0

     Threshold (ethr) on eigenvalues was too large:
     Diagonalizing with lowered threshold

     Davidson diagonalization with overlap
     ethr =  1.57E-08,  avg # of iterations =  2.0

     negative rho (up, down):  8.564E-05 0.000E+00

     total cpu time spent up to now is       16.9 secs

     total energy              =     -34.18366872 Ry
     Harris-Foulkes estimate   =     -34.18366841 Ry
     estimated scf accuracy    <       0.00000133 Ry

     iteration #  2     ecut=    90.00 Ry     beta=0.70
     Davidson diagonalization with overlap
     ethr =  1.66E-08,  avg # of iterations =  3.0

     negative rho (up, down):  1.262E-05 0.000E+00

     total cpu time spent up to now is       17.1 secs

     total energy              =     -34.18367016 Ry
     Harris-Foulkes estimate   =     -34.18366905 Ry
     estimated scf accuracy    <       0.00000015 Ry

     iteration #  3     ecut=    90.00 Ry     beta=0.70
     Davidson diagonalization with overlap
     ethr =  1.92E-09,  avg # of iterations =  3.0

     negative rho (up, down):  6.758E-07 0.000E+00

     total cpu time spent up to now is       17.3 secs

     total energy              =     -34.18367043 Ry
     Harris-Foulkes estimate   =     -34.18367026 Ry
     estimated scf accuracy    <       0.00000010 Ry

     iteration #  4     ecut=    90.00 Ry     beta=0.70
     Davidson diagonalization with overlap
     ethr =  1.28E-09,  avg # of iterations =  2.0

     total cpu time spent up to now is       17.5 secs

     total energy              =     -34.18367059 Ry
     Harris-Foulkes estimate   =     -34.18367046 Ry
     estimated scf accuracy    <          1.2E-09 Ry

     iteration #  5     ecut=    90.00 Ry     beta=0.70
     Davidson diagonalization with overlap
     ethr =  1.49E-11,  avg # of iterations =  2.0

     total cpu time spent up to now is       17.6 secs

     End of self-consistent calculation

          k = 0.0000 0.0000 0.0000 (115313 PWs)   bands (ev):

   -25.0983 -12.7527  -9.1736  -7.0783  -0.9453   0.4262   0.7488   1.1553

     the Fermi energy is    -5.0679 ev

!    total energy              =     -34.18367063 Ry
     Harris-Foulkes estimate   =     -34.18367060 Ry
     estimated scf accuracy    <          5.4E-11 Ry

     The total energy is the sum of the following terms:

     one-electron contribution =     -63.66224506 Ry
     hartree contribution      =      33.25258995 Ry
     xc contribution           =      -8.35553753 Ry
     ewald contribution        =       4.58152202 Ry
     smearing contrib. (-TS)   =       0.00000000 Ry

     convergence has been achieved in   5 iterations

     Forces acting on atoms (Ry/au):

     atom    1 type  1   force =    -0.00039870   -0.00068495    0.00021172
     atom    2 type  1   force =    -0.00070952   -0.00043030    0.00036883
     atom    3 type  2   force =     0.00110822    0.00111525   -0.00058055

     Total force =     0.002075     Total SCF correction =     0.000044

     number of scf cycles    =   9
     number of bfgs steps    =   8

     energy   old            =     -34.1836653832 Ry
     energy   new            =     -34.1836706276 Ry

     CASE: energy  _new < energy  _old

     new trust radius        =       0.0043034377 bohr
     new conv_thr            =            1.0E-10 Ry


ATOMIC_POSITIONS (angstrom)
H        0.320292361  -0.641766865  -0.550241691
H        0.731453993   0.347103504   0.556583196
O       -0.052838353   0.029458360   0.059779495



     Writing output data file pwscf.save
     Check: negative starting charge=   -0.015966
     NEW-OLD atomic charge density approx. for the potential
     Check: negative starting charge=   -0.015964

     negative rho (up, down):  6.061E-04 0.000E+00

     total cpu time spent up to now is       18.2 secs

     per-process dynamical memory:    45.8 Mb

     Self-consistent Calculation

     iteration #  1     ecut=    90.00 Ry     beta=0.70
     Davidson diagonalization with overlap
     ethr =  1.00E-06,  avg # of iterations =  4.0

     Threshold (ethr) on eigenvalues was too large:
     Diagonalizing with lowered threshold

     Davidson diagonalization with overlap
     ethr =  3.56E-08,  avg # of iterations =  2.0

     negative rho (up, down):  1.439E-04 0.000E+00

     total cpu time spent up to now is       18.5 secs

     total energy              =     -34.18367516 Ry
     Harris-Foulkes estimate   =     -34.18366889 Ry
     estimated scf accuracy    <       0.00000296 Ry

     iteration #  2     ecut=    90.00 Ry     beta=0.70
     Davidson diagonalization with overlap
     ethr =  3.70E-08,  avg # of iterations =  3.0

     negative rho (up, down):  1.532E-05 0.000E+00

     total cpu time spent up to now is       18.7 secs

     total energy              =     -34.18367774 Ry
     Harris-Foulkes estimate   =     -34.18367584 Ry
     estimated scf accuracy    <       0.00000023 Ry

     iteration #  3     ecut=    90.00 Ry     beta=0.70
     Davidson diagonalization with overlap
     ethr =  2.88E-09,  avg # of iterations =  3.0

     negative rho (up, down):  1.449E-06 0.000E+00

     total cpu time spent up to now is       18.9 secs

     total energy              =     -34.18367803 Ry
     Harris-Foulkes estimate   =     -34.18367787 Ry
     estimated scf accuracy    <       0.00000009 Ry

     iteration #  4     ecut=    90.00 Ry     beta=0.70
     Davidson diagonalization with overlap
     ethr =  1.15E-09,  avg # of iterations =  2.0

     total cpu time spent up to now is       19.3 secs

     total energy              =     -34.18367817 Ry
     Harris-Foulkes estimate   =     -34.18367806 Ry
     estimated scf accuracy    <          5.0E-09 Ry

     iteration #  5     ecut=    90.00 Ry     beta=0.70
     Davidson diagonalization with overlap
     ethr =  6.27E-11,  avg # of iterations =  2.0

     total cpu time spent up to now is       19.4 secs

     End of self-consistent calculation

          k = 0.0000 0.0000 0.0000 (115313 PWs)   bands (ev):

   -25.0978 -12.7486  -9.1763  -7.0783  -0.9458   0.4260   0.7486   1.1549

     the Fermi energy is    -5.0681 ev

!    total energy              =     -34.18367820 Ry
     Harris-Foulkes estimate   =     -34.18367818 Ry
     estimated scf accuracy    <          7.1E-11 Ry

     The total energy is the sum of the following terms:

     one-electron contribution =     -63.65945476 Ry
     hartree contribution      =      33.25116012 Ry
     xc contribution           =      -8.35531195 Ry
     ewald contribution        =       4.57992839 Ry
     smearing contrib. (-TS)   =       0.00000000 Ry

     convergence has been achieved in   5 iterations

     Forces acting on atoms (Ry/au):

     atom    1 type  1   force =    -0.00052293   -0.00068742    0.00016074
     atom    2 type  1   force =    -0.00106694   -0.00043535    0.00025962
     atom    3 type  2   force =     0.00158987    0.00112277   -0.00042035

     Total force =     0.002476     Total SCF correction =     0.000027

     number of scf cycles    =  10
     number of bfgs steps    =   9

     energy   old            =     -34.1836706276 Ry
     energy   new            =     -34.1836781971 Ry

     CASE: energy  _new < energy  _old

     new trust radius        =       0.0064551565 bohr
     new conv_thr            =            1.0E-10 Ry


ATOMIC_POSITIONS (angstrom)
H        0.320130466  -0.642855830  -0.548875544
H        0.731460004   0.345681587   0.557527826
O       -0.052682470   0.031969243   0.057468718



     Writing output data file pwscf.save
     Check: negative starting charge=   -0.015964
     NEW-OLD atomic charge density approx. for the potential
     Check: negative starting charge=   -0.015962

     negative rho (up, down):  9.613E-04 0.000E+00

     total cpu time spent up to now is       20.0 secs

     per-process dynamical memory:    45.8 Mb

     Self-consistent Calculation

     iteration #  1     ecut=    90.00 Ry     beta=0.70
     Davidson diagonalization with overlap
     ethr =  1.00E-06,  avg # of iterations =  4.0

     Threshold (ethr) on eigenvalues was too large:
     Diagonalizing with lowered threshold

     Davidson diagonalization with overlap
     ethr =  8.16E-08,  avg # of iterations =  1.0

     negative rho (up, down):  2.362E-04 0.000E+00

     total cpu time spent up to now is       20.3 secs

     total energy              =     -34.18368447 Ry
     Harris-Foulkes estimate   =     -34.18365088 Ry
     estimated scf accuracy    <       0.00000659 Ry

     iteration #  2     ecut=    90.00 Ry     beta=0.70
     Davidson diagonalization with overlap
     ethr =  8.24E-08,  avg # of iterations =  3.0

     negative rho (up, down):  2.117E-05 0.000E+00

     total cpu time spent up to now is       20.5 secs

     total energy              =     -34.18368829 Ry
     Harris-Foulkes estimate   =     -34.18368587 Ry
     estimated scf accuracy    <       0.00000041 Ry

     iteration #  3     ecut=    90.00 Ry     beta=0.70
     Davidson diagonalization with overlap
     ethr =  5.18E-09,  avg # of iterations =  3.0

     negative rho (up, down):  2.313E-06 0.000E+00

     total cpu time spent up to now is       20.7 secs

     total energy              =     -34.18368873 Ry
     Harris-Foulkes estimate   =     -34.18368850 Ry
     estimated scf accuracy    <       0.00000008 Ry

     iteration #  4     ecut=    90.00 Ry     beta=0.70
     Davidson diagonalization with overlap
     ethr =  9.98E-10,  avg # of iterations =  2.0

     total cpu time spent up to now is       20.9 secs

     total energy              =     -34.18368874 Ry
     Harris-Foulkes estimate   =     -34.18368876 Ry
     estimated scf accuracy    <       0.00000001 Ry

     iteration #  5     ecut=    90.00 Ry     beta=0.70
     Davidson diagonalization with overlap
     ethr =  1.57E-10,  avg # of iterations =  2.0

     total cpu time spent up to now is       21.1 secs

     total energy              =     -34.18368875 Ry
     Harris-Foulkes estimate   =     -34.18368875 Ry
     estimated scf accuracy    <          1.0E-10 Ry

     iteration #  6     ecut=    90.00 Ry     beta=0.70
     Davidson diagonalization with overlap
     ethr =  1.30E-12,  avg # of iterations =  3.0

     total cpu time spent up to now is       21.3 secs

     End of self-consistent calculation

          k = 0.0000 0.0000 0.0000 (115313 PWs)   bands (ev):

   -25.0972 -12.7438  -9.1795  -7.0785  -0.9465   0.4258   0.7484   1.1544

     the Fermi energy is    -5.0683 ev

!    total energy              =     -34.18368875 Ry
     Harris-Foulkes estimate   =     -34.18368875 Ry
     estimated scf accuracy    <          1.4E-11 Ry

     The total energy is the sum of the following terms:

     one-electron contribution =     -63.65598413 Ry
     hartree contribution      =      33.24942164 Ry
     xc contribution           =      -8.35504177 Ry
     ewald contribution        =       4.57791552 Ry
     smearing contrib. (-TS)   =       0.00000000 Ry

     convergence has been achieved in   6 iterations

     Forces acting on atoms (Ry/au):

     atom    1 type  1   force =    -0.00067312   -0.00063896    0.00011134
     atom    2 type  1   force =    -0.00148425   -0.00041246    0.00011228
     atom    3 type  2   force =     0.00215738    0.00105142   -0.00022362

     Total force =     0.003012     Total SCF correction =     0.000013

     number of scf cycles    =  11
     number of bfgs steps    =  10

     energy   old            =     -34.1836781971 Ry
     energy   new            =     -34.1836887509 Ry

     CASE: energy  _new < energy  _old

     new trust radius        =       0.0096827347 bohr
     new conv_thr            =            1.0E-10 Ry


ATOMIC_POSITIONS (angstrom)
H        0.319788596  -0.644545639  -0.546886363
H        0.731394986   0.343633950   0.559020040
O       -0.052275582   0.035706689   0.053987323



     Writing output data file pwscf.save
     Check: negative starting charge=   -0.015962
     NEW-OLD atomic charge density approx. for the potential
     Check: negative starting charge=   -0.015960

     negative rho (up, down):  1.514E-03 0.000E+00

     total cpu time spent up to now is       21.8 secs

     per-process dynamical memory:    45.8 Mb

     Self-consistent Calculation

     iteration #  1     ecut=    90.00 Ry     beta=0.70
     Davidson diagonalization with overlap
     c_bands:  1 eigenvalues not converged
     ethr =  1.00E-06,  avg # of iterations = 20.0

     negative rho (up, down):  3.807E-04 0.000E+00

     total cpu time spent up to now is       22.2 secs

     total energy              =     -34.17961718 Ry
     Harris-Foulkes estimate   =     -34.17937021 Ry
     estimated scf accuracy    <       0.00001464 Ry

     iteration #  2     ecut=    90.00 Ry     beta=0.70
     Davidson diagonalization with overlap
     ethr =  1.83E-07,  avg # of iterations =  5.0

     negative rho (up, down):  3.406E-05 0.000E+00

     total cpu time spent up to now is       22.4 secs

     total energy              =     -34.18370105 Ry
     Harris-Foulkes estimate   =     -34.18369809 Ry
     estimated scf accuracy    <       0.00000090 Ry

     iteration #  3     ecut=    90.00 Ry     beta=0.70
     Davidson diagonalization with overlap
     ethr =  1.13E-08,  avg # of iterations =  4.0

     negative rho (up, down):  4.341E-06 0.000E+00

     total cpu time spent up to now is       22.6 secs

     total energy              =     -34.18370196 Ry
     Harris-Foulkes estimate   =     -34.18370145 Ry
     estimated scf accuracy    <       0.00000013 Ry

     iteration #  4     ecut=    90.00 Ry     beta=0.70
     Davidson diagonalization with overlap
     ethr =  1.65E-09,  avg # of iterations =  2.0

     total cpu time spent up to now is       22.8 secs

     total energy              =     -34.18370203 Ry
     Harris-Foulkes estimate   =     -34.18370202 Ry
     estimated scf accuracy    <       0.00000003 Ry

     iteration #  5     ecut=    90.00 Ry     beta=0.70
     Davidson diagonalization with overlap
     ethr =  3.90E-10,  avg # of iterations =  2.0

     total cpu time spent up to now is       23.0 secs

     total energy              =     -34.18370207 Ry
     Harris-Foulkes estimate   =     -34.18370204 Ry
     estimated scf accuracy    <          2.9E-10 Ry

     iteration #  6     ecut=    90.00 Ry     beta=0.70
     Davidson diagonalization with overlap
     ethr =  3.63E-12,  avg # of iterations =  2.0

     total cpu time spent up to now is       23.1 secs

     End of self-consistent calculation

          k = 0.0000 0.0000 0.0000 (115313 PWs)   bands (ev):

   -25.0962 -12.7379  -9.1832  -7.0786  -0.9473   0.4255   0.7480   1.1335

     the Fermi energy is    -5.0838 ev

!    total energy              =     -34.18370206 Ry
     Harris-Foulkes estimate   =     -34.18370207 Ry
     estimated scf accuracy    <          2.3E-11 Ry

     The total energy is the sum of the following terms:

     one-electron contribution =     -63.65144531 Ry
     hartree contribution      =      33.24715181 Ry
     xc contribution           =      -8.35468836 Ry
     ewald contribution        =       4.57527981 Ry
     smearing contrib. (-TS)   =       0.00000000 Ry

     convergence has been achieved in   6 iterations

     Forces acting on atoms (Ry/au):

     atom    1 type  1   force =    -0.00084864   -0.00050527    0.00001752
     atom    2 type  1   force =    -0.00199293   -0.00034043   -0.00014745
     atom    3 type  2   force =     0.00284157    0.00084570    0.00012993

     Total force =     0.003727     Total SCF correction =     0.000019

     number of scf cycles    =  12
     number of bfgs steps    =  11

     energy   old            =     -34.1836887509 Ry
     energy   new            =     -34.1837020614 Ry

     CASE: energy  _new < energy  _old

     new trust radius        =       0.0145241021 bohr
     new conv_thr            =            1.0E-10 Ry


ATOMIC_POSITIONS (angstrom)
H        0.319062430  -0.647196231  -0.544031089
H        0.731149379   0.340739587   0.561397454
O       -0.051303809   0.041251644   0.048754636



     Writing output data file pwscf.save
     Check: negative starting charge=   -0.015960
     NEW-OLD atomic charge density approx. for the potential
     Check: negative starting charge=   -0.015959

     negative rho (up, down):  2.373E-03 0.000E+00

     total cpu time spent up to now is       23.8 secs

     per-process dynamical memory:    45.8 Mb

     Self-consistent Calculation

     iteration #  1     ecut=    90.00 Ry     beta=0.70
     Davidson diagonalization with overlap
     ethr =  1.00E-06,  avg # of iterations = 10.0

     negative rho (up, down):  6.049E-04 0.000E+00

     total cpu time spent up to now is       24.3 secs

     total energy              =     -34.17961736 Ry
     Harris-Foulkes estimate   =     -34.17850393 Ry
     estimated scf accuracy    <       0.00003328 Ry

     iteration #  2     ecut=    90.00 Ry     beta=0.70
     Davidson diagonalization with overlap
     ethr =  4.16E-07,  avg # of iterations =  8.0

     negative rho (up, down):  5.858E-05 0.000E+00

     total cpu time spent up to now is       24.6 secs

     total energy              =     -34.18371250 Ry
     Harris-Foulkes estimate   =     -34.18370266 Ry
     estimated scf accuracy    <       0.00000189 Ry

     iteration #  3     ecut=    90.00 Ry     beta=0.70
     Davidson diagonalization with overlap
     ethr =  2.37E-08,  avg # of iterations =  5.0

     negative rho (up, down):  1.169E-06 0.000E+00

     total cpu time spent up to now is       24.8 secs

     total energy              =     -34.18371451 Ry
     Harris-Foulkes estimate   =     -34.18371329 Ry
     estimated scf accuracy    <       0.00000009 Ry

     iteration #  4     ecut=    90.00 Ry     beta=0.70
     Davidson diagonalization with overlap
     ethr =  1.09E-09,  avg # of iterations =  2.0

     total cpu time spent up to now is       25.0 secs

     total energy              =     -34.18371445 Ry
     Harris-Foulkes estimate   =     -34.18371458 Ry
     estimated scf accuracy    <       0.00000004 Ry

     iteration #  5     ecut=    90.00 Ry     beta=0.70
     Davidson diagonalization with overlap
     ethr =  5.01E-10,  avg # of iterations =  2.0

     total cpu time spent up to now is       25.2 secs

     total energy              =     -34.18371446 Ry
     Harris-Foulkes estimate   =     -34.18371447 Ry
     estimated scf accuracy    <          9.9E-10 Ry

     iteration #  6     ecut=    90.00 Ry     beta=0.70
     Davidson diagonalization with overlap
     ethr =  1.24E-11,  avg # of iterations =  2.0

     total cpu time spent up to now is       25.4 secs

     End of self-consistent calculation

          k = 0.0000 0.0000 0.0000 (115313 PWs)   bands (ev):

   -25.0946 -12.7320  -9.1864  -7.0786  -0.9482   0.4252   0.7476   1.1330

     the Fermi energy is    -5.0838 ev

!    total energy              =     -34.18371446 Ry
     Harris-Foulkes estimate   =     -34.18371446 Ry
     estimated scf accuracy    <          2.2E-11 Ry

     The total energy is the sum of the following terms:

     one-electron contribution =     -63.64594612 Ry
     hartree contribution      =      33.24444225 Ry
     xc contribution           =      -8.35426300 Ry
     ewald contribution        =       4.57205241 Ry
     smearing contrib. (-TS)   =       0.00000000 Ry

     convergence has been achieved in   6 iterations

     Forces acting on atoms (Ry/au):

     atom    1 type  1   force =    -0.00103746   -0.00019646   -0.00008869
     atom    2 type  1   force =    -0.00251777   -0.00019960   -0.00055303
     atom    3 type  2   force =     0.00355523    0.00039606    0.00064172

     Total force =     0.004584     Total SCF correction =     0.000029

     number of scf cycles    =  13
     number of bfgs steps    =  12

     energy   old            =     -34.1837020614 Ry
     energy   new            =     -34.1837144601 Ry

     CASE: energy  _new < energy  _old

     new trust radius        =       0.0081697121 bohr
     new conv_thr            =            1.0E-10 Ry


ATOMIC_POSITIONS (angstrom)
H        0.318330236  -0.648820770  -0.542606331
H        0.730793112   0.339375533   0.562900808
O       -0.050215348   0.044240237   0.045826523



     Writing output data file pwscf.save
     Check: negative starting charge=   -0.015959
     NEW-OLD atomic charge density approx. for the potential
     Check: negative starting charge=   -0.015958

     negative rho (up, down):  1.256E-03 0.000E+00

     total cpu time spent up to now is       25.9 secs

     per-process dynamical memory:    45.8 Mb

     Self-consistent Calculation

     iteration #  1     ecut=    90.00 Ry     beta=0.70
     Davidson diagonalization with overlap
     ethr =  1.00E-06,  avg # of iterations =  6.0

     negative rho (up, down):  3.131E-04 0.000E+00

     total cpu time spent up to now is       26.2 secs

     total energy              =     -34.17963685 Ry
     Harris-Foulkes estimate   =     -34.17953401 Ry
     estimated scf accuracy    <       0.00001037 Ry

     iteration #  2     ecut=    90.00 Ry     beta=0.70
     Davidson diagonalization with overlap
     ethr =  1.30E-07,  avg # of iterations =  4.0

     negative rho (up, down):  2.674E-05 0.000E+00

     total cpu time spent up to now is       26.4 secs

     total energy              =     -34.18371989 Ry
     Harris-Foulkes estimate   =     -34.18371672 Ry
     estimated scf accuracy    <       0.00000066 Ry

     iteration #  3     ecut=    90.00 Ry     beta=0.70
     Davidson diagonalization with overlap
     ethr =  8.19E-09,  avg # of iterations =  3.0

     negative rho (up, down):  3.880E-06 0.000E+00

     total cpu time spent up to now is       26.6 secs

     total energy              =     -34.18372046 Ry
     Harris-Foulkes estimate   =     -34.18372020 Ry
     estimated scf accuracy    <       0.00000014 Ry

     iteration #  4     ecut=    90.00 Ry     beta=0.70
     Davidson diagonalization with overlap
     ethr =  1.70E-09,  avg # of iterations =  2.0

     total cpu time spent up to now is       26.8 secs

     total energy              =     -34.18372055 Ry
     Harris-Foulkes estimate   =     -34.18372051 Ry
     estimated scf accuracy    <       0.00000002 Ry

     iteration #  5     ecut=    90.00 Ry     beta=0.70
     Davidson diagonalization with overlap
     ethr =  2.59E-10,  avg # of iterations =  2.0

     total cpu time spent up to now is       26.9 secs

     End of self-consistent calculation

          k = 0.0000 0.0000 0.0000 (115313 PWs)   bands (ev):

   -25.0949 -12.7351  -9.1843  -7.0786  -0.9478   0.4254   0.7476   1.1328

     the Fermi energy is    -5.0840 ev

!    total energy              =     -34.18372056 Ry
     Harris-Foulkes estimate   =     -34.18372056 Ry
     estimated scf accuracy    <          9.2E-11 Ry

     The total energy is the sum of the following terms:

     one-electron contribution =     -63.64804170 Ry
     hartree contribution      =      33.24552778 Ry
     xc contribution           =      -8.35444628 Ry
     ewald contribution        =       4.57323963 Ry
     smearing contrib. (-TS)   =       0.00000000 Ry

     convergence has been achieved in   5 iterations

     Forces acting on atoms (Ry/au):

     atom    1 type  1   force =    -0.00087308   -0.00010827   -0.00018108
     atom    2 type  1   force =    -0.00223444   -0.00009462   -0.00062086
     atom    3 type  2   force =     0.00310752    0.00020289    0.00080193

     Total force =     0.004066     Total SCF correction =     0.000033

     number of scf cycles    =  14
     number of bfgs steps    =  13

     energy   old            =     -34.1837144601 Ry
     energy   new            =     -34.1837205633 Ry

     CASE: energy  _new < energy  _old

     new trust radius        =       0.0065179604 bohr
     new conv_thr            =            1.0E-10 Ry


ATOMIC_POSITIONS (angstrom)
H        0.317296316  -0.650314326  -0.541830100
H        0.730200627   0.338747216   0.564303830
O       -0.048588944   0.046362110   0.043647270



     Writing output data file pwscf.save
     Check: negative starting charge=   -0.015958
     NEW-OLD atomic charge density approx. for the potential
     Check: negative starting charge=   -0.015957

     negative rho (up, down):  9.807E-04 0.000E+00

     total cpu time spent up to now is       27.5 secs

     per-process dynamical memory:    45.8 Mb

     Self-consistent Calculation

     iteration #  1     ecut=    90.00 Ry     beta=0.70
     Davidson diagonalization with overlap
     ethr =  1.00E-06,  avg # of iterations = 13.0

     Threshold (ethr) on eigenvalues was too large:
     Diagonalizing with lowered threshold

     Davidson diagonalization with overlap
     ethr =  8.99E-08,  avg # of iterations =  1.0

     negative rho (up, down):  2.413E-04 0.000E+00

     total cpu time spent up to now is       27.9 secs

     total energy              =     -34.18372032 Ry
     Harris-Foulkes estimate   =     -34.18368849 Ry
     estimated scf accuracy    <       0.00000722 Ry

     iteration #  2     ecut=    90.00 Ry     beta=0.70
     Davidson diagonalization with overlap
     ethr =  9.02E-08,  avg # of iterations =  4.0

     negative rho (up, down):  6.743E-05 0.000E+00

     total cpu time spent up to now is       28.1 secs

     total energy              =     -34.18372557 Ry
     Harris-Foulkes estimate   =     -34.18372243 Ry
     estimated scf accuracy    <       0.00000121 Ry

     iteration #  3     ecut=    90.00 Ry     beta=0.70
     Davidson diagonalization with overlap
     ethr =  1.52E-08,  avg # of iterations =  4.0

     negative rho (up, down):  4.635E-06 0.000E+00

     total cpu time spent up to now is       28.3 secs

     total energy              =     -34.18372671 Ry
     Harris-Foulkes estimate   =     -34.18372620 Ry
     estimated scf accuracy    <       0.00000065 Ry

     iteration #  4     ecut=    90.00 Ry     beta=0.70
     Davidson diagonalization with overlap
     ethr =  8.18E-09,  avg # of iterations =  2.0

     total cpu time spent up to now is       28.5 secs

     total energy              =     -34.18372692 Ry
     Harris-Foulkes estimate   =     -34.18372688 Ry
     estimated scf accuracy    <          6.2E-09 Ry

     iteration #  5     ecut=    90.00 Ry     beta=0.70
     Davidson diagonalization with overlap
     ethr =  7.80E-11,  avg # of iterations =  2.0

     total cpu time spent up to now is       28.7 secs

     total energy              =     -34.18372692 Ry
     Harris-Foulkes estimate   =     -34.18372693 Ry
     estimated scf accuracy    <          3.3E-10 Ry

     iteration #  6     ecut=    90.00 Ry     beta=0.70
     Davidson diagonalization with overlap
     ethr =  4.08E-12,  avg # of iterations =  2.0

     total cpu time spent up to now is       28.8 secs

     End of self-consistent calculation

          k = 0.0000 0.0000 0.0000 (115313 PWs)   bands (ev):

   -25.0967 -12.7473  -9.1764  -7.0786  -0.9461   0.4259   0.7482   1.1324

     the Fermi energy is    -5.0847 ev

!    total energy              =     -34.18372691 Ry
     Harris-Foulkes estimate   =     -34.18372692 Ry
     estimated scf accuracy    <          4.2E-11 Ry

     The total energy is the sum of the following terms:

     one-electron contribution =     -63.65735572 Ry
     hartree contribution      =      33.25021372 Ry
     xc contribution           =      -8.35521309 Ry
     ewald contribution        =       4.57862819 Ry
     smearing contrib. (-TS)   =       0.00000000 Ry

     convergence has been achieved in   6 iterations

     Forces acting on atoms (Ry/au):

     atom    1 type  1   force =    -0.00034777   -0.00009980   -0.00019611
     atom    2 type  1   force =    -0.00103075    0.00002673   -0.00034162
     atom    3 type  2   force =     0.00137852    0.00007307    0.00053773

     Total force =     0.001883     Total SCF correction =     0.000005

     number of scf cycles    =  15
     number of bfgs steps    =  14

     energy   old            =     -34.1837205633 Ry
     energy   new            =     -34.1837269102 Ry

     CASE: energy  _new < energy  _old

     new trust radius        =       0.0013856520 bohr
     new conv_thr            =            1.0E-10 Ry


ATOMIC_POSITIONS (angstrom)
H        0.316861562  -0.650605838  -0.542143711
H        0.729912549   0.339152885   0.564571131
O       -0.047866111   0.046247953   0.043693580



     Writing output data file pwscf.save
     Check: negative starting charge=   -0.015957
     NEW-OLD atomic charge density approx. for the potential
     Check: negative starting charge=   -0.015955

     negative rho (up, down):  1.571E-04 0.000E+00

     total cpu time spent up to now is       29.5 secs

     per-process dynamical memory:    45.8 Mb

     Self-consistent Calculation

     iteration #  1     ecut=    90.00 Ry     beta=0.70
     Davidson diagonalization with overlap
     ethr =  1.00E-06,  avg # of iterations =  3.0

     Threshold (ethr) on eigenvalues was too large:
     Diagonalizing with lowered threshold

     Davidson diagonalization with overlap
     ethr =  8.42E-09,  avg # of iterations =  2.0

     negative rho (up, down):  3.085E-05 0.000E+00

     total cpu time spent up to now is       29.8 secs

     total energy              =     -34.18372898 Ry
     Harris-Foulkes estimate   =     -34.18373105 Ry
     estimated scf accuracy    <       0.00000054 Ry

     iteration #  2     ecut=    90.00 Ry     beta=0.70
     Davidson diagonalization with overlap
     ethr =  6.75E-09,  avg # of iterations =  3.0

     negative rho (up, down):  1.432E-05 0.000E+00

     total cpu time spent up to now is       30.0 secs

     total energy              =     -34.18372884 Ry
     Harris-Foulkes estimate   =     -34.18372930 Ry
     estimated scf accuracy    <       0.00000040 Ry

     iteration #  3     ecut=    90.00 Ry     beta=0.70
     Davidson diagonalization with overlap
     ethr =  5.04E-09,  avg # of iterations =  2.0

     negative rho (up, down):  1.984E-07 0.000E+00

     total cpu time spent up to now is       30.2 secs

     total energy              =     -34.18372860 Ry
     Harris-Foulkes estimate   =     -34.18372895 Ry
     estimated scf accuracy    <       0.00000001 Ry

     iteration #  4     ecut=    90.00 Ry     beta=0.70
     Davidson diagonalization with overlap
     ethr =  1.76E-10,  avg # of iterations =  2.0

     total cpu time spent up to now is       30.4 secs

     total energy              =     -34.18372850 Ry
     Harris-Foulkes estimate   =     -34.18372861 Ry
     estimated scf accuracy    <          3.1E-10 Ry

     iteration #  5     ecut=    90.00 Ry     beta=0.70
     Davidson diagonalization with overlap
     ethr =  3.94E-12,  avg # of iterations =  3.0

     total cpu time spent up to now is       30.5 secs

     End of self-consistent calculation

          k = 0.0000 0.0000 0.0000 (115313 PWs)   bands (ev):

   -25.0977 -12.7564  -9.1704  -7.0785  -0.9449   0.4263   0.7485   1.1324

     the Fermi energy is    -5.0850 ev

!    total energy              =     -34.18372846 Ry
     Harris-Foulkes estimate   =     -34.18372850 Ry
     estimated scf accuracy    <          1.9E-11 Ry

     The total energy is the sum of the following terms:

     one-electron contribution =     -63.66375704 Ry
     hartree contribution      =      33.25346904 Ry
     xc contribution           =      -8.35574629 Ry
     ewald contribution        =       4.58230583 Ry
     smearing contrib. (-TS)   =       0.00000000 Ry

     convergence has been achieved in   5 iterations

     Forces acting on atoms (Ry/au):

     atom    1 type  1   force =     0.00002234   -0.00007902   -0.00006049
     atom    2 type  1   force =    -0.00009675    0.00004172   -0.00004564
     atom    3 type  2   force =     0.00007440    0.00003729    0.00010613

     Total force =     0.000204     Total SCF correction =     0.000081
     SCF correction compared to forces is large: reduce conv_thr to get better values

     bfgs converged in  16 scf cycles and  15 bfgs steps
     (criteria: energy <  1.0E-04, force <  1.0E-03)

     End of BFGS Geometry Optimization

     Final energy   =     -34.1837284622 Ry
Begin final coordinates

ATOMIC_POSITIONS (angstrom)
H        0.316861562  -0.650605838  -0.542143711
H        0.729912549   0.339152885   0.564571131
O       -0.047866111   0.046247953   0.043693580
End final coordinates



     Writing output data file pwscf.save
 
     init_run     :      0.52s CPU      0.55s WALL (       1 calls)
     electrons    :     19.44s CPU     23.41s WALL (      16 calls)
     update_pot   :      3.65s CPU      4.33s WALL (      15 calls)
     forces       :      1.08s CPU      1.09s WALL (      16 calls)

     Called by init_run:
     wfcinit      :      0.03s CPU      0.04s WALL (       1 calls)
     potinit      :      0.11s CPU      0.11s WALL (       1 calls)

     Called by electrons:
     c_bands      :      8.84s CPU      9.03s WALL (      98 calls)
     sum_band     :      2.06s CPU      2.28s WALL (      98 calls)
     v_of_rho     :      5.48s CPU      5.99s WALL (     107 calls)
     mix_rho      :      2.04s CPU      3.72s WALL (      98 calls)

     Called by c_bands:
     init_us_2    :      0.05s CPU      0.06s WALL (     197 calls)
     cegterg      :      8.78s CPU      8.94s WALL (      98 calls)

     Called by sum_band:

     Called by *egterg:
     h_psi        :      7.65s CPU      7.76s WALL (     522 calls)
     g_psi        :      0.07s CPU      0.07s WALL (     423 calls)
     cdiaghg      :      0.12s CPU      0.12s WALL (     499 calls)

     Called by h_psi:
     h_psi:pot    :      7.57s CPU      7.68s WALL (     522 calls)
     h_psi:calbec :      0.09s CPU      0.10s WALL (     522 calls)
     vloc_psi     :      7.42s CPU      7.52s WALL (     522 calls)
     add_vuspsi   :      0.06s CPU      0.06s WALL (     522 calls)

     General routines
     calbec       :      0.10s CPU      0.12s WALL (     586 calls)
     fft          :      4.13s CPU      4.88s WALL (    1222 calls)
     fftw         :      7.51s CPU      7.62s WALL (    5964 calls)
     davcio       :      0.22s CPU      1.44s WALL (     571 calls)
 
     Parallel routines
     fft_scatter  :      4.34s CPU      5.13s WALL (    7186 calls)
 
     PWSCF        :    25.61s CPU        30.95s WALL

 
   This run was terminated on:   2:51:52  28Jul2018            

=------------------------------------------------------------------------------=
   JOB DONE.
=------------------------------------------------------------------------------=
