
     Program PWSCF v.6.0 (svn rev. 13079) starts on 28Jul2018 at  2:20: 6 

     This program is part of the open-source Quantum ESPRESSO suite
     for quantum simulation of materials; please cite
         "P. Giannozzi et al., J. Phys.:Condens. Matter 21 395502 (2009);
          URL http://www.quantum-espresso.org", 
     in publications or presentations arising from this work. More details at
     http://www.quantum-espresso.org/quote

     Parallel version (MPI), running on    28 processors
     R & G space division:  proc/nbgrp/npool/nimage =      28
     Reading input from ../QMCmins/relax-18.in

     Current dimensions of program PWSCF are:
     Max number of different atomic species (ntypx) = 10
     Max number of k-points (npk) =  40000
     Max angular momentum in pseudopotentials (lmaxx) =  3
     Message from routine iosys:
     pot_extrapolation='second-order' not available, using 'atomic'
     Message from routine iosys:
     wfc_extrapolation='second-order' not available, using 'atomic'

     Subspace diagonalization in iterative solution of the eigenvalue problem:
     a serial algorithm will be used

 
     Parallelization info
     --------------------
     sticks:   dense  smooth     PW     G-vecs:    dense   smooth      PW
     Min         408     408    102                32936    32936    4116
     Max         409     409    103                32943    32943    4121
     Sum       11449   11449   2869               922329   922329  115313
 


     bravais-lattice index     =            1
     lattice parameter (alat)  =      20.0000  a.u.
     unit-cell volume          =    8000.0000 (a.u.)^3
     number of atoms/cell      =            3
     number of atomic types    =            2
     number of electrons       =         8.00
     number of Kohn-Sham states=            8
     kinetic-energy cutoff     =      90.0000  Ry
     charge density cutoff     =     360.0000  Ry
     convergence threshold     =      1.0E-08
     mixing beta               =       0.7000
     number of iterations used =            8  plain     mixing
     Exchange-correlation      = BLYP ( 1  3  1  3 0 0)
     nstep                     =           50


     celldm(1)=  20.000000  celldm(2)=   0.000000  celldm(3)=   0.000000
     celldm(4)=   0.000000  celldm(5)=   0.000000  celldm(6)=   0.000000

     crystal axes: (cart. coord. in units of alat)
               a(1) = (   1.000000   0.000000   0.000000 )  
               a(2) = (   0.000000   1.000000   0.000000 )  
               a(3) = (   0.000000   0.000000   1.000000 )  

     reciprocal axes: (cart. coord. in units 2 pi/alat)
               b(1) = (  1.000000  0.000000  0.000000 )  
               b(2) = (  0.000000  1.000000  0.000000 )  
               b(3) = (  0.000000  0.000000  1.000000 )  


     PseudoPot. # 1 for  H read from file:
     ../H.blyp-hgh.UPF
     MD5 check sum: c576e69559cde411e611be972c763230
     Pseudo is Norm-conserving, Zval =  1.0
     Generated in analytical, separable form
     Using radial grid of  929 points,  0 beta functions with: 

     PseudoPot. # 2 for  O read from file:
     ../O.blyp-hgh.UPF
     MD5 check sum: d0b7156309aa9befef28faac7bc56342
     Pseudo is Norm-conserving, Zval =  6.0
     Generated in analytical, separable form
     Using radial grid of 1095 points,  1 beta functions with: 
                l(1) =   0

     atomic species   valence    mass     pseudopotential
        H              1.00     1.01000      H( 1.00)
        O              6.00    16.00000      O( 1.00)

     No symmetry found



   Cartesian axes

     site n.     atom                  positions (alat units)
         1           H   tau(   1) = (   0.0185370  -0.0552208   0.0698245  )
         2           H   tau(   2) = (  -0.0780969   0.0213202   0.0295537  )
         3           O   tau(   3) = (   0.0037597   0.0021400  -0.0006952  )

     number of k points=     1  Marzari-Vanderbilt smearing, width (Ry)=  0.0250
                       cart. coord. in units 2pi/alat
        k(    1) = (   0.0000000   0.0000000   0.0000000), wk =   2.0000000

     Dense  grid:   922329 G-vectors     FFT dimensions: ( 125, 125, 125)

     Estimated max dynamical RAM per process >      31.67Mb

     Estimated total allocated dynamical RAM >     886.64Mb

     Initial potential from superposition of free atoms
     Check: negative starting charge=   -0.016083

     starting charge    7.99998, renormalised to    8.00000

     negative rho (up, down):  1.608E-02 0.000E+00
     Starting wfc are    6 randomized atomic wfcs +    2 random wfc

     total cpu time spent up to now is        0.8 secs

     per-process dynamical memory:    33.5 Mb

     Self-consistent Calculation

     iteration #  1     ecut=    90.00 Ry     beta=0.70
     Davidson diagonalization with overlap
     ethr =  1.00E-02,  avg # of iterations =  8.0

     negative rho (up, down):  4.695E-03 0.000E+00

     total cpu time spent up to now is        1.2 secs

     total energy              =     -34.02651631 Ry
     Harris-Foulkes estimate   =     -34.26451523 Ry
     estimated scf accuracy    <       0.35818159 Ry

     iteration #  2     ecut=    90.00 Ry     beta=0.70
     Davidson diagonalization with overlap
     ethr =  4.48E-03,  avg # of iterations =  2.0

     negative rho (up, down):  2.833E-03 0.000E+00

     total cpu time spent up to now is        1.4 secs

     total energy              =     -34.08498922 Ry
     Harris-Foulkes estimate   =     -34.26185186 Ry
     estimated scf accuracy    <       0.37667765 Ry

     iteration #  3     ecut=    90.00 Ry     beta=0.70
     Davidson diagonalization with overlap
     ethr =  4.48E-03,  avg # of iterations =  2.0

     negative rho (up, down):  1.644E-04 0.000E+00

     total cpu time spent up to now is        1.6 secs

     total energy              =     -34.17044056 Ry
     Harris-Foulkes estimate   =     -34.17136544 Ry
     estimated scf accuracy    <       0.00593846 Ry

     iteration #  4     ecut=    90.00 Ry     beta=0.70
     Davidson diagonalization with overlap
     ethr =  7.42E-05,  avg # of iterations =  6.0

     negative rho (up, down):  2.705E-05 0.000E+00

     total cpu time spent up to now is        1.8 secs

     total energy              =     -34.17211767 Ry
     Harris-Foulkes estimate   =     -34.17225433 Ry
     estimated scf accuracy    <       0.00034263 Ry

     iteration #  5     ecut=    90.00 Ry     beta=0.70
     Davidson diagonalization with overlap
     c_bands:  1 eigenvalues not converged
     ethr =  4.28E-06,  avg # of iterations = 20.0

     total cpu time spent up to now is        2.1 secs

     total energy              =     -34.17214945 Ry
     Harris-Foulkes estimate   =     -34.17215136 Ry
     estimated scf accuracy    <       0.00001123 Ry

     iteration #  6     ecut=    90.00 Ry     beta=0.70
     Davidson diagonalization with overlap
     ethr =  1.40E-07,  avg # of iterations =  1.0

     negative rho (up, down):  3.316E-08 0.000E+00

     total cpu time spent up to now is        2.3 secs

     total energy              =     -34.17214986 Ry
     Harris-Foulkes estimate   =     -34.17214997 Ry
     estimated scf accuracy    <       0.00000337 Ry

     iteration #  7     ecut=    90.00 Ry     beta=0.70
     Davidson diagonalization with overlap
     ethr =  4.21E-08,  avg # of iterations =  2.0

     total cpu time spent up to now is        2.5 secs

     total energy              =     -34.17215021 Ry
     Harris-Foulkes estimate   =     -34.17215032 Ry
     estimated scf accuracy    <       0.00000008 Ry

     iteration #  8     ecut=    90.00 Ry     beta=0.70
     Davidson diagonalization with overlap
     ethr =  9.76E-10,  avg # of iterations =  2.0

     total cpu time spent up to now is        2.7 secs

     End of self-consistent calculation

          k = 0.0000 0.0000 0.0000 (115313 PWs)   bands (ev):

   -25.5892 -12.2917  -9.8327  -7.1794  -0.9398   0.4190   0.8228   1.1185

     the Fermi energy is    -5.2183 ev

!    total energy              =     -34.17215015 Ry
     Harris-Foulkes estimate   =     -34.17215023 Ry
     estimated scf accuracy    <          3.8E-09 Ry

     The total energy is the sum of the following terms:

     one-electron contribution =     -64.22511705 Ry
     hartree contribution      =      33.50197166 Ry
     xc contribution           =      -8.39505049 Ry
     ewald contribution        =       4.94604573 Ry
     smearing contrib. (-TS)   =       0.00000000 Ry

     convergence has been achieved in   8 iterations

     Forces acting on atoms (Ry/au):

     atom    1 type  1   force =     0.04430972   -0.02612531    0.00538715
     atom    2 type  1   force =    -0.08940438    0.04712929   -0.00447971
     atom    3 type  2   force =     0.04509465   -0.02100398   -0.00090744

     Total force =     0.124035     Total SCF correction =     0.000141

     BFGS Geometry Optimization

     number of scf cycles    =   1
     number of bfgs steps    =   0

     energy   new            =     -34.1721501491 Ry

     new trust radius        =       0.1011651144 bohr
     new conv_thr            =       0.0000000100 Ry


ATOMIC_POSITIONS (angstrom)
H        0.219634696  -0.598256916   0.741841758
H       -0.873852758   0.250582746   0.310412437
O        0.063654062   0.011534170  -0.007838195



     Writing output data file pwscf.save
     Check: negative starting charge=   -0.016083
     NEW-OLD atomic charge density approx. for the potential
     Check: negative starting charge=   -0.016044

     negative rho (up, down):  8.811E-03 0.000E+00

     total cpu time spent up to now is        3.3 secs

     per-process dynamical memory:    45.8 Mb

     Self-consistent Calculation

     iteration #  1     ecut=    90.00 Ry     beta=0.70
     Davidson diagonalization with overlap
     c_bands:  1 eigenvalues not converged
     ethr =  1.00E-06,  avg # of iterations = 20.0

     negative rho (up, down):  2.316E-03 0.000E+00

     total cpu time spent up to now is        3.9 secs

     total energy              =     -34.16807794 Ry
     Harris-Foulkes estimate   =     -34.17510352 Ry
     estimated scf accuracy    <       0.00345436 Ry

     iteration #  2     ecut=    90.00 Ry     beta=0.70
     Davidson diagonalization with overlap
     ethr =  4.32E-05,  avg # of iterations =  5.0

     negative rho (up, down):  1.336E-03 0.000E+00

     total cpu time spent up to now is        4.1 secs

     total energy              =     -34.17574676 Ry
     Harris-Foulkes estimate   =     -34.17592736 Ry
     estimated scf accuracy    <       0.00215665 Ry

     iteration #  3     ecut=    90.00 Ry     beta=0.70
     Davidson diagonalization with overlap
     ethr =  2.70E-05,  avg # of iterations = 10.0

     negative rho (up, down):  4.078E-04 0.000E+00

     total cpu time spent up to now is        4.4 secs

     total energy              =     -34.17239054 Ry
     Harris-Foulkes estimate   =     -34.17225580 Ry
     estimated scf accuracy    <       0.00013654 Ry

     iteration #  4     ecut=    90.00 Ry     beta=0.70
     Davidson diagonalization with overlap
     c_bands:  1 eigenvalues not converged
     ethr =  1.71E-06,  avg # of iterations = 20.0

     negative rho (up, down):  1.274E-05 0.000E+00

     total cpu time spent up to now is        4.7 secs

     total energy              =     -34.17650206 Ry
     Harris-Foulkes estimate   =     -34.17649521 Ry
     estimated scf accuracy    <       0.00000266 Ry

     iteration #  5     ecut=    90.00 Ry     beta=0.70
     Davidson diagonalization with overlap
     ethr =  3.33E-08,  avg # of iterations =  4.0

     negative rho (up, down):  6.372E-08 0.000E+00

     total cpu time spent up to now is        5.1 secs

     total energy              =     -34.17650283 Ry
     Harris-Foulkes estimate   =     -34.17650286 Ry
     estimated scf accuracy    <       0.00000017 Ry

     iteration #  6     ecut=    90.00 Ry     beta=0.70
     Davidson diagonalization with overlap
     ethr =  2.16E-09,  avg # of iterations =  2.0

     total cpu time spent up to now is        5.3 secs

     total energy              =     -34.17650290 Ry
     Harris-Foulkes estimate   =     -34.17650285 Ry
     estimated scf accuracy    <       0.00000001 Ry

     iteration #  7     ecut=    90.00 Ry     beta=0.70
     Davidson diagonalization with overlap
     ethr =  1.64E-10,  avg # of iterations =  3.0

     total cpu time spent up to now is        5.5 secs

     End of self-consistent calculation

          k = 0.0000 0.0000 0.0000 (115313 PWs)   bands (ev):

   -25.1093 -12.0752  -9.6756  -7.0997  -1.0399   0.3901   0.7309   1.1155

     the Fermi energy is    -5.1006 ev

!    total energy              =     -34.17650290 Ry
     Harris-Foulkes estimate   =     -34.17650290 Ry
     estimated scf accuracy    <          1.2E-09 Ry

     The total energy is the sum of the following terms:

     one-electron contribution =     -63.32380056 Ry
     hartree contribution      =      33.07437178 Ry
     xc contribution           =      -8.32587832 Ry
     ewald contribution        =       4.39880420 Ry
     smearing contrib. (-TS)   =       0.00000000 Ry

     convergence has been achieved in   7 iterations

     Forces acting on atoms (Ry/au):

     atom    1 type  1   force =     0.03033986   -0.01611527    0.00082308
     atom    2 type  1   force =     0.04299770    0.00628368   -0.03987761
     atom    3 type  2   force =    -0.07333755    0.00983159    0.03905454

     Total force =     0.107980     Total SCF correction =     0.000027

     number of scf cycles    =   2
     number of bfgs steps    =   1

     energy   old            =     -34.1721501491 Ry
     energy   new            =     -34.1765029006 Ry

     CASE: energy  _new < energy  _old

     new trust radius        =       0.0482386788 bohr
     new conv_thr            =       0.0000000044 Ry


ATOMIC_POSITIONS (angstrom)
H        0.240165842  -0.609659119   0.743201735
H       -0.873958746   0.262116886   0.293741892
O        0.043228904   0.011402233   0.007472373



     Writing output data file pwscf.save
     Check: negative starting charge=   -0.016044
     NEW-OLD atomic charge density approx. for the potential
     Check: negative starting charge=   -0.016044

     negative rho (up, down):  8.700E-03 0.000E+00

     total cpu time spent up to now is        6.1 secs

     per-process dynamical memory:    45.8 Mb

     Self-consistent Calculation

     iteration #  1     ecut=    90.00 Ry     beta=0.70
     Davidson diagonalization with overlap
     c_bands:  1 eigenvalues not converged
     ethr =  1.00E-06,  avg # of iterations = 20.0

     negative rho (up, down):  2.289E-03 0.000E+00

     total cpu time spent up to now is        6.7 secs

     total energy              =     -34.17625037 Ry
     Harris-Foulkes estimate   =     -34.16782130 Ry
     estimated scf accuracy    <       0.00068556 Ry

     iteration #  2     ecut=    90.00 Ry     beta=0.70
     Davidson diagonalization with overlap
     ethr =  8.57E-06,  avg # of iterations = 15.0

     negative rho (up, down):  1.333E-03 0.000E+00

     total cpu time spent up to now is        7.0 secs

     total energy              =     -34.17728100 Ry
     Harris-Foulkes estimate   =     -34.17663313 Ry
     estimated scf accuracy    <       0.00049478 Ry

     iteration #  3     ecut=    90.00 Ry     beta=0.70
     Davidson diagonalization with overlap
     ethr =  6.18E-06,  avg # of iterations =  6.0

     negative rho (up, down):  2.201E-04 0.000E+00

     total cpu time spent up to now is        7.3 secs

     total energy              =     -34.18163668 Ry
     Harris-Foulkes estimate   =     -34.18148173 Ry
     estimated scf accuracy    <       0.00002053 Ry

     iteration #  4     ecut=    90.00 Ry     beta=0.70
     Davidson diagonalization with overlap
     c_bands:  1 eigenvalues not converged
     ethr =  2.57E-07,  avg # of iterations = 20.0

     negative rho (up, down):  8.477E-06 0.000E+00

     total cpu time spent up to now is        7.6 secs

     total energy              =     -34.18164314 Ry
     Harris-Foulkes estimate   =     -34.18164368 Ry
     estimated scf accuracy    <       0.00000046 Ry

     iteration #  5     ecut=    90.00 Ry     beta=0.70
     Davidson diagonalization with overlap
     ethr =  5.81E-09,  avg # of iterations = 10.0

     total cpu time spent up to now is        7.9 secs

     total energy              =     -34.18164294 Ry
     Harris-Foulkes estimate   =     -34.18164333 Ry
     estimated scf accuracy    <       0.00000001 Ry

     iteration #  6     ecut=    90.00 Ry     beta=0.70
     Davidson diagonalization with overlap
     ethr =  1.85E-10,  avg # of iterations =  2.0

     total cpu time spent up to now is        8.0 secs

     End of self-consistent calculation

          k = 0.0000 0.0000 0.0000 (115313 PWs)   bands (ev):

   -25.1352 -12.3904  -9.4696  -7.0959  -0.9841   0.4111   0.7442   1.1188

     the Fermi energy is    -5.1046 ev

!    total energy              =     -34.18164291 Ry
     Harris-Foulkes estimate   =     -34.18164294 Ry
     estimated scf accuracy    <          5.2E-10 Ry

     The total energy is the sum of the following terms:

     one-electron contribution =     -63.53725247 Ry
     hartree contribution      =      33.18332041 Ry
     xc contribution           =      -8.34384684 Ry
     ewald contribution        =       4.51613599 Ry
     smearing contrib. (-TS)   =       0.00000000 Ry

     convergence has been achieved in   6 iterations

     Forces acting on atoms (Ry/au):

     atom    1 type  1   force =     0.01689308   -0.00532944   -0.00480208
     atom    2 type  1   force =     0.01243548    0.00679273   -0.01900447
     atom    3 type  2   force =    -0.02932856   -0.00146330    0.02380655

     Total force =     0.048248     Total SCF correction =     0.000025

     number of scf cycles    =   3
     number of bfgs steps    =   2

     energy   old            =     -34.1765029006 Ry
     energy   new            =     -34.1816429115 Ry

     CASE: energy  _new < energy  _old

     new trust radius        =       0.0587268305 bohr
     new conv_thr            =       0.0000000029 Ry


ATOMIC_POSITIONS (angstrom)
H        0.267039271  -0.620778500   0.739476065
H       -0.881777105   0.279564742   0.273747771
O        0.024173834   0.005073758   0.031192163



     Writing output data file pwscf.save
     Check: negative starting charge=   -0.016044
     NEW-OLD atomic charge density approx. for the potential
     Check: negative starting charge=   -0.016000

     negative rho (up, down):  1.066E-02 0.000E+00

     total cpu time spent up to now is        8.6 secs

     per-process dynamical memory:    45.8 Mb

     Self-consistent Calculation

     iteration #  1     ecut=    90.00 Ry     beta=0.70
     Davidson diagonalization with overlap
     ethr =  1.00E-06,  avg # of iterations = 19.0

     negative rho (up, down):  2.803E-03 0.000E+00

     total cpu time spent up to now is        9.2 secs

     total energy              =     -34.17740245 Ry
     Harris-Foulkes estimate   =     -34.16677288 Ry
     estimated scf accuracy    <       0.00087976 Ry

     iteration #  2     ecut=    90.00 Ry     beta=0.70
     Davidson diagonalization with overlap
     ethr =  1.10E-05,  avg # of iterations = 17.0

     negative rho (up, down):  1.652E-03 0.000E+00

     total cpu time spent up to now is        9.5 secs

     total energy              =     -34.17892487 Ry
     Harris-Foulkes estimate   =     -34.17789552 Ry
     estimated scf accuracy    <       0.00067377 Ry

     iteration #  3     ecut=    90.00 Ry     beta=0.70
     Davidson diagonalization with overlap
     ethr =  8.42E-06,  avg # of iterations =  7.0

     negative rho (up, down):  1.505E-04 0.000E+00

     total cpu time spent up to now is       10.0 secs

     total energy              =     -34.17945638 Ry
     Harris-Foulkes estimate   =     -34.17908543 Ry
     estimated scf accuracy    <       0.00002301 Ry

     iteration #  4     ecut=    90.00 Ry     beta=0.70
     Davidson diagonalization with overlap
     c_bands:  1 eigenvalues not converged
     ethr =  2.88E-07,  avg # of iterations = 20.0

     negative rho (up, down):  3.891E-06 0.000E+00

     total cpu time spent up to now is       10.3 secs

     total energy              =     -34.18353976 Ry
     Harris-Foulkes estimate   =     -34.18354276 Ry
     estimated scf accuracy    <       0.00000032 Ry

     iteration #  5     ecut=    90.00 Ry     beta=0.70
     Davidson diagonalization with overlap
     ethr =  4.04E-09,  avg # of iterations = 15.0

     total cpu time spent up to now is       10.6 secs

     total energy              =     -34.18353922 Ry
     Harris-Foulkes estimate   =     -34.18353990 Ry
     estimated scf accuracy    <       0.00000002 Ry

     iteration #  6     ecut=    90.00 Ry     beta=0.70
     Davidson diagonalization with overlap
     ethr =  1.95E-10,  avg # of iterations =  2.0

     total cpu time spent up to now is       10.7 secs

     End of self-consistent calculation

          k = 0.0000 0.0000 0.0000 (115313 PWs)   bands (ev):

   -25.1486 -12.7850  -9.1883  -7.0872  -0.9332   0.4300   0.7544   1.1256

     the Fermi energy is    -5.1028 ev

!    total energy              =     -34.18353918 Ry
     Harris-Foulkes estimate   =     -34.18353923 Ry
     estimated scf accuracy    <          8.3E-10 Ry

     The total energy is the sum of the following terms:

     one-electron contribution =     -63.76298517 Ry
     hartree contribution      =      33.30017897 Ry
     xc contribution           =      -8.36325387 Ry
     ewald contribution        =       4.64252088 Ry
     smearing contrib. (-TS)   =       0.00000000 Ry

     convergence has been achieved in   6 iterations

     Forces acting on atoms (Ry/au):

     atom    1 type  1   force =     0.00290199   -0.00629176    0.00619945
     atom    2 type  1   force =    -0.00722064    0.00270417    0.00036184
     atom    3 type  2   force =     0.00431865    0.00358759   -0.00656129

     Total force =     0.014852     Total SCF correction =     0.000050

     number of scf cycles    =   4
     number of bfgs steps    =   3

     energy   old            =     -34.1816429115 Ry
     energy   new            =     -34.1835391790 Ry

     CASE: energy  _new < energy  _old

     new trust radius        =       0.0126543069 bohr
     new conv_thr            =       0.0000000007 Ry


ATOMIC_POSITIONS (angstrom)
H        0.270964129  -0.625213741   0.742601048
H       -0.885327860   0.282293587   0.271859246
O        0.023799732   0.006780153   0.029955707



     Writing output data file pwscf.save
     Check: negative starting charge=   -0.016000
     NEW-OLD atomic charge density approx. for the potential
     Check: negative starting charge=   -0.015993

     negative rho (up, down):  5.715E-04 0.000E+00

     total cpu time spent up to now is       11.4 secs

     per-process dynamical memory:    45.8 Mb

     Self-consistent Calculation

     iteration #  1     ecut=    90.00 Ry     beta=0.70
     Davidson diagonalization with overlap
     ethr =  1.00E-06,  avg # of iterations =  4.0

     negative rho (up, down):  1.359E-04 0.000E+00

     total cpu time spent up to now is       11.9 secs

     total energy              =     -34.18356097 Ry
     Harris-Foulkes estimate   =     -34.18360297 Ry
     estimated scf accuracy    <       0.00007221 Ry

     iteration #  2     ecut=    90.00 Ry     beta=0.70
     Davidson diagonalization with overlap
     ethr =  9.03E-07,  avg # of iterations =  3.0

     negative rho (up, down):  7.672E-05 0.000E+00

     total cpu time spent up to now is       12.1 secs

     total energy              =     -34.18357476 Ry
     Harris-Foulkes estimate   =     -34.18360778 Ry
     estimated scf accuracy    <       0.00006573 Ry

     iteration #  3     ecut=    90.00 Ry     beta=0.70
     Davidson diagonalization with overlap
     ethr =  8.22E-07,  avg # of iterations =  2.0

     negative rho (up, down):  9.243E-06 0.000E+00

     total cpu time spent up to now is       12.3 secs

     total energy              =     -34.18358987 Ry
     Harris-Foulkes estimate   =     -34.18358930 Ry
     estimated scf accuracy    <       0.00000085 Ry

     iteration #  4     ecut=    90.00 Ry     beta=0.70
     Davidson diagonalization with overlap
     ethr =  1.07E-08,  avg # of iterations =  2.0

     negative rho (up, down):  1.647E-07 0.000E+00

     total cpu time spent up to now is       12.5 secs

     total energy              =     -34.18359006 Ry
     Harris-Foulkes estimate   =     -34.18359012 Ry
     estimated scf accuracy    <       0.00000002 Ry

     iteration #  5     ecut=    90.00 Ry     beta=0.70
     Davidson diagonalization with overlap
     ethr =  2.43E-10,  avg # of iterations =  2.0

     total cpu time spent up to now is       12.7 secs

     total energy              =     -34.18359012 Ry
     Harris-Foulkes estimate   =     -34.18359007 Ry
     estimated scf accuracy    <          9.5E-10 Ry

     iteration #  6     ecut=    90.00 Ry     beta=0.70
     Davidson diagonalization with overlap
     ethr =  1.19E-11,  avg # of iterations =  2.0

     total cpu time spent up to now is       12.9 secs

     End of self-consistent calculation

          k = 0.0000 0.0000 0.0000 (115313 PWs)   bands (ev):

   -25.0836 -12.7450  -9.1676  -7.0751  -0.9490   0.4250   0.7414   1.1247

     the Fermi energy is    -5.0872 ev

!    total energy              =     -34.18359014 Ry
     Harris-Foulkes estimate   =     -34.18359013 Ry
     estimated scf accuracy    <          7.0E-11 Ry

     The total energy is the sum of the following terms:

     one-electron contribution =     -63.63205577 Ry
     hartree contribution      =      33.23827774 Ry
     xc contribution           =      -8.35312620 Ry
     ewald contribution        =       4.56331410 Ry
     smearing contrib. (-TS)   =       0.00000000 Ry

     convergence has been achieved in   6 iterations

     Forces acting on atoms (Ry/au):

     atom    1 type  1   force =    -0.00232488    0.00403674   -0.00477298
     atom    2 type  1   force =    -0.00160378    0.00014725   -0.00007667
     atom    3 type  2   force =     0.00392865   -0.00418400    0.00484965

     Total force =     0.010175     Total SCF correction =     0.000046

     number of scf cycles    =   5
     number of bfgs steps    =   4

     energy   old            =     -34.1835391790 Ry
     energy   new            =     -34.1835901356 Ry

     CASE: energy  _new < energy  _old

     new trust radius        =       0.0037420559 bohr
     new conv_thr            =            1.0E-10 Ry


ATOMIC_POSITIONS (angstrom)
H        0.269942522  -0.624042159   0.741383981
H       -0.885572368   0.282101725   0.271910834
O        0.025065846   0.005800433   0.031121184



     Writing output data file pwscf.save
     Check: negative starting charge=   -0.015993
     NEW-OLD atomic charge density approx. for the potential
     Check: negative starting charge=   -0.015996

     negative rho (up, down):  5.331E-04 0.000E+00

     total cpu time spent up to now is       13.5 secs

     per-process dynamical memory:    45.8 Mb

     Self-consistent Calculation

     iteration #  1     ecut=    90.00 Ry     beta=0.70
     Davidson diagonalization with overlap
     ethr =  1.00E-06,  avg # of iterations =  4.0

     Threshold (ethr) on eigenvalues was too large:
     Diagonalizing with lowered threshold

     Davidson diagonalization with overlap
     ethr =  9.24E-08,  avg # of iterations =  1.0

     negative rho (up, down):  1.256E-04 0.000E+00

     total cpu time spent up to now is       13.8 secs

     total energy              =     -34.18361185 Ry
     Harris-Foulkes estimate   =     -34.18361053 Ry
     estimated scf accuracy    <       0.00000754 Ry

     iteration #  2     ecut=    90.00 Ry     beta=0.70
     Davidson diagonalization with overlap
     ethr =  9.43E-08,  avg # of iterations =  3.0

     negative rho (up, down):  5.851E-05 0.000E+00

     total cpu time spent up to now is       14.0 secs

     total energy              =     -34.18361380 Ry
     Harris-Foulkes estimate   =     -34.18361520 Ry
     estimated scf accuracy    <       0.00000321 Ry

     iteration #  3     ecut=    90.00 Ry     beta=0.70
     Davidson diagonalization with overlap
     ethr =  4.01E-08,  avg # of iterations =  2.0

     negative rho (up, down):  1.303E-05 0.000E+00

     total cpu time spent up to now is       14.2 secs

     total energy              =     -34.18361478 Ry
     Harris-Foulkes estimate   =     -34.18361480 Ry
     estimated scf accuracy    <       0.00000034 Ry

     iteration #  4     ecut=    90.00 Ry     beta=0.70
     Davidson diagonalization with overlap
     ethr =  4.28E-09,  avg # of iterations =  2.0

     negative rho (up, down):  5.251E-08 0.000E+00

     total cpu time spent up to now is       14.4 secs

     total energy              =     -34.18361497 Ry
     Harris-Foulkes estimate   =     -34.18361487 Ry
     estimated scf accuracy    <          5.7E-09 Ry

     iteration #  5     ecut=    90.00 Ry     beta=0.70
     Davidson diagonalization with overlap
     ethr =  7.07E-11,  avg # of iterations =  2.0

     total cpu time spent up to now is       14.6 secs

     total energy              =     -34.18361501 Ry
     Harris-Foulkes estimate   =     -34.18361497 Ry
     estimated scf accuracy    <          3.7E-10 Ry

     iteration #  6     ecut=    90.00 Ry     beta=0.70
     Davidson diagonalization with overlap
     ethr =  4.62E-12,  avg # of iterations =  2.0

     total cpu time spent up to now is       14.9 secs

     End of self-consistent calculation

          k = 0.0000 0.0000 0.0000 (115313 PWs)   bands (ev):

   -25.0958 -12.7558  -9.1691  -7.0774  -0.9456   0.4261   0.7440   1.1245

     the Fermi energy is    -5.0904 ev

!    total energy              =     -34.18361500 Ry
     Harris-Foulkes estimate   =     -34.18361501 Ry
     estimated scf accuracy    <          6.3E-11 Ry

     The total energy is the sum of the following terms:

     one-electron contribution =     -63.65874076 Ry
     hartree contribution      =      33.25096299 Ry
     xc contribution           =      -8.35520519 Ry
     ewald contribution        =       4.57936796 Ry
     smearing contrib. (-TS)   =       0.00000000 Ry

     convergence has been achieved in   6 iterations

     Forces acting on atoms (Ry/au):

     atom    1 type  1   force =    -0.00043852   -0.00046257    0.00028727
     atom    2 type  1   force =     0.00087118   -0.00052853   -0.00076376
     atom    3 type  2   force =    -0.00043265    0.00099110    0.00047649

     Total force =     0.001873     Total SCF correction =     0.000048

     bfgs converged in   6 scf cycles and   5 bfgs steps
     (criteria: energy <  1.0E-04, force <  1.0E-03)

     End of BFGS Geometry Optimization

     Final energy   =     -34.1836150001 Ry
Begin final coordinates

ATOMIC_POSITIONS (angstrom)
H        0.269942522  -0.624042159   0.741383981
H       -0.885572368   0.282101725   0.271910834
O        0.025065846   0.005800433   0.031121184
End final coordinates



     Writing output data file pwscf.save
 
     init_run     :      0.52s CPU      0.55s WALL (       1 calls)
     electrons    :      9.95s CPU     11.88s WALL (       6 calls)
     update_pot   :      1.23s CPU      1.51s WALL (       5 calls)
     forces       :      0.41s CPU      0.41s WALL (       6 calls)

     Called by init_run:
     wfcinit      :      0.03s CPU      0.04s WALL (       1 calls)
     potinit      :      0.11s CPU      0.12s WALL (       1 calls)

     Called by electrons:
     c_bands      :      4.86s CPU      5.04s WALL (      40 calls)
     sum_band     :      0.82s CPU      0.85s WALL (      40 calls)
     v_of_rho     :      2.37s CPU      2.54s WALL (      45 calls)
     mix_rho      :      0.89s CPU      1.73s WALL (      40 calls)

     Called by c_bands:
     init_us_2    :      0.02s CPU      0.03s WALL (      81 calls)
     cegterg      :      4.83s CPU      5.00s WALL (      40 calls)

     Called by sum_band:

     Called by *egterg:
     h_psi        :      4.08s CPU      4.23s WALL (     332 calls)
     g_psi        :      0.04s CPU      0.04s WALL (     291 calls)
     cdiaghg      :      0.08s CPU      0.08s WALL (     325 calls)

     Called by h_psi:
     h_psi:pot    :      4.04s CPU      4.20s WALL (     332 calls)
     h_psi:calbec :      0.11s CPU      0.12s WALL (     332 calls)
     vloc_psi     :      3.90s CPU      4.04s WALL (     332 calls)
     add_vuspsi   :      0.03s CPU      0.03s WALL (     332 calls)

     General routines
     calbec       :      0.11s CPU      0.12s WALL (     356 calls)
     fft          :      1.67s CPU      1.77s WALL (     508 calls)
     fftw         :      3.84s CPU      3.99s WALL (    2984 calls)
     davcio       :      0.10s CPU      0.70s WALL (     279 calls)
 
     Parallel routines
     fft_scatter  :      1.98s CPU      2.22s WALL (    3492 calls)
 
     PWSCF        :    12.55s CPU        15.37s WALL

 
   This run was terminated on:   2:20:22  28Jul2018            

=------------------------------------------------------------------------------=
   JOB DONE.
=------------------------------------------------------------------------------=
