
     Program PWSCF v.6.0 (svn rev. 13079) starts on 28Jul2018 at  2:50:17 

     This program is part of the open-source Quantum ESPRESSO suite
     for quantum simulation of materials; please cite
         "P. Giannozzi et al., J. Phys.:Condens. Matter 21 395502 (2009);
          URL http://www.quantum-espresso.org", 
     in publications or presentations arising from this work. More details at
     http://www.quantum-espresso.org/quote

     Parallel version (MPI), running on    28 processors
     R & G space division:  proc/nbgrp/npool/nimage =      28
     Reading input from ../QMCmins/relax-94.in

     Current dimensions of program PWSCF are:
     Max number of different atomic species (ntypx) = 10
     Max number of k-points (npk) =  40000
     Max angular momentum in pseudopotentials (lmaxx) =  3
     Message from routine iosys:
     pot_extrapolation='second-order' not available, using 'atomic'
     Message from routine iosys:
     wfc_extrapolation='second-order' not available, using 'atomic'

     Subspace diagonalization in iterative solution of the eigenvalue problem:
     a serial algorithm will be used

 
     Parallelization info
     --------------------
     sticks:   dense  smooth     PW     G-vecs:    dense   smooth      PW
     Min         408     408    102                32936    32936    4116
     Max         409     409    103                32943    32943    4121
     Sum       11449   11449   2869               922329   922329  115313
 


     bravais-lattice index     =            1
     lattice parameter (alat)  =      20.0000  a.u.
     unit-cell volume          =    8000.0000 (a.u.)^3
     number of atoms/cell      =            3
     number of atomic types    =            2
     number of electrons       =         8.00
     number of Kohn-Sham states=            8
     kinetic-energy cutoff     =      90.0000  Ry
     charge density cutoff     =     360.0000  Ry
     convergence threshold     =      1.0E-08
     mixing beta               =       0.7000
     number of iterations used =            8  plain     mixing
     Exchange-correlation      = BLYP ( 1  3  1  3 0 0)
     nstep                     =           50


     celldm(1)=  20.000000  celldm(2)=   0.000000  celldm(3)=   0.000000
     celldm(4)=   0.000000  celldm(5)=   0.000000  celldm(6)=   0.000000

     crystal axes: (cart. coord. in units of alat)
               a(1) = (   1.000000   0.000000   0.000000 )  
               a(2) = (   0.000000   1.000000   0.000000 )  
               a(3) = (   0.000000   0.000000   1.000000 )  

     reciprocal axes: (cart. coord. in units 2 pi/alat)
               b(1) = (  1.000000  0.000000  0.000000 )  
               b(2) = (  0.000000  1.000000  0.000000 )  
               b(3) = (  0.000000  0.000000  1.000000 )  


     PseudoPot. # 1 for  H read from file:
     ../H.blyp-hgh.UPF
     MD5 check sum: c576e69559cde411e611be972c763230
     Pseudo is Norm-conserving, Zval =  1.0
     Generated in analytical, separable form
     Using radial grid of  929 points,  0 beta functions with: 

     PseudoPot. # 2 for  O read from file:
     ../O.blyp-hgh.UPF
     MD5 check sum: d0b7156309aa9befef28faac7bc56342
     Pseudo is Norm-conserving, Zval =  6.0
     Generated in analytical, separable form
     Using radial grid of 1095 points,  1 beta functions with: 
                l(1) =   0

     atomic species   valence    mass     pseudopotential
        H              1.00     1.01000      H( 1.00)
        O              6.00    16.00000      O( 1.00)

     No symmetry found



   Cartesian axes

     site n.     atom                  positions (alat units)
         1           H   tau(   1) = (   0.0863008   0.0353141   0.0307195  )
         2           H   tau(   2) = (   0.0341946  -0.0856068   0.0208239  )
         3           O   tau(   3) = (  -0.0076062   0.0031747   0.0023243  )

     number of k points=     1  Marzari-Vanderbilt smearing, width (Ry)=  0.0250
                       cart. coord. in units 2pi/alat
        k(    1) = (   0.0000000   0.0000000   0.0000000), wk =   2.0000000

     Dense  grid:   922329 G-vectors     FFT dimensions: ( 125, 125, 125)

     Estimated max dynamical RAM per process >      31.67Mb

     Estimated total allocated dynamical RAM >     886.64Mb

     Initial potential from superposition of free atoms
     Check: negative starting charge=   -0.016032

     starting charge    7.99998, renormalised to    8.00000

     negative rho (up, down):  1.603E-02 0.000E+00
     Starting wfc are    6 randomized atomic wfcs +    2 random wfc

     total cpu time spent up to now is        0.8 secs

     per-process dynamical memory:    33.5 Mb

     Self-consistent Calculation

     iteration #  1     ecut=    90.00 Ry     beta=0.70
     Davidson diagonalization with overlap
     ethr =  1.00E-02,  avg # of iterations =  7.0

     negative rho (up, down):  4.615E-03 0.000E+00

     total cpu time spent up to now is        1.1 secs

     total energy              =     -34.00656193 Ry
     Harris-Foulkes estimate   =     -34.20252232 Ry
     estimated scf accuracy    <       0.30320511 Ry

     iteration #  2     ecut=    90.00 Ry     beta=0.70
     Davidson diagonalization with overlap
     ethr =  3.79E-03,  avg # of iterations =  2.0

     negative rho (up, down):  2.918E-03 0.000E+00

     total cpu time spent up to now is        1.3 secs

     total energy              =     -34.03405948 Ry
     Harris-Foulkes estimate   =     -34.24854173 Ry
     estimated scf accuracy    <       0.50157168 Ry

     iteration #  3     ecut=    90.00 Ry     beta=0.70
     Davidson diagonalization with overlap
     ethr =  3.79E-03,  avg # of iterations =  2.0

     negative rho (up, down):  1.204E-04 0.000E+00

     total cpu time spent up to now is        1.4 secs

     total energy              =     -34.13854521 Ry
     Harris-Foulkes estimate   =     -34.13897678 Ry
     estimated scf accuracy    <       0.00586775 Ry

     iteration #  4     ecut=    90.00 Ry     beta=0.70
     Davidson diagonalization with overlap
     ethr =  7.33E-05,  avg # of iterations =  6.0

     negative rho (up, down):  3.165E-06 0.000E+00

     total cpu time spent up to now is        1.7 secs

     total energy              =     -34.14000807 Ry
     Harris-Foulkes estimate   =     -34.14009466 Ry
     estimated scf accuracy    <       0.00023998 Ry

     iteration #  5     ecut=    90.00 Ry     beta=0.70
     Davidson diagonalization with overlap
     ethr =  3.00E-06,  avg # of iterations =  5.0

     negative rho (up, down):  2.537E-06 0.000E+00

     total cpu time spent up to now is        1.9 secs

     total energy              =     -34.14002028 Ry
     Harris-Foulkes estimate   =     -34.14002512 Ry
     estimated scf accuracy    <       0.00002140 Ry

     iteration #  6     ecut=    90.00 Ry     beta=0.70
     Davidson diagonalization with overlap
     ethr =  2.68E-07,  avg # of iterations =  2.0

     negative rho (up, down):  9.227E-08 0.000E+00

     total cpu time spent up to now is        2.1 secs

     total energy              =     -34.14002220 Ry
     Harris-Foulkes estimate   =     -34.14002213 Ry
     estimated scf accuracy    <       0.00000122 Ry

     iteration #  7     ecut=    90.00 Ry     beta=0.70
     Davidson diagonalization with overlap
     ethr =  1.53E-08,  avg # of iterations =  2.0

     total cpu time spent up to now is        2.4 secs

     total energy              =     -34.14002206 Ry
     Harris-Foulkes estimate   =     -34.14002239 Ry
     estimated scf accuracy    <       0.00000003 Ry

     iteration #  8     ecut=    90.00 Ry     beta=0.70
     Davidson diagonalization with overlap
     ethr =  3.38E-10,  avg # of iterations =  3.0

     total cpu time spent up to now is        2.5 secs

     End of self-consistent calculation

          k = 0.0000 0.0000 0.0000 (115313 PWs)   bands (ev):

   -24.5676 -10.9025 -10.1950  -7.0412  -1.3923   0.2975   0.5041   1.0876

     the Fermi energy is    -4.9860 ev

!    total energy              =     -34.14002200 Ry
     Harris-Foulkes estimate   =     -34.14002207 Ry
     estimated scf accuracy    <          5.2E-09 Ry

     The total energy is the sum of the following terms:

     one-electron contribution =     -61.77832646 Ry
     hartree contribution      =      32.31357911 Ry
     xc contribution           =      -8.20335904 Ry
     ewald contribution        =       3.52808439 Ry
     smearing contrib. (-TS)   =       0.00000000 Ry

     convergence has been achieved in   8 iterations

     Forces acting on atoms (Ry/au):

     atom    1 type  1   force =    -0.12335209    0.01489391   -0.04046850
     atom    2 type  1   force =    -0.08506471    0.05032416   -0.03024054
     atom    3 type  2   force =     0.20841680   -0.06521807    0.07070904

     Total force =     0.283635     Total SCF correction =     0.000140

     BFGS Geometry Optimization

     number of scf cycles    =   1
     number of bfgs steps    =   0

     energy   new            =     -34.1400219999 Ry

     new trust radius        =       0.2295446080 bohr
     new conv_thr            =       0.0000000100 Ry


ATOMIC_POSITIONS (angstrom)
H        0.848092887   0.381629517   0.303705992
H        0.316885694  -0.879392601   0.204388394
O        0.029788419  -0.000911916   0.062016614



     Writing output data file pwscf.save
     Check: negative starting charge=   -0.016032
     NEW-OLD atomic charge density approx. for the potential
     Check: negative starting charge=   -0.016072

     negative rho (up, down):  3.006E-02 0.000E+00

     total cpu time spent up to now is        3.1 secs

     per-process dynamical memory:    45.8 Mb

     Self-consistent Calculation

     iteration #  1     ecut=    90.00 Ry     beta=0.70
     Davidson diagonalization with overlap
     c_bands:  2 eigenvalues not converged
     ethr =  1.00E-06,  avg # of iterations = 20.0

     negative rho (up, down):  8.019E-03 0.000E+00

     total cpu time spent up to now is        3.6 secs

     total energy              =     -34.13242509 Ry
     Harris-Foulkes estimate   =     -34.20120069 Ry
     estimated scf accuracy    <       0.05044906 Ry

     iteration #  2     ecut=    90.00 Ry     beta=0.70
     Davidson diagonalization with overlap
     ethr =  6.31E-04,  avg # of iterations =  3.0

     negative rho (up, down):  4.963E-03 0.000E+00

     total cpu time spent up to now is        3.8 secs

     total energy              =     -34.14954448 Ry
     Harris-Foulkes estimate   =     -34.17460559 Ry
     estimated scf accuracy    <       0.05767029 Ry

     iteration #  3     ecut=    90.00 Ry     beta=0.70
     Davidson diagonalization with overlap
     ethr =  6.31E-04,  avg # of iterations =  2.0

     negative rho (up, down):  1.020E-03 0.000E+00

     total cpu time spent up to now is        4.0 secs

     total energy              =     -34.16483450 Ry
     Harris-Foulkes estimate   =     -34.16063241 Ry
     estimated scf accuracy    <       0.00024241 Ry

     iteration #  4     ecut=    90.00 Ry     beta=0.70
     Davidson diagonalization with overlap
     ethr =  3.03E-06,  avg # of iterations = 16.0

     negative rho (up, down):  1.752E-04 0.000E+00

     total cpu time spent up to now is        4.4 secs

     total energy              =     -34.16504016 Ry
     Harris-Foulkes estimate   =     -34.16499831 Ry
     estimated scf accuracy    <       0.00000866 Ry

     iteration #  5     ecut=    90.00 Ry     beta=0.70
     Davidson diagonalization with overlap
     ethr =  1.08E-07,  avg # of iterations =  7.0

     negative rho (up, down):  9.453E-08 0.000E+00

     total cpu time spent up to now is        4.6 secs

     total energy              =     -34.16911691 Ry
     Harris-Foulkes estimate   =     -34.16911927 Ry
     estimated scf accuracy    <       0.00000051 Ry

     iteration #  6     ecut=    90.00 Ry     beta=0.70
     Davidson diagonalization with overlap
     ethr =  6.42E-09,  avg # of iterations =  3.0

     total cpu time spent up to now is        4.8 secs

     End of self-consistent calculation

          k = 0.0000 0.0000 0.0000 (115313 PWs)   bands (ev):

   -25.8224 -12.6890  -9.7099  -7.2133  -0.8611   0.4479   0.8632   1.1197

     the Fermi energy is    -5.2757 ev

!    total energy              =     -34.16911685 Ry
     Harris-Foulkes estimate   =     -34.16911703 Ry
     estimated scf accuracy    <          8.9E-09 Ry

     The total energy is the sum of the following terms:

     one-electron contribution =     -64.80914330 Ry
     hartree contribution      =      33.78545184 Ry
     xc contribution           =      -8.44254105 Ry
     ewald contribution        =       5.29711566 Ry
     smearing contrib. (-TS)   =       0.00000000 Ry

     convergence has been achieved in   6 iterations

     Forces acting on atoms (Ry/au):

     atom    1 type  1   force =     0.08289431    0.08096219    0.02265657
     atom    2 type  1   force =    -0.00100611   -0.11813567    0.00701067
     atom    3 type  2   force =    -0.08188820    0.03717348   -0.02966724

     Total force =     0.192129     Total SCF correction =     0.000083

     number of scf cycles    =   2
     number of bfgs steps    =   1

     energy   old            =     -34.1400219999 Ry
     energy   new            =     -34.1691168494 Ry

     CASE: energy  _new < energy  _old

     new trust radius        =       0.0755928331 bohr
     new conv_thr            =       0.0000000100 Ry


ATOMIC_POSITIONS (angstrom)
H        0.870698239   0.411707719   0.309485329
H        0.311495954  -0.919022912   0.205129643
O        0.012572807   0.008640193   0.055496028



     Writing output data file pwscf.save
     Check: negative starting charge=   -0.016072
     NEW-OLD atomic charge density approx. for the potential
     Check: negative starting charge=   -0.016059

     negative rho (up, down):  6.957E-03 0.000E+00

     total cpu time spent up to now is        5.4 secs

     per-process dynamical memory:    45.8 Mb

     Self-consistent Calculation

     iteration #  1     ecut=    90.00 Ry     beta=0.70
     Davidson diagonalization with overlap
     c_bands:  1 eigenvalues not converged
     ethr =  1.00E-06,  avg # of iterations = 20.0

     negative rho (up, down):  1.805E-03 0.000E+00

     total cpu time spent up to now is        6.0 secs

     total energy              =     -34.17255587 Ry
     Harris-Foulkes estimate   =     -34.16914857 Ry
     estimated scf accuracy    <       0.00585778 Ry

     iteration #  2     ecut=    90.00 Ry     beta=0.70
     Davidson diagonalization with overlap
     ethr =  7.32E-05,  avg # of iterations =  8.0

     negative rho (up, down):  1.135E-03 0.000E+00

     total cpu time spent up to now is        6.2 secs

     total energy              =     -34.17827615 Ry
     Harris-Foulkes estimate   =     -34.18075336 Ry
     estimated scf accuracy    <       0.00601963 Ry

     iteration #  3     ecut=    90.00 Ry     beta=0.70
     Davidson diagonalization with overlap
     ethr =  7.32E-05,  avg # of iterations =  2.0

     negative rho (up, down):  2.615E-04 0.000E+00

     total cpu time spent up to now is        6.4 secs

     total energy              =     -34.17961132 Ry
     Harris-Foulkes estimate   =     -34.17954370 Ry
     estimated scf accuracy    <       0.00004344 Ry

     iteration #  4     ecut=    90.00 Ry     beta=0.70
     Davidson diagonalization with overlap
     c_bands:  1 eigenvalues not converged
     ethr =  5.43E-07,  avg # of iterations = 20.0

     negative rho (up, down):  1.753E-05 0.000E+00

     total cpu time spent up to now is        6.7 secs

     total energy              =     -34.17962964 Ry
     Harris-Foulkes estimate   =     -34.17962484 Ry
     estimated scf accuracy    <       0.00000118 Ry

     iteration #  5     ecut=    90.00 Ry     beta=0.70
     Davidson diagonalization with overlap
     ethr =  1.47E-08,  avg # of iterations = 12.0

     total cpu time spent up to now is        7.0 secs

     total energy              =     -34.17962966 Ry
     Harris-Foulkes estimate   =     -34.17962990 Ry
     estimated scf accuracy    <       0.00000005 Ry

     iteration #  6     ecut=    90.00 Ry     beta=0.70
     Davidson diagonalization with overlap
     ethr =  5.64E-10,  avg # of iterations =  2.0

     total cpu time spent up to now is        7.1 secs

     End of self-consistent calculation

          k = 0.0000 0.0000 0.0000 (115313 PWs)   bands (ev):

   -25.2337 -12.2863  -9.6154  -7.1156  -0.9842   0.4095   0.7673   1.1129

     the Fermi energy is    -5.1336 ev

!    total energy              =     -34.17962971 Ry
     Harris-Foulkes estimate   =     -34.17962967 Ry
     estimated scf accuracy    <          1.6E-09 Ry

     The total energy is the sum of the following terms:

     one-electron contribution =     -63.64753473 Ry
     hartree contribution      =      33.23175981 Ry
     xc contribution           =      -8.35126171 Ry
     ewald contribution        =       4.58740692 Ry
     smearing contrib. (-TS)   =       0.00000000 Ry

     convergence has been achieved in   6 iterations

     Forces acting on atoms (Ry/au):

     atom    1 type  1   force =    -0.00350924    0.02858881   -0.00222516
     atom    2 type  1   force =    -0.02566869   -0.01001387   -0.00714090
     atom    3 type  2   force =     0.02917793   -0.01857494    0.00936606

     Total force =     0.054119     Total SCF correction =     0.000073

     number of scf cycles    =   3
     number of bfgs steps    =   2

     energy   old            =     -34.1691168494 Ry
     energy   new            =     -34.1796297150 Ry

     CASE: energy  _new < energy  _old

     new trust radius        =       0.0494121395 bohr
     new conv_thr            =       0.0000000029 Ry


ATOMIC_POSITIONS (angstrom)
H        0.873265888   0.437727544   0.309198651
H        0.293511449  -0.936306933   0.200703327
O        0.027989663  -0.000095611   0.060209022



     Writing output data file pwscf.save
     Check: negative starting charge=   -0.016059
     NEW-OLD atomic charge density approx. for the potential
     Check: negative starting charge=   -0.016025

     negative rho (up, down):  6.136E-03 0.000E+00

     total cpu time spent up to now is        7.7 secs

     per-process dynamical memory:    45.8 Mb

     Self-consistent Calculation

     iteration #  1     ecut=    90.00 Ry     beta=0.70
     Davidson diagonalization with overlap
     c_bands:  1 eigenvalues not converged
     ethr =  1.00E-06,  avg # of iterations = 20.0

     negative rho (up, down):  1.605E-03 0.000E+00

     total cpu time spent up to now is        8.2 secs

     total energy              =     -34.17809132 Ry
     Harris-Foulkes estimate   =     -34.17187621 Ry
     estimated scf accuracy    <       0.00021349 Ry

     iteration #  2     ecut=    90.00 Ry     beta=0.70
     Davidson diagonalization with overlap
     ethr =  2.67E-06,  avg # of iterations = 15.0

     negative rho (up, down):  4.243E-04 0.000E+00

     total cpu time spent up to now is        8.6 secs

     total energy              =     -34.17846381 Ry
     Harris-Foulkes estimate   =     -34.17813586 Ry
     estimated scf accuracy    <       0.00003354 Ry

     iteration #  3     ecut=    90.00 Ry     beta=0.70
     Davidson diagonalization with overlap
     ethr =  4.19E-07,  avg # of iterations =  6.0

     negative rho (up, down):  5.735E-05 0.000E+00

     total cpu time spent up to now is        8.8 secs

     total energy              =     -34.18255470 Ry
     Harris-Foulkes estimate   =     -34.18255922 Ry
     estimated scf accuracy    <       0.00002211 Ry

     iteration #  4     ecut=    90.00 Ry     beta=0.70
     Davidson diagonalization with overlap
     ethr =  2.76E-07,  avg # of iterations = 15.0

     total cpu time spent up to now is        9.1 secs

     total energy              =     -34.18255808 Ry
     Harris-Foulkes estimate   =     -34.18255932 Ry
     estimated scf accuracy    <       0.00000014 Ry

     iteration #  5     ecut=    90.00 Ry     beta=0.70
     Davidson diagonalization with overlap
     ethr =  1.76E-09,  avg # of iterations =  2.0

     total cpu time spent up to now is        9.3 secs

     total energy              =     -34.18255818 Ry
     Harris-Foulkes estimate   =     -34.18255816 Ry
     estimated scf accuracy    <          5.3E-09 Ry

     iteration #  6     ecut=    90.00 Ry     beta=0.70
     Davidson diagonalization with overlap
     ethr =  6.64E-11,  avg # of iterations =  2.0

     total cpu time spent up to now is        9.4 secs

     End of self-consistent calculation

          k = 0.0000 0.0000 0.0000 (115313 PWs)   bands (ev):

   -25.1524 -12.5066  -9.3981  -7.0954  -0.9670   0.4174   0.7566   1.1149

     the Fermi energy is    -5.1118 ev

!    total energy              =     -34.18255819 Ry
     Harris-Foulkes estimate   =     -34.18255818 Ry
     estimated scf accuracy    <          4.4E-10 Ry

     The total energy is the sum of the following terms:

     one-electron contribution =     -63.62594360 Ry
     hartree contribution      =      33.22806147 Ry
     xc contribution           =      -8.35123585 Ry
     ewald contribution        =       4.56655979 Ry
     smearing contrib. (-TS)   =       0.00000000 Ry

     convergence has been achieved in   6 iterations

     Forces acting on atoms (Ry/au):

     atom    1 type  1   force =    -0.00717375    0.01201713   -0.00244506
     atom    2 type  1   force =    -0.01326029   -0.00463634   -0.00342797
     atom    3 type  2   force =     0.02043404   -0.00738079    0.00587303

     Total force =     0.030289     Total SCF correction =     0.000034

     number of scf cycles    =   4
     number of bfgs steps    =   3

     energy   old            =     -34.1796297150 Ry
     energy   new            =     -34.1825581881 Ry

     CASE: energy  _new < energy  _old

     new trust radius        =       0.0518456731 bohr
     new conv_thr            =       0.0000000020 Ry


ATOMIC_POSITIONS (angstrom)
H        0.871766796   0.463368172   0.307941436
H        0.274785729  -0.955914445   0.196507826
O        0.048214475  -0.006128728   0.065661739



     Writing output data file pwscf.save
     Check: negative starting charge=   -0.016025
     NEW-OLD atomic charge density approx. for the potential
     Check: negative starting charge=   -0.015993

     negative rho (up, down):  7.297E-03 0.000E+00

     total cpu time spent up to now is       10.0 secs

     per-process dynamical memory:    45.8 Mb

     Self-consistent Calculation

     iteration #  1     ecut=    90.00 Ry     beta=0.70
     Davidson diagonalization with overlap
     c_bands:  1 eigenvalues not converged
     ethr =  1.00E-06,  avg # of iterations = 20.0

     negative rho (up, down):  1.909E-03 0.000E+00

     total cpu time spent up to now is       10.9 secs

     total energy              =     -34.17875038 Ry
     Harris-Foulkes estimate   =     -34.17193150 Ry
     estimated scf accuracy    <       0.00030256 Ry

     iteration #  2     ecut=    90.00 Ry     beta=0.70
     Davidson diagonalization with overlap
     ethr =  3.78E-06,  avg # of iterations = 17.0

     negative rho (up, down):  8.804E-04 0.000E+00

     total cpu time spent up to now is       11.2 secs

     total energy              =     -34.17942620 Ry
     Harris-Foulkes estimate   =     -34.17886587 Ry
     estimated scf accuracy    <       0.00011192 Ry

     iteration #  3     ecut=    90.00 Ry     beta=0.70
     Davidson diagonalization with overlap
     ethr =  1.40E-06,  avg # of iterations =  7.0

     negative rho (up, down):  6.896E-05 0.000E+00

     total cpu time spent up to now is       11.4 secs

     total energy              =     -34.18356837 Ry
     Harris-Foulkes estimate   =     -34.18354475 Ry
     estimated scf accuracy    <       0.00002662 Ry

     iteration #  4     ecut=    90.00 Ry     beta=0.70
     Davidson diagonalization with overlap
     c_bands:  1 eigenvalues not converged
     ethr =  3.33E-07,  avg # of iterations = 20.0

     negative rho (up, down):  1.057E-07 0.000E+00

     total cpu time spent up to now is       11.7 secs

     total energy              =     -34.18357214 Ry
     Harris-Foulkes estimate   =     -34.18357422 Ry
     estimated scf accuracy    <       0.00000013 Ry

     iteration #  5     ecut=    90.00 Ry     beta=0.70
     Davidson diagonalization with overlap
     ethr =  1.57E-09,  avg # of iterations =  9.0

     total cpu time spent up to now is       12.0 secs

     total energy              =     -34.18357212 Ry
     Harris-Foulkes estimate   =     -34.18357225 Ry
     estimated scf accuracy    <       0.00000001 Ry

     iteration #  6     ecut=    90.00 Ry     beta=0.70
     Davidson diagonalization with overlap
     ethr =  1.64E-10,  avg # of iterations =  2.0

     total cpu time spent up to now is       12.1 secs

     End of self-consistent calculation

          k = 0.0000 0.0000 0.0000 (115313 PWs)   bands (ev):

   -25.0863 -12.7526  -9.1637  -7.0761  -0.9495   0.4250   0.7487   1.1174

     the Fermi energy is    -5.0934 ev

!    total energy              =     -34.18357208 Ry
     Harris-Foulkes estimate   =     -34.18357213 Ry
     estimated scf accuracy    <          1.5E-09 Ry

     The total energy is the sum of the following terms:

     one-electron contribution =     -63.64007441 Ry
     hartree contribution      =      33.24211614 Ry
     xc contribution           =      -8.35378610 Ry
     ewald contribution        =       4.56817229 Ry
     smearing contrib. (-TS)   =       0.00000000 Ry

     convergence has been achieved in   6 iterations

     Forces acting on atoms (Ry/au):

     atom    1 type  1   force =     0.00408804    0.00203835    0.00136769
     atom    2 type  1   force =    -0.00144315    0.00837979   -0.00081131
     atom    3 type  2   force =    -0.00264489   -0.01041814   -0.00055639

     Total force =     0.014544     Total SCF correction =     0.000029

     number of scf cycles    =   5
     number of bfgs steps    =   4

     energy   old            =     -34.1825581881 Ry
     energy   new            =     -34.1835720818 Ry

     CASE: energy  _new < energy  _old

     new trust radius        =       0.0096025524 bohr
     new conv_thr            =       0.0000000010 Ry


ATOMIC_POSITIONS (angstrom)
H        0.873940777   0.465068107   0.308660930
H        0.273772718  -0.952676992   0.196097378
O        0.047053505  -0.011066115   0.065352692



     Writing output data file pwscf.save
     Check: negative starting charge=   -0.015993
     NEW-OLD atomic charge density approx. for the potential
     Check: negative starting charge=   -0.015985

     negative rho (up, down):  1.507E-03 0.000E+00

     total cpu time spent up to now is       12.7 secs

     per-process dynamical memory:    45.8 Mb

     Self-consistent Calculation

     iteration #  1     ecut=    90.00 Ry     beta=0.70
     Davidson diagonalization with overlap
     ethr =  1.00E-06,  avg # of iterations =  8.0

     negative rho (up, down):  3.813E-04 0.000E+00

     total cpu time spent up to now is       13.1 secs

     total energy              =     -34.17948199 Ry
     Harris-Foulkes estimate   =     -34.17921438 Ry
     estimated scf accuracy    <       0.00003563 Ry

     iteration #  2     ecut=    90.00 Ry     beta=0.70
     Davidson diagonalization with overlap
     ethr =  4.45E-07,  avg # of iterations =  5.0

     negative rho (up, down):  1.372E-04 0.000E+00

     total cpu time spent up to now is       13.3 secs

     total energy              =     -34.18357222 Ry
     Harris-Foulkes estimate   =     -34.18357077 Ry
     estimated scf accuracy    <       0.00000394 Ry

     iteration #  3     ecut=    90.00 Ry     beta=0.70
     Davidson diagonalization with overlap
     ethr =  4.93E-08,  avg # of iterations =  3.0

     negative rho (up, down):  4.775E-05 0.000E+00

     total cpu time spent up to now is       13.5 secs

     total energy              =     -34.18357362 Ry
     Harris-Foulkes estimate   =     -34.18357376 Ry
     estimated scf accuracy    <       0.00000101 Ry

     iteration #  4     ecut=    90.00 Ry     beta=0.70
     Davidson diagonalization with overlap
     ethr =  1.27E-08,  avg # of iterations =  2.0

     negative rho (up, down):  3.268E-07 0.000E+00

     total cpu time spent up to now is       13.7 secs

     total energy              =     -34.18357418 Ry
     Harris-Foulkes estimate   =     -34.18357393 Ry
     estimated scf accuracy    <       0.00000008 Ry

     iteration #  5     ecut=    90.00 Ry     beta=0.70
     Davidson diagonalization with overlap
     ethr =  1.02E-09,  avg # of iterations =  2.0

     total cpu time spent up to now is       13.8 secs

     End of self-consistent calculation

          k = 0.0000 0.0000 0.0000 (115313 PWs)   bands (ev):

   -25.0929 -12.7650  -9.1596  -7.0771  -0.9468   0.4263   0.7506   1.1177

     the Fermi energy is    -5.0948 ev

!    total energy              =     -34.18357415 Ry
     Harris-Foulkes estimate   =     -34.18357422 Ry
     estimated scf accuracy    <          8.3E-10 Ry

     The total energy is the sum of the following terms:

     one-electron contribution =     -63.65798445 Ry
     hartree contribution      =      33.25086955 Ry
     xc contribution           =      -8.35523270 Ry
     ewald contribution        =       4.57877344 Ry
     smearing contrib. (-TS)   =       0.00000000 Ry

     convergence has been achieved in   5 iterations

     Forces acting on atoms (Ry/au):

     atom    1 type  1   force =    -0.00608485   -0.00404433   -0.00158475
     atom    2 type  1   force =     0.00215313   -0.00599364    0.00125577
     atom    3 type  2   force =     0.00393172    0.01003796    0.00032897

     Total force =     0.014641     Total SCF correction =     0.000423

     number of scf cycles    =   6
     number of bfgs steps    =   5

     energy   old            =     -34.1835720818 Ry
     energy   new            =     -34.1835741496 Ry

     CASE: energy  _new < energy  _old

     new trust radius        =       0.0050494114 bohr
     new conv_thr            =            1.0E-10 Ry


ATOMIC_POSITIONS (angstrom)
H        0.872501892   0.462979633   0.308322857
H        0.275083099  -0.953253730   0.196576512
O        0.047182009  -0.008400904   0.065211631



     Writing output data file pwscf.save
     Check: negative starting charge=   -0.015985
     NEW-OLD atomic charge density approx. for the potential
     Check: negative starting charge=   -0.015991

     negative rho (up, down):  7.300E-04 0.000E+00

     total cpu time spent up to now is       14.4 secs

     per-process dynamical memory:    45.8 Mb

     Self-consistent Calculation

     iteration #  1     ecut=    90.00 Ry     beta=0.70
     Davidson diagonalization with overlap
     ethr =  1.00E-06,  avg # of iterations =  4.0

     negative rho (up, down):  1.770E-04 0.000E+00

     total cpu time spent up to now is       14.7 secs

     total energy              =     -34.18361567 Ry
     Harris-Foulkes estimate   =     -34.18360457 Ry
     estimated scf accuracy    <       0.00000893 Ry

     iteration #  2     ecut=    90.00 Ry     beta=0.70
     Davidson diagonalization with overlap
     ethr =  1.12E-07,  avg # of iterations =  3.0

     negative rho (up, down):  4.948E-05 0.000E+00

     total cpu time spent up to now is       14.9 secs

     total energy              =     -34.18361989 Ry
     Harris-Foulkes estimate   =     -34.18361814 Ry
     estimated scf accuracy    <       0.00000053 Ry

     iteration #  3     ecut=    90.00 Ry     beta=0.70
     Davidson diagonalization with overlap
     ethr =  6.65E-09,  avg # of iterations =  2.0

     negative rho (up, down):  2.387E-06 0.000E+00

     total cpu time spent up to now is       15.1 secs

     total energy              =     -34.18362112 Ry
     Harris-Foulkes estimate   =     -34.18362005 Ry
     estimated scf accuracy    <       0.00000004 Ry

     iteration #  4     ecut=    90.00 Ry     beta=0.70
     Davidson diagonalization with overlap
     ethr =  5.33E-10,  avg # of iterations =  3.0

     negative rho (up, down):  3.570E-08 0.000E+00

     total cpu time spent up to now is       15.3 secs

     total energy              =     -34.18362124 Ry
     Harris-Foulkes estimate   =     -34.18362116 Ry
     estimated scf accuracy    <       0.00000002 Ry

     iteration #  5     ecut=    90.00 Ry     beta=0.70
     Davidson diagonalization with overlap
     ethr =  2.23E-10,  avg # of iterations =  2.0

     total cpu time spent up to now is       15.6 secs

     total energy              =     -34.18362128 Ry
     Harris-Foulkes estimate   =     -34.18362125 Ry
     estimated scf accuracy    <          4.3E-10 Ry

     iteration #  6     ecut=    90.00 Ry     beta=0.70
     Davidson diagonalization with overlap
     ethr =  5.37E-12,  avg # of iterations =  2.0

     total cpu time spent up to now is       15.8 secs

     End of self-consistent calculation

          k = 0.0000 0.0000 0.0000 (115313 PWs)   bands (ev):

   -25.0975 -12.7552  -9.1708  -7.0783  -0.9469   0.4258   0.7511   1.1173

     the Fermi energy is    -5.0963 ev

!    total energy              =     -34.18362129 Ry
     Harris-Foulkes estimate   =     -34.18362128 Ry
     estimated scf accuracy    <          9.8E-12 Ry

     The total energy is the sum of the following terms:

     one-electron contribution =     -63.66110227 Ry
     hartree contribution      =      33.25202961 Ry
     xc contribution           =      -8.35540685 Ry
     ewald contribution        =       4.58085822 Ry
     smearing contrib. (-TS)   =       0.00000000 Ry

     convergence has been achieved in   6 iterations

     Forces acting on atoms (Ry/au):

     atom    1 type  1   force =    -0.00030531    0.00010863    0.00006962
     atom    2 type  1   force =     0.00005379    0.00023136    0.00019513
     atom    3 type  2   force =     0.00025152   -0.00034000   -0.00026475

     Total force =     0.000673     Total SCF correction =     0.000008

     bfgs converged in   7 scf cycles and   6 bfgs steps
     (criteria: energy <  1.0E-04, force <  1.0E-03)

     End of BFGS Geometry Optimization

     Final energy   =     -34.1836212926 Ry
Begin final coordinates

ATOMIC_POSITIONS (angstrom)
H        0.872501892   0.462979633   0.308322857
H        0.275083099  -0.953253730   0.196576512
O        0.047182009  -0.008400904   0.065211631
End final coordinates



     Writing output data file pwscf.save
 
     init_run     :      0.59s CPU      0.67s WALL (       1 calls)
     electrons    :     10.68s CPU     12.41s WALL (       7 calls)
     update_pot   :      1.48s CPU      1.74s WALL (       6 calls)
     forces       :      0.48s CPU      0.48s WALL (       7 calls)

     Called by init_run:
     wfcinit      :      0.03s CPU      0.04s WALL (       1 calls)
     potinit      :      0.11s CPU      0.12s WALL (       1 calls)

     Called by electrons:
     c_bands      :      5.53s CPU      5.77s WALL (      43 calls)
     sum_band     :      0.89s CPU      0.92s WALL (      43 calls)
     v_of_rho     :      2.55s CPU      2.61s WALL (      50 calls)
     mix_rho      :      1.03s CPU      1.82s WALL (      43 calls)

     Called by c_bands:
     init_us_2    :      0.02s CPU      0.03s WALL (      87 calls)
     cegterg      :      5.51s CPU      5.72s WALL (      43 calls)

     Called by sum_band:

     Called by *egterg:
     h_psi        :      4.69s CPU      4.89s WALL (     359 calls)
     g_psi        :      0.04s CPU      0.04s WALL (     315 calls)
     cdiaghg      :      0.09s CPU      0.10s WALL (     352 calls)

     Called by h_psi:
     h_psi:pot    :      4.65s CPU      4.85s WALL (     359 calls)
     h_psi:calbec :      0.18s CPU      0.29s WALL (     359 calls)
     vloc_psi     :      4.44s CPU      4.53s WALL (     359 calls)
     add_vuspsi   :      0.03s CPU      0.03s WALL (     359 calls)

     General routines
     calbec       :      0.18s CPU      0.29s WALL (     387 calls)
     fft          :      1.79s CPU      1.85s WALL (     563 calls)
     fftw         :      4.35s CPU      4.45s WALL (    3342 calls)
     davcio       :      0.10s CPU      0.72s WALL (     292 calls)
 
     Parallel routines
     fft_scatter  :      2.19s CPU      2.32s WALL (    3905 calls)
 
     PWSCF        :    13.75s CPU        16.40s WALL

 
   This run was terminated on:   2:50:34  28Jul2018            

=------------------------------------------------------------------------------=
   JOB DONE.
=------------------------------------------------------------------------------=
