
     Program PWSCF v.6.0 (svn rev. 13079) starts on 28Jul2018 at  2:22: 9 

     This program is part of the open-source Quantum ESPRESSO suite
     for quantum simulation of materials; please cite
         "P. Giannozzi et al., J. Phys.:Condens. Matter 21 395502 (2009);
          URL http://www.quantum-espresso.org", 
     in publications or presentations arising from this work. More details at
     http://www.quantum-espresso.org/quote

     Parallel version (MPI), running on    28 processors
     R & G space division:  proc/nbgrp/npool/nimage =      28
     Reading input from ../QMCmins/relax-23.in

     Current dimensions of program PWSCF are:
     Max number of different atomic species (ntypx) = 10
     Max number of k-points (npk) =  40000
     Max angular momentum in pseudopotentials (lmaxx) =  3
     Message from routine iosys:
     pot_extrapolation='second-order' not available, using 'atomic'
     Message from routine iosys:
     wfc_extrapolation='second-order' not available, using 'atomic'

     Subspace diagonalization in iterative solution of the eigenvalue problem:
     a serial algorithm will be used

 
     Parallelization info
     --------------------
     sticks:   dense  smooth     PW     G-vecs:    dense   smooth      PW
     Min         408     408    102                32936    32936    4116
     Max         409     409    103                32943    32943    4121
     Sum       11449   11449   2869               922329   922329  115313
 


     bravais-lattice index     =            1
     lattice parameter (alat)  =      20.0000  a.u.
     unit-cell volume          =    8000.0000 (a.u.)^3
     number of atoms/cell      =            3
     number of atomic types    =            2
     number of electrons       =         8.00
     number of Kohn-Sham states=            8
     kinetic-energy cutoff     =      90.0000  Ry
     charge density cutoff     =     360.0000  Ry
     convergence threshold     =      1.0E-08
     mixing beta               =       0.7000
     number of iterations used =            8  plain     mixing
     Exchange-correlation      = BLYP ( 1  3  1  3 0 0)
     nstep                     =           50


     celldm(1)=  20.000000  celldm(2)=   0.000000  celldm(3)=   0.000000
     celldm(4)=   0.000000  celldm(5)=   0.000000  celldm(6)=   0.000000

     crystal axes: (cart. coord. in units of alat)
               a(1) = (   1.000000   0.000000   0.000000 )  
               a(2) = (   0.000000   1.000000   0.000000 )  
               a(3) = (   0.000000   0.000000   1.000000 )  

     reciprocal axes: (cart. coord. in units 2 pi/alat)
               b(1) = (  1.000000  0.000000  0.000000 )  
               b(2) = (  0.000000  1.000000  0.000000 )  
               b(3) = (  0.000000  0.000000  1.000000 )  


     PseudoPot. # 1 for  H read from file:
     ../H.blyp-hgh.UPF
     MD5 check sum: c576e69559cde411e611be972c763230
     Pseudo is Norm-conserving, Zval =  1.0
     Generated in analytical, separable form
     Using radial grid of  929 points,  0 beta functions with: 

     PseudoPot. # 2 for  O read from file:
     ../O.blyp-hgh.UPF
     MD5 check sum: d0b7156309aa9befef28faac7bc56342
     Pseudo is Norm-conserving, Zval =  6.0
     Generated in analytical, separable form
     Using radial grid of 1095 points,  1 beta functions with: 
                l(1) =   0

     atomic species   valence    mass     pseudopotential
        H              1.00     1.01000      H( 1.00)
        O              6.00    16.00000      O( 1.00)

     No symmetry found



   Cartesian axes

     site n.     atom                  positions (alat units)
         1           H   tau(   1) = (  -0.0674602  -0.0596776  -0.0003471  )
         2           H   tau(   2) = (  -0.0190579   0.0845274  -0.0153465  )
         3           O   tau(   3) = (   0.0054615  -0.0015687   0.0065687  )

     number of k points=     1  Marzari-Vanderbilt smearing, width (Ry)=  0.0250
                       cart. coord. in units 2pi/alat
        k(    1) = (   0.0000000   0.0000000   0.0000000), wk =   2.0000000

     Dense  grid:   922329 G-vectors     FFT dimensions: ( 125, 125, 125)

     Estimated max dynamical RAM per process >      31.67Mb

     Estimated total allocated dynamical RAM >     886.64Mb

     Initial potential from superposition of free atoms
     Check: negative starting charge=   -0.015939

     starting charge    7.99998, renormalised to    8.00000

     negative rho (up, down):  1.594E-02 0.000E+00
     Starting wfc are    6 randomized atomic wfcs +    2 random wfc

     total cpu time spent up to now is        0.7 secs

     per-process dynamical memory:    33.5 Mb

     Self-consistent Calculation

     iteration #  1     ecut=    90.00 Ry     beta=0.70
     Davidson diagonalization with overlap
     ethr =  1.00E-02,  avg # of iterations =  8.0

     negative rho (up, down):  4.631E-03 0.000E+00

     total cpu time spent up to now is        1.0 secs

     total energy              =     -34.02723857 Ry
     Harris-Foulkes estimate   =     -34.27019340 Ry
     estimated scf accuracy    <       0.36481241 Ry

     iteration #  2     ecut=    90.00 Ry     beta=0.70
     Davidson diagonalization with overlap
     ethr =  4.56E-03,  avg # of iterations =  2.0

     negative rho (up, down):  2.744E-03 0.000E+00

     total cpu time spent up to now is        1.2 secs

     total energy              =     -34.08655062 Ry
     Harris-Foulkes estimate   =     -34.27947722 Ry
     estimated scf accuracy    <       0.41664857 Ry

     iteration #  3     ecut=    90.00 Ry     beta=0.70
     Davidson diagonalization with overlap
     ethr =  4.56E-03,  avg # of iterations =  2.0

     negative rho (up, down):  2.188E-04 0.000E+00

     total cpu time spent up to now is        1.4 secs

     total energy              =     -34.17918607 Ry
     Harris-Foulkes estimate   =     -34.18010904 Ry
     estimated scf accuracy    <       0.00594458 Ry

     iteration #  4     ecut=    90.00 Ry     beta=0.70
     Davidson diagonalization with overlap
     ethr =  7.43E-05,  avg # of iterations =  7.0

     negative rho (up, down):  1.480E-06 0.000E+00

     total cpu time spent up to now is        1.6 secs

     total energy              =     -34.18089316 Ry
     Harris-Foulkes estimate   =     -34.18104771 Ry
     estimated scf accuracy    <       0.00040389 Ry

     iteration #  5     ecut=    90.00 Ry     beta=0.70
     Davidson diagonalization with overlap
     ethr =  5.05E-06,  avg # of iterations =  9.0

     negative rho (up, down):  3.447E-06 0.000E+00

     total cpu time spent up to now is        1.9 secs

     total energy              =     -34.18091664 Ry
     Harris-Foulkes estimate   =     -34.18092305 Ry
     estimated scf accuracy    <       0.00002771 Ry

     iteration #  6     ecut=    90.00 Ry     beta=0.70
     Davidson diagonalization with overlap
     ethr =  3.46E-07,  avg # of iterations =  2.0

     negative rho (up, down):  1.387E-07 0.000E+00

     total cpu time spent up to now is        2.1 secs

     total energy              =     -34.18091921 Ry
     Harris-Foulkes estimate   =     -34.18091957 Ry
     estimated scf accuracy    <       0.00000025 Ry

     iteration #  7     ecut=    90.00 Ry     beta=0.70
     Davidson diagonalization with overlap
     ethr =  3.19E-09,  avg # of iterations =  3.0

     total cpu time spent up to now is        2.4 secs

     total energy              =     -34.18091894 Ry
     Harris-Foulkes estimate   =     -34.18091931 Ry
     estimated scf accuracy    <       0.00000004 Ry

     iteration #  8     ecut=    90.00 Ry     beta=0.70
     Davidson diagonalization with overlap
     ethr =  4.82E-10,  avg # of iterations =  2.0

     total cpu time spent up to now is        2.5 secs

     End of self-consistent calculation

          k = 0.0000 0.0000 0.0000 (115313 PWs)   bands (ev):

   -24.9603 -13.0708  -8.8124  -7.0393  -0.9451   0.4280   0.7344   1.1222

     the Fermi energy is    -5.0583 ev

!    total energy              =     -34.18091884 Ry
     Harris-Foulkes estimate   =     -34.18091894 Ry
     estimated scf accuracy    <          5.8E-09 Ry

     The total energy is the sum of the following terms:

     one-electron contribution =     -63.58743066 Ry
     hartree contribution      =      33.22870707 Ry
     xc contribution           =      -8.35114561 Ry
     ewald contribution        =       4.52895036 Ry
     smearing contrib. (-TS)   =       0.00000000 Ry

     convergence has been achieved in   8 iterations

     Forces acting on atoms (Ry/au):

     atom    1 type  1   force =     0.00659670    0.03051146   -0.00401426
     atom    2 type  1   force =    -0.01986436   -0.00242916   -0.00429905
     atom    3 type  2   force =     0.01326767   -0.02808230    0.00831331

     Total force =     0.049430     Total SCF correction =     0.000119

     BFGS Geometry Optimization

     number of scf cycles    =   1
     number of bfgs steps    =   0

     energy   new            =     -34.1809188353 Ry

     new trust radius        =       0.0321521032 bohr
     new conv_thr            =       0.0000000100 Ry


ATOMIC_POSITIONS (angstrom)
H       -0.710477179  -0.615455030  -0.005798257
H       -0.212211767   0.893313544  -0.164694958
O        0.064822946  -0.031462514   0.073919215



     Writing output data file pwscf.save
     Check: negative starting charge=   -0.015939
     NEW-OLD atomic charge density approx. for the potential
     Check: negative starting charge=   -0.015956

     negative rho (up, down):  5.691E-03 0.000E+00

     total cpu time spent up to now is        3.1 secs

     per-process dynamical memory:    45.8 Mb

     Self-consistent Calculation

     iteration #  1     ecut=    90.00 Ry     beta=0.70
     Davidson diagonalization with overlap
     c_bands:  1 eigenvalues not converged
     ethr =  1.00E-06,  avg # of iterations = 20.0

     negative rho (up, down):  1.474E-03 0.000E+00

     total cpu time spent up to now is        3.7 secs

     total energy              =     -34.17761123 Ry
     Harris-Foulkes estimate   =     -34.17205790 Ry
     estimated scf accuracy    <       0.00029692 Ry

     iteration #  2     ecut=    90.00 Ry     beta=0.70
     Davidson diagonalization with overlap
     ethr =  3.71E-06,  avg # of iterations = 14.0

     negative rho (up, down):  5.672E-04 0.000E+00

     total cpu time spent up to now is        4.0 secs

     total energy              =     -34.17792563 Ry
     Harris-Foulkes estimate   =     -34.17770243 Ry
     estimated scf accuracy    <       0.00004040 Ry

     iteration #  3     ecut=    90.00 Ry     beta=0.70
     Davidson diagonalization with overlap
     ethr =  5.05E-07,  avg # of iterations = 14.0

     negative rho (up, down):  1.960E-04 0.000E+00

     total cpu time spent up to now is        4.3 secs

     total energy              =     -34.18202017 Ry
     Harris-Foulkes estimate   =     -34.18201990 Ry
     estimated scf accuracy    <       0.00001270 Ry

     iteration #  4     ecut=    90.00 Ry     beta=0.70
     Davidson diagonalization with overlap
     ethr =  1.59E-07,  avg # of iterations =  3.0

     negative rho (up, down):  2.001E-06 0.000E+00

     total cpu time spent up to now is        4.5 secs

     total energy              =     -34.18202751 Ry
     Harris-Foulkes estimate   =     -34.18202379 Ry
     estimated scf accuracy    <       0.00000092 Ry

     iteration #  5     ecut=    90.00 Ry     beta=0.70
     Davidson diagonalization with overlap
     ethr =  1.14E-08,  avg # of iterations =  4.0

     total cpu time spent up to now is        4.7 secs

     End of self-consistent calculation

          k = 0.0000 0.0000 0.0000 (115313 PWs)   bands (ev):

   -24.9817 -12.9488  -8.9252  -7.0476  -0.9518   0.4244   0.7362   1.1493

     the Fermi energy is    -5.0433 ev

!    total energy              =     -34.18202815 Ry
     Harris-Foulkes estimate   =     -34.18202777 Ry
     estimated scf accuracy    <          5.8E-09 Ry

     The total energy is the sum of the following terms:

     one-electron contribution =     -63.56174202 Ry
     hartree contribution      =      33.21255608 Ry
     xc contribution           =      -8.34883837 Ry
     ewald contribution        =       4.51599616 Ry
     smearing contrib. (-TS)   =       0.00000000 Ry

     convergence has been achieved in   5 iterations

     Forces acting on atoms (Ry/au):

     atom    1 type  1   force =    -0.01498870    0.00595816   -0.00485911
     atom    2 type  1   force =    -0.00440225   -0.03216038    0.00482994
     atom    3 type  2   force =     0.01939095    0.02620223    0.00002917

     Total force =     0.049227     Total SCF correction =     0.000709

     number of scf cycles    =   2
     number of bfgs steps    =   1

     energy   old            =     -34.1809188353 Ry
     energy   new            =     -34.1820281482 Ry

     CASE: energy  _new < energy  _old

     new trust radius        =       0.0373893177 bohr
     new conv_thr            =       0.0000000011 Ry


ATOMIC_POSITIONS (angstrom)
H       -0.714859774  -0.599328866  -0.009890091
H       -0.222963589   0.876710907  -0.164226208
O        0.079957363  -0.030986041   0.077542300



     Writing output data file pwscf.save
     Check: negative starting charge=   -0.015956
     NEW-OLD atomic charge density approx. for the potential
     Check: negative starting charge=   -0.015992

     negative rho (up, down):  5.125E-03 0.000E+00

     total cpu time spent up to now is        5.2 secs

     per-process dynamical memory:    45.8 Mb

     Self-consistent Calculation

     iteration #  1     ecut=    90.00 Ry     beta=0.70
     Davidson diagonalization with overlap
     c_bands:  1 eigenvalues not converged
     ethr =  1.00E-06,  avg # of iterations = 20.0

     negative rho (up, down):  1.324E-03 0.000E+00

     total cpu time spent up to now is        5.6 secs

     total energy              =     -34.17907956 Ry
     Harris-Foulkes estimate   =     -34.17415269 Ry
     estimated scf accuracy    <       0.00015969 Ry

     iteration #  2     ecut=    90.00 Ry     beta=0.70
     Davidson diagonalization with overlap
     ethr =  2.00E-06,  avg # of iterations =  9.0

     negative rho (up, down):  4.036E-04 0.000E+00

     total cpu time spent up to now is        5.9 secs

     total energy              =     -34.18337280 Ry
     Harris-Foulkes estimate   =     -34.18319606 Ry
     estimated scf accuracy    <       0.00002318 Ry

     iteration #  3     ecut=    90.00 Ry     beta=0.70
     Davidson diagonalization with overlap
     c_bands:  1 eigenvalues not converged
     ethr =  2.90E-07,  avg # of iterations = 20.0

     negative rho (up, down):  7.934E-05 0.000E+00

     total cpu time spent up to now is        6.2 secs

     total energy              =     -34.18338365 Ry
     Harris-Foulkes estimate   =     -34.18338450 Ry
     estimated scf accuracy    <       0.00001311 Ry

     iteration #  4     ecut=    90.00 Ry     beta=0.70
     Davidson diagonalization with overlap
     ethr =  1.64E-07,  avg # of iterations =  4.0

     negative rho (up, down):  7.641E-07 0.000E+00

     total cpu time spent up to now is        6.5 secs

     total energy              =     -34.18338895 Ry
     Harris-Foulkes estimate   =     -34.18338685 Ry
     estimated scf accuracy    <       0.00000033 Ry

     iteration #  5     ecut=    90.00 Ry     beta=0.70
     Davidson diagonalization with overlap
     ethr =  4.16E-09,  avg # of iterations =  3.0

     total cpu time spent up to now is        6.7 secs

     total energy              =     -34.18338928 Ry
     Harris-Foulkes estimate   =     -34.18338907 Ry
     estimated scf accuracy    <          5.0E-09 Ry

     iteration #  6     ecut=    90.00 Ry     beta=0.70
     Davidson diagonalization with overlap
     ethr =  6.25E-11,  avg # of iterations =  2.0

     total cpu time spent up to now is        6.9 secs

     End of self-consistent calculation

          k = 0.0000 0.0000 0.0000 (115313 PWs)   bands (ev):

   -25.0362 -12.8038  -9.0844  -7.0640  -0.9537   0.4242   0.7443   1.1200

     the Fermi energy is    -5.0789 ev

!    total energy              =     -34.18338934 Ry
     Harris-Foulkes estimate   =     -34.18338928 Ry
     estimated scf accuracy    <          3.3E-10 Ry

     The total energy is the sum of the following terms:

     one-electron contribution =     -63.58118609 Ry
     hartree contribution      =      33.21652118 Ry
     xc contribution           =      -8.34960640 Ry
     ewald contribution        =       4.53088197 Ry
     smearing contrib. (-TS)   =       0.00000000 Ry

     convergence has been achieved in   6 iterations

     Forces acting on atoms (Ry/au):

     atom    1 type  1   force =    -0.00112641    0.00534601   -0.00182833
     atom    2 type  1   force =    -0.00051045   -0.01389315    0.00197841
     atom    3 type  2   force =     0.00163686    0.00854714   -0.00015007

     Total force =     0.017497     Total SCF correction =     0.000056

     number of scf cycles    =   3
     number of bfgs steps    =   2

     energy   old            =     -34.1820281482 Ry
     energy   new            =     -34.1833893405 Ry

     CASE: energy  _new < energy  _old

     new trust radius        =       0.0260980048 bohr
     new conv_thr            =       0.0000000014 Ry


ATOMIC_POSITIONS (angstrom)
H       -0.714482789  -0.587111518  -0.012508138
H       -0.228551034   0.864096410  -0.163606537
O        0.085167823  -0.030588892   0.079540675



     Writing output data file pwscf.save
     Check: negative starting charge=   -0.015992
     NEW-OLD atomic charge density approx. for the potential
     Check: negative starting charge=   -0.016006

     negative rho (up, down):  1.700E-03 0.000E+00

     total cpu time spent up to now is        7.6 secs

     per-process dynamical memory:    45.8 Mb

     Self-consistent Calculation

     iteration #  1     ecut=    90.00 Ry     beta=0.70
     Davidson diagonalization with overlap
     ethr =  1.00E-06,  avg # of iterations = 18.0

     negative rho (up, down):  4.292E-04 0.000E+00

     total cpu time spent up to now is        8.0 secs

     total energy              =     -34.17948162 Ry
     Harris-Foulkes estimate   =     -34.17909964 Ry
     estimated scf accuracy    <       0.00008055 Ry

     iteration #  2     ecut=    90.00 Ry     beta=0.70
     Davidson diagonalization with overlap
     c_bands:  1 eigenvalues not converged
     ethr =  1.01E-06,  avg # of iterations = 20.0

     negative rho (up, down):  2.172E-04 0.000E+00

     total cpu time spent up to now is        8.3 secs

     total energy              =     -34.18357331 Ry
     Harris-Foulkes estimate   =     -34.18358968 Ry
     estimated scf accuracy    <       0.00003825 Ry

     iteration #  3     ecut=    90.00 Ry     beta=0.70
     Davidson diagonalization with overlap
     ethr =  4.78E-07,  avg # of iterations =  4.0

     negative rho (up, down):  1.570E-05 0.000E+00

     total cpu time spent up to now is        8.5 secs

     total energy              =     -34.18358794 Ry
     Harris-Foulkes estimate   =     -34.18358525 Ry
     estimated scf accuracy    <       0.00000469 Ry

     iteration #  4     ecut=    90.00 Ry     beta=0.70
     Davidson diagonalization with overlap
     ethr =  5.87E-08,  avg # of iterations = 11.0

     negative rho (up, down):  2.221E-07 0.000E+00

     total cpu time spent up to now is        8.8 secs

     total energy              =     -34.18358947 Ry
     Harris-Foulkes estimate   =     -34.18358889 Ry
     estimated scf accuracy    <       0.00000004 Ry

     iteration #  5     ecut=    90.00 Ry     beta=0.70
     Davidson diagonalization with overlap
     ethr =  4.59E-10,  avg # of iterations =  3.0

     total cpu time spent up to now is        9.0 secs

     total energy              =     -34.18358961 Ry
     Harris-Foulkes estimate   =     -34.18358950 Ry
     estimated scf accuracy    <          2.9E-09 Ry

     iteration #  6     ecut=    90.00 Ry     beta=0.70
     Davidson diagonalization with overlap
     ethr =  3.59E-11,  avg # of iterations =  2.0

     total cpu time spent up to now is        9.1 secs

     End of self-consistent calculation

          k = 0.0000 0.0000 0.0000 (115313 PWs)   bands (ev):

   -25.1219 -12.7751  -9.1743  -7.0825  -0.9406   0.4278   0.7604   1.1189

     the Fermi energy is    -5.1011 ev

!    total energy              =     -34.18358969 Ry
     Harris-Foulkes estimate   =     -34.18358962 Ry
     estimated scf accuracy    <          1.1E-10 Ry

     The total energy is the sum of the following terms:

     one-electron contribution =     -63.71232703 Ry
     hartree contribution      =      33.27637593 Ry
     xc contribution           =      -8.35940455 Ry
     ewald contribution        =       4.61176596 Ry
     smearing contrib. (-TS)   =       0.00000000 Ry

     convergence has been achieved in   6 iterations

     Forces acting on atoms (Ry/au):

     atom    1 type  1   force =    -0.00317052   -0.00264820   -0.00093086
     atom    2 type  1   force =    -0.00079229    0.00353211   -0.00140697
     atom    3 type  2   force =     0.00396281   -0.00088391    0.00233784

     Total force =     0.007414     Total SCF correction =     0.000047

     number of scf cycles    =   4
     number of bfgs steps    =   3

     energy   old            =     -34.1833893405 Ry
     energy   new            =     -34.1835896892 Ry

     CASE: energy  _new < energy  _old

     new trust radius        =       0.0035197560 bohr
     new conv_thr            =       0.0000000002 Ry


ATOMIC_POSITIONS (angstrom)
H       -0.715783107  -0.588271067  -0.012923212
H       -0.228793359   0.865524351  -0.164200127
O        0.086710466  -0.030857283   0.080549339



     Writing output data file pwscf.save
     Check: negative starting charge=   -0.016006
     NEW-OLD atomic charge density approx. for the potential
     Check: negative starting charge=   -0.016006

     negative rho (up, down):  4.830E-04 0.000E+00

     total cpu time spent up to now is        9.8 secs

     per-process dynamical memory:    45.8 Mb

     Self-consistent Calculation

     iteration #  1     ecut=    90.00 Ry     beta=0.70
     Davidson diagonalization with overlap
     ethr =  1.00E-06,  avg # of iterations =  4.0

     negative rho (up, down):  1.127E-04 0.000E+00

     total cpu time spent up to now is       10.0 secs

     total energy              =     -34.18359536 Ry
     Harris-Foulkes estimate   =     -34.18360527 Ry
     estimated scf accuracy    <       0.00001913 Ry

     iteration #  2     ecut=    90.00 Ry     beta=0.70
     Davidson diagonalization with overlap
     ethr =  2.39E-07,  avg # of iterations =  3.0

     negative rho (up, down):  6.556E-05 0.000E+00

     total cpu time spent up to now is       10.2 secs

     total energy              =     -34.18360024 Ry
     Harris-Foulkes estimate   =     -34.18361004 Ry
     estimated scf accuracy    <       0.00002180 Ry

     iteration #  3     ecut=    90.00 Ry     beta=0.70
     Davidson diagonalization with overlap
     ethr =  2.39E-07,  avg # of iterations =  2.0

     negative rho (up, down):  4.547E-06 0.000E+00

     total cpu time spent up to now is       10.4 secs

     total energy              =     -34.18360591 Ry
     Harris-Foulkes estimate   =     -34.18360458 Ry
     estimated scf accuracy    <       0.00000008 Ry

     iteration #  4     ecut=    90.00 Ry     beta=0.70
     Davidson diagonalization with overlap
     ethr =  1.02E-09,  avg # of iterations =  3.0

     negative rho (up, down):  2.496E-07 0.000E+00

     total cpu time spent up to now is       10.6 secs

     total energy              =     -34.18360608 Ry
     Harris-Foulkes estimate   =     -34.18360598 Ry
     estimated scf accuracy    <          5.5E-09 Ry

     iteration #  5     ecut=    90.00 Ry     beta=0.70
     Davidson diagonalization with overlap
     ethr =  6.82E-11,  avg # of iterations =  2.0

     total cpu time spent up to now is       10.8 secs

     total energy              =     -34.18360620 Ry
     Harris-Foulkes estimate   =     -34.18360608 Ry
     estimated scf accuracy    <          2.2E-10 Ry

     iteration #  6     ecut=    90.00 Ry     beta=0.70
     Davidson diagonalization with overlap
     ethr =  2.76E-12,  avg # of iterations =  2.0

     total cpu time spent up to now is       10.9 secs

     End of self-consistent calculation

          k = 0.0000 0.0000 0.0000 (115313 PWs)   bands (ev):

   -25.0948 -12.7433  -9.1771  -7.0780  -0.9490   0.4251   0.7546   1.1185

     the Fermi energy is    -5.0947 ev

!    total energy              =     -34.18360623 Ry
     Harris-Foulkes estimate   =     -34.18360620 Ry
     estimated scf accuracy    <          5.2E-12 Ry

     The total energy is the sum of the following terms:

     one-electron contribution =     -63.64993276 Ry
     hartree contribution      =      33.24646006 Ry
     xc contribution           =      -8.35451377 Ry
     ewald contribution        =       4.57438024 Ry
     smearing contrib. (-TS)   =       0.00000000 Ry

     convergence has been achieved in   6 iterations

     Forces acting on atoms (Ry/au):

     atom    1 type  1   force =     0.00134734    0.00036323   -0.00035724
     atom    2 type  1   force =     0.00075847   -0.00068507   -0.00021845
     atom    3 type  2   force =    -0.00210580    0.00032184    0.00057569

     Total force =     0.002835     Total SCF correction =     0.000007

     number of scf cycles    =   5
     number of bfgs steps    =   4

     energy   old            =     -34.1835896892 Ry
     energy   new            =     -34.1836062261 Ry

     CASE: energy  _new < energy  _old

     new trust radius        =       0.0019287435 bohr
     new conv_thr            =            1.0E-10 Ry


ATOMIC_POSITIONS (angstrom)
H       -0.715383721  -0.588752518  -0.013005206
H       -0.228227164   0.865757827  -0.164336953
O        0.085744885  -0.030609309   0.080768159



     Writing output data file pwscf.save
     Check: negative starting charge=   -0.016006
     NEW-OLD atomic charge density approx. for the potential
     Check: negative starting charge=   -0.016005

     negative rho (up, down):  2.363E-04 0.000E+00

     total cpu time spent up to now is       11.5 secs

     per-process dynamical memory:    45.8 Mb

     Self-consistent Calculation

     iteration #  1     ecut=    90.00 Ry     beta=0.70
     Davidson diagonalization with overlap
     ethr =  1.00E-06,  avg # of iterations =  3.0

     Threshold (ethr) on eigenvalues was too large:
     Diagonalizing with lowered threshold

     Davidson diagonalization with overlap
     ethr =  1.81E-08,  avg # of iterations =  2.0

     negative rho (up, down):  5.007E-05 0.000E+00

     total cpu time spent up to now is       12.0 secs

     total energy              =     -34.18360984 Ry
     Harris-Foulkes estimate   =     -34.18360867 Ry
     estimated scf accuracy    <       0.00000125 Ry

     iteration #  2     ecut=    90.00 Ry     beta=0.70
     Davidson diagonalization with overlap
     ethr =  1.56E-08,  avg # of iterations =  2.0

     negative rho (up, down):  2.522E-05 0.000E+00

     total cpu time spent up to now is       12.4 secs

     total energy              =     -34.18360998 Ry
     Harris-Foulkes estimate   =     -34.18361062 Ry
     estimated scf accuracy    <       0.00000102 Ry

     iteration #  3     ecut=    90.00 Ry     beta=0.70
     Davidson diagonalization with overlap
     ethr =  1.27E-08,  avg # of iterations =  2.0

     negative rho (up, down):  4.581E-07 0.000E+00

     total cpu time spent up to now is       12.6 secs

     total energy              =     -34.18360982 Ry
     Harris-Foulkes estimate   =     -34.18361023 Ry
     estimated scf accuracy    <       0.00000002 Ry

     iteration #  4     ecut=    90.00 Ry     beta=0.70
     Davidson diagonalization with overlap
     ethr =  3.08E-10,  avg # of iterations =  2.0

     total cpu time spent up to now is       12.8 secs

     total energy              =     -34.18360983 Ry
     Harris-Foulkes estimate   =     -34.18360983 Ry
     estimated scf accuracy    <          6.2E-10 Ry

     iteration #  5     ecut=    90.00 Ry     beta=0.70
     Davidson diagonalization with overlap
     ethr =  7.69E-12,  avg # of iterations =  3.0

     total cpu time spent up to now is       12.9 secs

     End of self-consistent calculation

          k = 0.0000 0.0000 0.0000 (115313 PWs)   bands (ev):

   -25.0980 -12.7553  -9.1705  -7.0783  -0.9471   0.4258   0.7555   1.1186

     the Fermi energy is    -5.0954 ev

!    total energy              =     -34.18360982 Ry
     Harris-Foulkes estimate   =     -34.18360983 Ry
     estimated scf accuracy    <          4.0E-11 Ry

     The total energy is the sum of the following terms:

     one-electron contribution =     -63.66159826 Ry
     hartree contribution      =      33.25223998 Ry
     xc contribution           =      -8.35546172 Ry
     ewald contribution        =       4.58121018 Ry
     smearing contrib. (-TS)   =       0.00000000 Ry

     convergence has been achieved in   5 iterations

     Forces acting on atoms (Ry/au):

     atom    1 type  1   force =     0.00019416    0.00000310   -0.00056750
     atom    2 type  1   force =     0.00017185   -0.00028807   -0.00043084
     atom    3 type  2   force =    -0.00036601    0.00028497    0.00099834

     Total force =     0.001367     Total SCF correction =     0.000116

     bfgs converged in   6 scf cycles and   5 bfgs steps
     (criteria: energy <  1.0E-04, force <  1.0E-03)

     End of BFGS Geometry Optimization

     Final energy   =     -34.1836098207 Ry
Begin final coordinates

ATOMIC_POSITIONS (angstrom)
H       -0.715383721  -0.588752518  -0.013005206
H       -0.228227164   0.865757827  -0.164336953
O        0.085744885  -0.030609309   0.080768159
End final coordinates



     Writing output data file pwscf.save
 
     init_run     :      0.52s CPU      0.55s WALL (       1 calls)
     electrons    :      8.45s CPU     10.00s WALL (       6 calls)
     update_pot   :      1.27s CPU      1.62s WALL (       5 calls)
     forces       :      0.40s CPU      0.41s WALL (       6 calls)

     Called by init_run:
     wfcinit      :      0.03s CPU      0.04s WALL (       1 calls)
     potinit      :      0.11s CPU      0.12s WALL (       1 calls)

     Called by electrons:
     c_bands      :      3.98s CPU      4.06s WALL (      37 calls)
     sum_band     :      0.78s CPU      0.80s WALL (      37 calls)
     v_of_rho     :      2.19s CPU      2.41s WALL (      42 calls)
     mix_rho      :      0.79s CPU      1.47s WALL (      37 calls)

     Called by c_bands:
     init_us_2    :      0.02s CPU      0.02s WALL (      75 calls)
     cegterg      :      3.96s CPU      4.02s WALL (      37 calls)

     Called by sum_band:

     Called by *egterg:
     h_psi        :      3.39s CPU      3.44s WALL (     274 calls)
     g_psi        :      0.03s CPU      0.03s WALL (     236 calls)
     cdiaghg      :      0.06s CPU      0.07s WALL (     267 calls)

     Called by h_psi:
     h_psi:pot    :      3.35s CPU      3.41s WALL (     274 calls)
     h_psi:calbec :      0.04s CPU      0.05s WALL (     274 calls)
     vloc_psi     :      3.28s CPU      3.33s WALL (     274 calls)
     add_vuspsi   :      0.02s CPU      0.02s WALL (     274 calls)

     General routines
     calbec       :      0.04s CPU      0.06s WALL (     298 calls)
     fft          :      1.60s CPU      1.81s WALL (     475 calls)
     fftw         :      3.28s CPU      3.33s WALL (    2544 calls)
     davcio       :      0.10s CPU      0.59s WALL (     241 calls)
 
     Parallel routines
     fft_scatter  :      1.84s CPU      2.08s WALL (    3019 calls)
 
     PWSCF        :    11.11s CPU        13.42s WALL

 
   This run was terminated on:   2:22:22  28Jul2018            

=------------------------------------------------------------------------------=
   JOB DONE.
=------------------------------------------------------------------------------=
