
     Program PWSCF v.6.0 (svn rev. 13079) starts on 28Jul2018 at  2:46: 0 

     This program is part of the open-source Quantum ESPRESSO suite
     for quantum simulation of materials; please cite
         "P. Giannozzi et al., J. Phys.:Condens. Matter 21 395502 (2009);
          URL http://www.quantum-espresso.org", 
     in publications or presentations arising from this work. More details at
     http://www.quantum-espresso.org/quote

     Parallel version (MPI), running on    28 processors
     R & G space division:  proc/nbgrp/npool/nimage =      28
     Reading input from ../QMCmins/relax-84.in

     Current dimensions of program PWSCF are:
     Max number of different atomic species (ntypx) = 10
     Max number of k-points (npk) =  40000
     Max angular momentum in pseudopotentials (lmaxx) =  3
     Message from routine iosys:
     pot_extrapolation='second-order' not available, using 'atomic'
     Message from routine iosys:
     wfc_extrapolation='second-order' not available, using 'atomic'

     Subspace diagonalization in iterative solution of the eigenvalue problem:
     a serial algorithm will be used

 
     Parallelization info
     --------------------
     sticks:   dense  smooth     PW     G-vecs:    dense   smooth      PW
     Min         408     408    102                32936    32936    4116
     Max         409     409    103                32943    32943    4121
     Sum       11449   11449   2869               922329   922329  115313
 


     bravais-lattice index     =            1
     lattice parameter (alat)  =      20.0000  a.u.
     unit-cell volume          =    8000.0000 (a.u.)^3
     number of atoms/cell      =            3
     number of atomic types    =            2
     number of electrons       =         8.00
     number of Kohn-Sham states=            8
     kinetic-energy cutoff     =      90.0000  Ry
     charge density cutoff     =     360.0000  Ry
     convergence threshold     =      1.0E-08
     mixing beta               =       0.7000
     number of iterations used =            8  plain     mixing
     Exchange-correlation      = BLYP ( 1  3  1  3 0 0)
     nstep                     =           50


     celldm(1)=  20.000000  celldm(2)=   0.000000  celldm(3)=   0.000000
     celldm(4)=   0.000000  celldm(5)=   0.000000  celldm(6)=   0.000000

     crystal axes: (cart. coord. in units of alat)
               a(1) = (   1.000000   0.000000   0.000000 )  
               a(2) = (   0.000000   1.000000   0.000000 )  
               a(3) = (   0.000000   0.000000   1.000000 )  

     reciprocal axes: (cart. coord. in units 2 pi/alat)
               b(1) = (  1.000000  0.000000  0.000000 )  
               b(2) = (  0.000000  1.000000  0.000000 )  
               b(3) = (  0.000000  0.000000  1.000000 )  


     PseudoPot. # 1 for  H read from file:
     ../H.blyp-hgh.UPF
     MD5 check sum: c576e69559cde411e611be972c763230
     Pseudo is Norm-conserving, Zval =  1.0
     Generated in analytical, separable form
     Using radial grid of  929 points,  0 beta functions with: 

     PseudoPot. # 2 for  O read from file:
     ../O.blyp-hgh.UPF
     MD5 check sum: d0b7156309aa9befef28faac7bc56342
     Pseudo is Norm-conserving, Zval =  6.0
     Generated in analytical, separable form
     Using radial grid of 1095 points,  1 beta functions with: 
                l(1) =   0

     atomic species   valence    mass     pseudopotential
        H              1.00     1.01000      H( 1.00)
        O              6.00    16.00000      O( 1.00)

     No symmetry found



   Cartesian axes

     site n.     atom                  positions (alat units)
         1           H   tau(   1) = (  -0.0156315  -0.0888128   0.0037147  )
         2           H   tau(   2) = (  -0.0097163   0.0678846  -0.0505430  )
         3           O   tau(   3) = (   0.0016001   0.0013211   0.0085340  )

     number of k points=     1  Marzari-Vanderbilt smearing, width (Ry)=  0.0250
                       cart. coord. in units 2pi/alat
        k(    1) = (   0.0000000   0.0000000   0.0000000), wk =   2.0000000

     Dense  grid:   922329 G-vectors     FFT dimensions: ( 125, 125, 125)

     Estimated max dynamical RAM per process >      31.67Mb

     Estimated total allocated dynamical RAM >     886.64Mb

     Initial potential from superposition of free atoms
     Check: negative starting charge=   -0.015844

     starting charge    7.99998, renormalised to    8.00000

     negative rho (up, down):  1.584E-02 0.000E+00
     Starting wfc are    6 randomized atomic wfcs +    2 random wfc

     total cpu time spent up to now is        0.9 secs

     per-process dynamical memory:    33.5 Mb

     Self-consistent Calculation

     iteration #  1     ecut=    90.00 Ry     beta=0.70
     Davidson diagonalization with overlap
     ethr =  1.00E-02,  avg # of iterations =  8.0

     negative rho (up, down):  4.611E-03 0.000E+00

     total cpu time spent up to now is        1.1 secs

     total energy              =     -33.98253167 Ry
     Harris-Foulkes estimate   =     -34.25541111 Ry
     estimated scf accuracy    <       0.40268507 Ry

     iteration #  2     ecut=    90.00 Ry     beta=0.70
     Davidson diagonalization with overlap
     ethr =  5.03E-03,  avg # of iterations =  2.0

     negative rho (up, down):  2.739E-03 0.000E+00

     total cpu time spent up to now is        1.3 secs

     total energy              =     -34.05295326 Ry
     Harris-Foulkes estimate   =     -34.25546614 Ry
     estimated scf accuracy    <       0.43134420 Ry

     iteration #  3     ecut=    90.00 Ry     beta=0.70
     Davidson diagonalization with overlap
     ethr =  5.03E-03,  avg # of iterations =  2.0

     negative rho (up, down):  1.470E-04 0.000E+00

     total cpu time spent up to now is        1.5 secs

     total energy              =     -34.15012084 Ry
     Harris-Foulkes estimate   =     -34.15120780 Ry
     estimated scf accuracy    <       0.00614274 Ry

     iteration #  4     ecut=    90.00 Ry     beta=0.70
     Davidson diagonalization with overlap
     ethr =  7.68E-05,  avg # of iterations =  6.0

     negative rho (up, down):  1.263E-05 0.000E+00

     total cpu time spent up to now is        1.8 secs

     total energy              =     -34.15181847 Ry
     Harris-Foulkes estimate   =     -34.15195626 Ry
     estimated scf accuracy    <       0.00033542 Ry

     iteration #  5     ecut=    90.00 Ry     beta=0.70
     Davidson diagonalization with overlap
     ethr =  4.19E-06,  avg # of iterations = 10.0

     negative rho (up, down):  7.933E-07 0.000E+00

     total cpu time spent up to now is        2.0 secs

     total energy              =     -34.15184921 Ry
     Harris-Foulkes estimate   =     -34.15185242 Ry
     estimated scf accuracy    <       0.00001392 Ry

     iteration #  6     ecut=    90.00 Ry     beta=0.70
     Davidson diagonalization with overlap
     ethr =  1.74E-07,  avg # of iterations =  2.0

     negative rho (up, down):  1.832E-08 0.000E+00

     total cpu time spent up to now is        2.3 secs

     total energy              =     -34.15185042 Ry
     Harris-Foulkes estimate   =     -34.15185272 Ry
     estimated scf accuracy    <       0.00000223 Ry

     iteration #  7     ecut=    90.00 Ry     beta=0.70
     Davidson diagonalization with overlap
     ethr =  2.79E-08,  avg # of iterations =  2.0

     total cpu time spent up to now is        2.5 secs

     total energy              =     -34.15185057 Ry
     Harris-Foulkes estimate   =     -34.15185071 Ry
     estimated scf accuracy    <       0.00000003 Ry

     iteration #  8     ecut=    90.00 Ry     beta=0.70
     Davidson diagonalization with overlap
     ethr =  4.06E-10,  avg # of iterations =  2.0

     total cpu time spent up to now is        2.7 secs

     total energy              =     -34.15185040 Ry
     Harris-Foulkes estimate   =     -34.15185058 Ry
     estimated scf accuracy    <       0.00000001 Ry

     iteration #  9     ecut=    90.00 Ry     beta=0.70
     Davidson diagonalization with overlap
     ethr =  1.49E-10,  avg # of iterations =  2.0

     total cpu time spent up to now is        2.8 secs

     End of self-consistent calculation

          k = 0.0000 0.0000 0.0000 (115313 PWs)   bands (ev):

   -24.8659 -14.0723  -7.8988  -6.9773  -0.9094   0.4326   0.7351   1.1426

     the Fermi energy is    -5.0194 ev

!    total energy              =     -34.15185038 Ry
     Harris-Foulkes estimate   =     -34.15185040 Ry
     estimated scf accuracy    <          1.6E-10 Ry

     The total energy is the sum of the following terms:

     one-electron contribution =     -63.99423334 Ry
     hartree contribution      =      33.45737360 Ry
     xc contribution           =      -8.38215626 Ry
     ewald contribution        =       4.76716563 Ry
     smearing contrib. (-TS)   =       0.00000000 Ry

     convergence has been achieved in   9 iterations

     Forces acting on atoms (Ry/au):

     atom    1 type  1   force =    -0.01570574    0.01754632   -0.05319594
     atom    2 type  1   force =    -0.02483933   -0.00912355   -0.06524209
     atom    3 type  2   force =     0.04054507   -0.00842277    0.11843803

     Total force =     0.155189     Total SCF correction =     0.000007

     BFGS Geometry Optimization

     number of scf cycles    =   1
     number of bfgs steps    =   0

     energy   new            =     -34.1518503783 Ry

     new trust radius        =       0.1254687726 bohr
     new conv_thr            =       0.0000000100 Ry


ATOMIC_POSITIONS (angstrom)
H       -0.173748119  -0.930668887   0.011164919
H       -0.115977409   0.713632027  -0.569448625
O        0.038390527   0.009524860   0.152994706



     Writing output data file pwscf.save
     Check: negative starting charge=   -0.015844
     NEW-OLD atomic charge density approx. for the potential
     Check: negative starting charge=   -0.015875

     negative rho (up, down):  2.101E-02 0.000E+00

     total cpu time spent up to now is        3.4 secs

     per-process dynamical memory:    45.8 Mb

     Self-consistent Calculation

     iteration #  1     ecut=    90.00 Ry     beta=0.70
     Davidson diagonalization with overlap
     ethr =  1.00E-06,  avg # of iterations = 20.0

     negative rho (up, down):  5.400E-03 0.000E+00

     total cpu time spent up to now is        3.9 secs

     total energy              =     -34.15265744 Ry
     Harris-Foulkes estimate   =     -34.13335118 Ry
     estimated scf accuracy    <       0.00704177 Ry

     iteration #  2     ecut=    90.00 Ry     beta=0.70
     Davidson diagonalization with overlap
     ethr =  8.80E-05,  avg # of iterations =  5.0

     negative rho (up, down):  3.297E-03 0.000E+00

     total cpu time spent up to now is        4.1 secs

     total energy              =     -34.15731942 Ry
     Harris-Foulkes estimate   =     -34.15700514 Ry
     estimated scf accuracy    <       0.00592411 Ry

     iteration #  3     ecut=    90.00 Ry     beta=0.70
     Davidson diagonalization with overlap
     ethr =  7.41E-05,  avg # of iterations =  3.0

     negative rho (up, down):  8.109E-04 0.000E+00

     total cpu time spent up to now is        4.3 secs

     total energy              =     -34.16122634 Ry
     Harris-Foulkes estimate   =     -34.15868949 Ry
     estimated scf accuracy    <       0.00012973 Ry

     iteration #  4     ecut=    90.00 Ry     beta=0.70
     Davidson diagonalization with overlap
     ethr =  1.62E-06,  avg # of iterations = 16.0

     negative rho (up, down):  2.996E-05 0.000E+00

     total cpu time spent up to now is        4.6 secs

     total energy              =     -34.16536469 Ry
     Harris-Foulkes estimate   =     -34.16534008 Ry
     estimated scf accuracy    <       0.00000429 Ry

     iteration #  5     ecut=    90.00 Ry     beta=0.70
     Davidson diagonalization with overlap
     ethr =  5.36E-08,  avg # of iterations =  5.0

     negative rho (up, down):  1.539E-08 0.000E+00

     total cpu time spent up to now is        4.9 secs

     total energy              =     -34.16536636 Ry
     Harris-Foulkes estimate   =     -34.16536618 Ry
     estimated scf accuracy    <       0.00000007 Ry

     iteration #  6     ecut=    90.00 Ry     beta=0.70
     Davidson diagonalization with overlap
     ethr =  8.80E-10,  avg # of iterations =  2.0

     total cpu time spent up to now is        5.0 secs

     End of self-consistent calculation

          k = 0.0000 0.0000 0.0000 (115313 PWs)   bands (ev):

   -24.6516 -13.3554  -8.2661  -6.9493  -1.0238   0.3951   0.6817   1.1363

     the Fermi energy is    -4.9705 ev

!    total energy              =     -34.16536648 Ry
     Harris-Foulkes estimate   =     -34.16536639 Ry
     estimated scf accuracy    <          5.0E-09 Ry

     The total energy is the sum of the following terms:

     one-electron contribution =     -63.20725660 Ry
     hartree contribution      =      33.06829837 Ry
     xc contribution           =      -8.32233211 Ry
     ewald contribution        =       4.29592385 Ry
     smearing contrib. (-TS)   =       0.00000000 Ry

     convergence has been achieved in   6 iterations

     Forces acting on atoms (Ry/au):

     atom    1 type  1   force =    -0.01464105    0.01117243   -0.04245437
     atom    2 type  1   force =    -0.00351281   -0.08911872    0.03166636
     atom    3 type  2   force =     0.01815386    0.07794629    0.01078802

     Total force =     0.132742     Total SCF correction =     0.000067

     number of scf cycles    =   2
     number of bfgs steps    =   1

     energy   old            =     -34.1518503783 Ry
     energy   new            =     -34.1653664829 Ry

     CASE: energy  _new < energy  _old

     new trust radius        =       0.1572758031 bohr
     new conv_thr            =       0.0000000089 Ry


ATOMIC_POSITIONS (angstrom)
H       -0.190235423  -0.915364941  -0.040390250
H       -0.130248762   0.655610539  -0.582359043
O        0.069149185   0.052242402   0.217460294



     Writing output data file pwscf.save
     Check: negative starting charge=   -0.015875
     NEW-OLD atomic charge density approx. for the potential
     Check: negative starting charge=   -0.015890

     negative rho (up, down):  2.528E-02 0.000E+00

     total cpu time spent up to now is        5.7 secs

     per-process dynamical memory:    45.8 Mb

     Self-consistent Calculation

     iteration #  1     ecut=    90.00 Ry     beta=0.70
     Davidson diagonalization with overlap
     c_bands:  2 eigenvalues not converged
     ethr =  1.00E-06,  avg # of iterations = 20.0

     negative rho (up, down):  6.447E-03 0.000E+00

     total cpu time spent up to now is        6.4 secs

     total energy              =     -34.16049405 Ry
     Harris-Foulkes estimate   =     -34.13542386 Ry
     estimated scf accuracy    <       0.00721529 Ry

     iteration #  2     ecut=    90.00 Ry     beta=0.70
     Davidson diagonalization with overlap
     ethr =  9.02E-05,  avg # of iterations =  6.0

     negative rho (up, down):  3.970E-03 0.000E+00

     total cpu time spent up to now is        6.6 secs

     total energy              =     -34.16561664 Ry
     Harris-Foulkes estimate   =     -34.16477214 Ry
     estimated scf accuracy    <       0.00643495 Ry

     iteration #  3     ecut=    90.00 Ry     beta=0.70
     Davidson diagonalization with overlap
     ethr =  8.04E-05,  avg # of iterations =  3.0

     negative rho (up, down):  6.478E-04 0.000E+00

     total cpu time spent up to now is        6.8 secs

     total energy              =     -34.17064492 Ry
     Harris-Foulkes estimate   =     -34.16711760 Ry
     estimated scf accuracy    <       0.00018650 Ry

     iteration #  4     ecut=    90.00 Ry     beta=0.70
     Davidson diagonalization with overlap
     ethr =  2.33E-06,  avg # of iterations = 17.0

     negative rho (up, down):  1.643E-05 0.000E+00

     total cpu time spent up to now is        7.1 secs

     total energy              =     -34.17478526 Ry
     Harris-Foulkes estimate   =     -34.17476808 Ry
     estimated scf accuracy    <       0.00000478 Ry

     iteration #  5     ecut=    90.00 Ry     beta=0.70
     Davidson diagonalization with overlap
     ethr =  5.98E-08,  avg # of iterations =  4.0

     negative rho (up, down):  1.435E-07 0.000E+00

     total cpu time spent up to now is        7.4 secs

     total energy              =     -34.17478591 Ry
     Harris-Foulkes estimate   =     -34.17478658 Ry
     estimated scf accuracy    <       0.00000009 Ry

     iteration #  6     ecut=    90.00 Ry     beta=0.70
     Davidson diagonalization with overlap
     ethr =  1.15E-09,  avg # of iterations =  2.0

     total cpu time spent up to now is        7.5 secs

     End of self-consistent calculation

          k = 0.0000 0.0000 0.0000 (115313 PWs)   bands (ev):

   -24.5528 -12.5308  -8.8817  -6.9696  -1.1032   0.3809   0.6225   1.1418

     the Fermi energy is    -4.9417 ev

!    total energy              =     -34.17478598 Ry
     Harris-Foulkes estimate   =     -34.17478594 Ry
     estimated scf accuracy    <          8.8E-09 Ry

     The total energy is the sum of the following terms:

     one-electron contribution =     -62.59194677 Ry
     hartree contribution      =      32.75017180 Ry
     xc contribution           =      -8.27421590 Ry
     ewald contribution        =       3.94120489 Ry
     smearing contrib. (-TS)   =       0.00000000 Ry

     convergence has been achieved in   6 iterations

     Forces acting on atoms (Ry/au):

     atom    1 type  1   force =     0.01757629    0.08809867    0.00706770
     atom    2 type  1   force =     0.00840765   -0.05462183    0.04636433
     atom    3 type  2   force =    -0.02598393   -0.03347684   -0.05343203

     Total force =     0.134071     Total SCF correction =     0.000163

     number of scf cycles    =   3
     number of bfgs steps    =   2

     energy   old            =     -34.1653664829 Ry
     energy   new            =     -34.1747859787 Ry

     CASE: energy  _new < energy  _old

     new trust radius        =       0.0847958674 bohr
     new conv_thr            =       0.0000000088 Ry


ATOMIC_POSITIONS (angstrom)
H       -0.187269894  -0.872230961  -0.052397142
H       -0.131616653   0.619082370  -0.570309664
O        0.067551547   0.045636591   0.217417806



     Writing output data file pwscf.save
     Check: negative starting charge=   -0.015890
     NEW-OLD atomic charge density approx. for the potential
     Check: negative starting charge=   -0.015951

     negative rho (up, down):  2.295E-03 0.000E+00

     total cpu time spent up to now is        8.2 secs

     per-process dynamical memory:    45.8 Mb

     Self-consistent Calculation

     iteration #  1     ecut=    90.00 Ry     beta=0.70
     Davidson diagonalization with overlap
     c_bands:  1 eigenvalues not converged
     ethr =  1.00E-06,  avg # of iterations = 20.0

     negative rho (up, down):  5.593E-04 0.000E+00

     total cpu time spent up to now is        8.6 secs

     total energy              =     -34.17787557 Ry
     Harris-Foulkes estimate   =     -34.17840390 Ry
     estimated scf accuracy    <       0.00238784 Ry

     iteration #  2     ecut=    90.00 Ry     beta=0.70
     Davidson diagonalization with overlap
     ethr =  2.98E-05,  avg # of iterations =  5.0

     negative rho (up, down):  3.351E-04 0.000E+00

     total cpu time spent up to now is        8.8 secs

     total energy              =     -34.17832444 Ry
     Harris-Foulkes estimate   =     -34.17946821 Ry
     estimated scf accuracy    <       0.00239087 Ry

     iteration #  3     ecut=    90.00 Ry     beta=0.70
     Davidson diagonalization with overlap
     ethr =  2.98E-05,  avg # of iterations =  2.0

     negative rho (up, down):  4.261E-05 0.000E+00

     total cpu time spent up to now is        9.0 secs

     total energy              =     -34.18291934 Ry
     Harris-Foulkes estimate   =     -34.18291816 Ry
     estimated scf accuracy    <       0.00002637 Ry

     iteration #  4     ecut=    90.00 Ry     beta=0.70
     Davidson diagonalization with overlap
     c_bands:  1 eigenvalues not converged
     ethr =  3.30E-07,  avg # of iterations = 20.0

     negative rho (up, down):  1.909E-06 0.000E+00

     total cpu time spent up to now is        9.3 secs

     total energy              =     -34.18292723 Ry
     Harris-Foulkes estimate   =     -34.18292621 Ry
     estimated scf accuracy    <       0.00000049 Ry

     iteration #  5     ecut=    90.00 Ry     beta=0.70
     Davidson diagonalization with overlap
     ethr =  6.12E-09,  avg # of iterations = 11.0

     total cpu time spent up to now is        9.5 secs

     total energy              =     -34.18292754 Ry
     Harris-Foulkes estimate   =     -34.18292731 Ry
     estimated scf accuracy    <       0.00000002 Ry

     iteration #  6     ecut=    90.00 Ry     beta=0.70
     Davidson diagonalization with overlap
     ethr =  2.90E-10,  avg # of iterations =  2.0

     total cpu time spent up to now is        9.7 secs

     End of self-consistent calculation

          k = 0.0000 0.0000 0.0000 (115313 PWs)   bands (ev):

   -24.9432 -12.7424  -9.0564  -7.0467  -0.9789   0.4166   0.7240   1.1166

     the Fermi energy is    -5.0582 ev

!    total energy              =     -34.18292754 Ry
     Harris-Foulkes estimate   =     -34.18292754 Ry
     estimated scf accuracy    <          1.4E-09 Ry

     The total energy is the sum of the following terms:

     one-electron contribution =     -63.39114750 Ry
     hartree contribution      =      33.12655065 Ry
     xc contribution           =      -8.33498445 Ry
     ewald contribution        =       4.41665376 Ry
     smearing contrib. (-TS)   =       0.00000000 Ry

     convergence has been achieved in   6 iterations

     Forces acting on atoms (Ry/au):

     atom    1 type  1   force =     0.00309522    0.01978479   -0.00105687
     atom    2 type  1   force =     0.00328079   -0.02092577    0.01761971
     atom    3 type  2   force =    -0.00637601    0.00114097   -0.01656284

     Total force =     0.038439     Total SCF correction =     0.000159

     number of scf cycles    =   4
     number of bfgs steps    =   3

     energy   old            =     -34.1747859787 Ry
     energy   new            =     -34.1829275403 Ry

     CASE: energy  _new < energy  _old

     new trust radius        =       0.0392120531 bohr
     new conv_thr            =       0.0000000021 Ry


ATOMIC_POSITIONS (angstrom)
H       -0.187178902  -0.854300523  -0.060895857
H       -0.132267572   0.599348974  -0.563927104
O        0.068111474   0.047439549   0.219533961



     Writing output data file pwscf.save
     Check: negative starting charge=   -0.015951
     NEW-OLD atomic charge density approx. for the potential
     Check: negative starting charge=   -0.015971

     negative rho (up, down):  8.606E-04 0.000E+00

     total cpu time spent up to now is       10.4 secs

     per-process dynamical memory:    45.8 Mb

     Self-consistent Calculation

     iteration #  1     ecut=    90.00 Ry     beta=0.70
     Davidson diagonalization with overlap
     ethr =  1.00E-06,  avg # of iterations =  6.0

     negative rho (up, down):  2.069E-04 0.000E+00

     total cpu time spent up to now is       10.7 secs

     total energy              =     -34.18349150 Ry
     Harris-Foulkes estimate   =     -34.18369819 Ry
     estimated scf accuracy    <       0.00039198 Ry

     iteration #  2     ecut=    90.00 Ry     beta=0.70
     Davidson diagonalization with overlap
     ethr =  4.90E-06,  avg # of iterations =  2.0

     negative rho (up, down):  1.170E-04 0.000E+00

     total cpu time spent up to now is       10.9 secs

     total energy              =     -34.18356024 Ry
     Harris-Foulkes estimate   =     -34.18372410 Ry
     estimated scf accuracy    <       0.00033839 Ry

     iteration #  3     ecut=    90.00 Ry     beta=0.70
     Davidson diagonalization with overlap
     ethr =  4.23E-06,  avg # of iterations =  2.0

     negative rho (up, down):  7.947E-06 0.000E+00

     total cpu time spent up to now is       11.1 secs

     total energy              =     -34.18364017 Ry
     Harris-Foulkes estimate   =     -34.18363767 Ry
     estimated scf accuracy    <       0.00000658 Ry

     iteration #  4     ecut=    90.00 Ry     beta=0.70
     Davidson diagonalization with overlap
     ethr =  8.22E-08,  avg # of iterations =  3.0

     negative rho (up, down):  1.395E-07 0.000E+00

     total cpu time spent up to now is       11.3 secs

     total energy              =     -34.18364241 Ry
     Harris-Foulkes estimate   =     -34.18364162 Ry
     estimated scf accuracy    <       0.00000009 Ry

     iteration #  5     ecut=    90.00 Ry     beta=0.70
     Davidson diagonalization with overlap
     ethr =  1.10E-09,  avg # of iterations =  2.0

     total cpu time spent up to now is       11.5 secs

     total energy              =     -34.18364262 Ry
     Harris-Foulkes estimate   =     -34.18364243 Ry
     estimated scf accuracy    <          4.4E-09 Ry

     iteration #  6     ecut=    90.00 Ry     beta=0.70
     Davidson diagonalization with overlap
     ethr =  5.48E-11,  avg # of iterations =  2.0

     total cpu time spent up to now is       11.6 secs

     End of self-consistent calculation

          k = 0.0000 0.0000 0.0000 (115313 PWs)   bands (ev):

   -25.1188 -12.7830  -9.1669  -7.0817  -0.9401   0.4281   0.7600   1.1180

     the Fermi energy is    -5.1011 ev

!    total energy              =     -34.18364268 Ry
     Harris-Foulkes estimate   =     -34.18364262 Ry
     estimated scf accuracy    <          3.3E-10 Ry

     The total energy is the sum of the following terms:

     one-electron contribution =     -63.71240546 Ry
     hartree contribution      =      33.27671436 Ry
     xc contribution           =      -8.35951150 Ry
     ewald contribution        =       4.61155992 Ry
     smearing contrib. (-TS)   =       0.00000000 Ry

     convergence has been achieved in   6 iterations

     Forces acting on atoms (Ry/au):

     atom    1 type  1   force =    -0.00106283   -0.00415009   -0.00138496
     atom    2 type  1   force =    -0.00051191    0.00171466   -0.00253761
     atom    3 type  2   force =     0.00157474    0.00243543    0.00392257

     Total force =     0.007329     Total SCF correction =     0.000050

     number of scf cycles    =   5
     number of bfgs steps    =   4

     energy   old            =     -34.1829275403 Ry
     energy   new            =     -34.1836426800 Ry

     CASE: energy  _new < energy  _old

     new trust radius        =       0.0032121275 bohr
     new conv_thr            =       0.0000000004 Ry


ATOMIC_POSITIONS (angstrom)
H       -0.187515435  -0.855575169  -0.061408752
H       -0.132455387   0.599901628  -0.564860948
O        0.068635822   0.048161541   0.220980700



     Writing output data file pwscf.save
     Check: negative starting charge=   -0.015971
     NEW-OLD atomic charge density approx. for the potential
     Check: negative starting charge=   -0.015972

     negative rho (up, down):  4.371E-04 0.000E+00

     total cpu time spent up to now is       12.2 secs

     per-process dynamical memory:    45.8 Mb

     Self-consistent Calculation

     iteration #  1     ecut=    90.00 Ry     beta=0.70
     Davidson diagonalization with overlap
     ethr =  1.00E-06,  avg # of iterations =  3.0

     negative rho (up, down):  1.008E-04 0.000E+00

     total cpu time spent up to now is       12.5 secs

     total energy              =     -34.18364998 Ry
     Harris-Foulkes estimate   =     -34.18365585 Ry
     estimated scf accuracy    <       0.00001401 Ry

     iteration #  2     ecut=    90.00 Ry     beta=0.70
     Davidson diagonalization with overlap
     ethr =  1.75E-07,  avg # of iterations =  3.0

     negative rho (up, down):  5.881E-05 0.000E+00

     total cpu time spent up to now is       12.7 secs

     total energy              =     -34.18365341 Ry
     Harris-Foulkes estimate   =     -34.18366122 Ry
     estimated scf accuracy    <       0.00001700 Ry

     iteration #  3     ecut=    90.00 Ry     beta=0.70
     Davidson diagonalization with overlap
     ethr =  1.75E-07,  avg # of iterations =  2.0

     negative rho (up, down):  3.693E-06 0.000E+00

     total cpu time spent up to now is       12.9 secs

     total energy              =     -34.18365785 Ry
     Harris-Foulkes estimate   =     -34.18365669 Ry
     estimated scf accuracy    <       0.00000005 Ry

     iteration #  4     ecut=    90.00 Ry     beta=0.70
     Davidson diagonalization with overlap
     ethr =  6.02E-10,  avg # of iterations =  3.0

     negative rho (up, down):  2.135E-07 0.000E+00

     total cpu time spent up to now is       13.1 secs

     total energy              =     -34.18365808 Ry
     Harris-Foulkes estimate   =     -34.18365790 Ry
     estimated scf accuracy    <          3.9E-09 Ry

     iteration #  5     ecut=    90.00 Ry     beta=0.70
     Davidson diagonalization with overlap
     ethr =  4.87E-11,  avg # of iterations =  2.0

     total cpu time spent up to now is       13.3 secs

     End of self-consistent calculation

          k = 0.0000 0.0000 0.0000 (115313 PWs)   bands (ev):

   -25.0970 -12.7544  -9.1714  -7.0783  -0.9472   0.4261   0.7553   1.1177

     the Fermi energy is    -5.0958 ev

!    total energy              =     -34.18365819 Ry
     Harris-Foulkes estimate   =     -34.18365808 Ry
     estimated scf accuracy    <          2.0E-10 Ry

     The total energy is the sum of the following terms:

     one-electron contribution =     -63.66050530 Ry
     hartree contribution      =      33.25176310 Ry
     xc contribution           =      -8.35542839 Ry
     ewald contribution        =       4.58051240 Ry
     smearing contrib. (-TS)   =       0.00000000 Ry

     convergence has been achieved in   5 iterations

     Forces acting on atoms (Ry/au):

     atom    1 type  1   force =     0.00028877    0.00030792    0.00031363
     atom    2 type  1   force =     0.00030727   -0.00003117    0.00051280
     atom    3 type  2   force =    -0.00059604   -0.00027675   -0.00082644

     Total force =     0.001323     Total SCF correction =     0.000309
     SCF correction compared to forces is large: reduce conv_thr to get better values

     bfgs converged in   6 scf cycles and   5 bfgs steps
     (criteria: energy <  1.0E-04, force <  1.0E-03)

     End of BFGS Geometry Optimization

     Final energy   =     -34.1836581853 Ry
Begin final coordinates

ATOMIC_POSITIONS (angstrom)
H       -0.187515435  -0.855575169  -0.061408752
H       -0.132455387   0.599901628  -0.564860948
O        0.068635822   0.048161541   0.220980700
End final coordinates



     Writing output data file pwscf.save
 
     init_run     :      0.57s CPU      0.73s WALL (       1 calls)
     electrons    :      8.61s CPU     10.20s WALL (       6 calls)
     update_pot   :      1.35s CPU      1.64s WALL (       5 calls)
     forces       :      0.40s CPU      0.40s WALL (       6 calls)

     Called by init_run:
     wfcinit      :      0.03s CPU      0.04s WALL (       1 calls)
     potinit      :      0.17s CPU      0.29s WALL (       1 calls)

     Called by electrons:
     c_bands      :      4.15s CPU      4.23s WALL (      38 calls)
     sum_band     :      0.82s CPU      0.89s WALL (      38 calls)
     v_of_rho     :      2.35s CPU      2.53s WALL (      44 calls)
     mix_rho      :      0.86s CPU      1.53s WALL (      38 calls)

     Called by c_bands:
     init_us_2    :      0.02s CPU      0.03s WALL (      77 calls)
     cegterg      :      4.12s CPU      4.19s WALL (      38 calls)

     Called by sum_band:

     Called by *egterg:
     h_psi        :      3.55s CPU      3.60s WALL (     268 calls)
     g_psi        :      0.03s CPU      0.03s WALL (     229 calls)
     cdiaghg      :      0.06s CPU      0.07s WALL (     262 calls)

     Called by h_psi:
     h_psi:pot    :      3.51s CPU      3.57s WALL (     268 calls)
     h_psi:calbec :      0.04s CPU      0.04s WALL (     268 calls)
     vloc_psi     :      3.44s CPU      3.50s WALL (     268 calls)
     add_vuspsi   :      0.03s CPU      0.03s WALL (     268 calls)

     General routines
     calbec       :      0.04s CPU      0.04s WALL (     292 calls)
     fft          :      1.80s CPU      2.09s WALL (     495 calls)
     fftw         :      3.41s CPU      3.46s WALL (    2700 calls)
     davcio       :      0.10s CPU      0.66s WALL (     271 calls)
 
     Parallel routines
     fft_scatter  :      1.96s CPU      2.28s WALL (    3195 calls)
 
     PWSCF        :    11.38s CPU        13.83s WALL

 
   This run was terminated on:   2:46:14  28Jul2018            

=------------------------------------------------------------------------------=
   JOB DONE.
=------------------------------------------------------------------------------=
