
     Program PWSCF v.6.0 (svn rev. 13079) starts on 28Jul2018 at  2:19:20 

     This program is part of the open-source Quantum ESPRESSO suite
     for quantum simulation of materials; please cite
         "P. Giannozzi et al., J. Phys.:Condens. Matter 21 395502 (2009);
          URL http://www.quantum-espresso.org", 
     in publications or presentations arising from this work. More details at
     http://www.quantum-espresso.org/quote

     Parallel version (MPI), running on    28 processors
     R & G space division:  proc/nbgrp/npool/nimage =      28
     Reading input from ../QMCmins/relax-16.in

     Current dimensions of program PWSCF are:
     Max number of different atomic species (ntypx) = 10
     Max number of k-points (npk) =  40000
     Max angular momentum in pseudopotentials (lmaxx) =  3
     Message from routine iosys:
     pot_extrapolation='second-order' not available, using 'atomic'
     Message from routine iosys:
     wfc_extrapolation='second-order' not available, using 'atomic'

     Subspace diagonalization in iterative solution of the eigenvalue problem:
     a serial algorithm will be used

 
     Parallelization info
     --------------------
     sticks:   dense  smooth     PW     G-vecs:    dense   smooth      PW
     Min         408     408    102                32936    32936    4116
     Max         409     409    103                32943    32943    4121
     Sum       11449   11449   2869               922329   922329  115313
 


     bravais-lattice index     =            1
     lattice parameter (alat)  =      20.0000  a.u.
     unit-cell volume          =    8000.0000 (a.u.)^3
     number of atoms/cell      =            3
     number of atomic types    =            2
     number of electrons       =         8.00
     number of Kohn-Sham states=            8
     kinetic-energy cutoff     =      90.0000  Ry
     charge density cutoff     =     360.0000  Ry
     convergence threshold     =      1.0E-08
     mixing beta               =       0.7000
     number of iterations used =            8  plain     mixing
     Exchange-correlation      = BLYP ( 1  3  1  3 0 0)
     nstep                     =           50


     celldm(1)=  20.000000  celldm(2)=   0.000000  celldm(3)=   0.000000
     celldm(4)=   0.000000  celldm(5)=   0.000000  celldm(6)=   0.000000

     crystal axes: (cart. coord. in units of alat)
               a(1) = (   1.000000   0.000000   0.000000 )  
               a(2) = (   0.000000   1.000000   0.000000 )  
               a(3) = (   0.000000   0.000000   1.000000 )  

     reciprocal axes: (cart. coord. in units 2 pi/alat)
               b(1) = (  1.000000  0.000000  0.000000 )  
               b(2) = (  0.000000  1.000000  0.000000 )  
               b(3) = (  0.000000  0.000000  1.000000 )  


     PseudoPot. # 1 for  H read from file:
     ../H.blyp-hgh.UPF
     MD5 check sum: c576e69559cde411e611be972c763230
     Pseudo is Norm-conserving, Zval =  1.0
     Generated in analytical, separable form
     Using radial grid of  929 points,  0 beta functions with: 

     PseudoPot. # 2 for  O read from file:
     ../O.blyp-hgh.UPF
     MD5 check sum: d0b7156309aa9befef28faac7bc56342
     Pseudo is Norm-conserving, Zval =  6.0
     Generated in analytical, separable form
     Using radial grid of 1095 points,  1 beta functions with: 
                l(1) =   0

     atomic species   valence    mass     pseudopotential
        H              1.00     1.01000      H( 1.00)
        O              6.00    16.00000      O( 1.00)

     No symmetry found



   Cartesian axes

     site n.     atom                  positions (alat units)
         1           H   tau(   1) = (   0.0207226  -0.0402588  -0.0750803  )
         2           H   tau(   2) = (   0.0680393   0.0393015   0.0417144  )
         3           O   tau(   3) = (  -0.0056031   0.0000605   0.0076842  )

     number of k points=     1  Marzari-Vanderbilt smearing, width (Ry)=  0.0250
                       cart. coord. in units 2pi/alat
        k(    1) = (   0.0000000   0.0000000   0.0000000), wk =   2.0000000

     Dense  grid:   922329 G-vectors     FFT dimensions: ( 125, 125, 125)

     Estimated max dynamical RAM per process >      31.67Mb

     Estimated total allocated dynamical RAM >     886.64Mb

     Initial potential from superposition of free atoms
     Check: negative starting charge=   -0.015969

     starting charge    7.99998, renormalised to    8.00000

     negative rho (up, down):  1.597E-02 0.000E+00
     Starting wfc are    6 randomized atomic wfcs +    2 random wfc

     total cpu time spent up to now is        0.7 secs

     per-process dynamical memory:    33.5 Mb

     Self-consistent Calculation

     iteration #  1     ecut=    90.00 Ry     beta=0.70
     Davidson diagonalization with overlap
     ethr =  1.00E-02,  avg # of iterations =  8.0

     negative rho (up, down):  4.641E-03 0.000E+00

     total cpu time spent up to now is        1.0 secs

     total energy              =     -34.02724499 Ry
     Harris-Foulkes estimate   =     -34.26837991 Ry
     estimated scf accuracy    <       0.36243041 Ry

     iteration #  2     ecut=    90.00 Ry     beta=0.70
     Davidson diagonalization with overlap
     ethr =  4.53E-03,  avg # of iterations =  2.0

     negative rho (up, down):  2.800E-03 0.000E+00

     total cpu time spent up to now is        1.2 secs

     total energy              =     -34.08578286 Ry
     Harris-Foulkes estimate   =     -34.27852732 Ry
     estimated scf accuracy    <       0.41710241 Ry

     iteration #  3     ecut=    90.00 Ry     beta=0.70
     Davidson diagonalization with overlap
     ethr =  4.53E-03,  avg # of iterations =  2.0

     negative rho (up, down):  1.986E-04 0.000E+00

     total cpu time spent up to now is        1.4 secs

     total energy              =     -34.17830449 Ry
     Harris-Foulkes estimate   =     -34.17910792 Ry
     estimated scf accuracy    <       0.00579988 Ry

     iteration #  4     ecut=    90.00 Ry     beta=0.70
     Davidson diagonalization with overlap
     ethr =  7.25E-05,  avg # of iterations =  6.0

     negative rho (up, down):  7.523E-07 0.000E+00

     total cpu time spent up to now is        1.6 secs

     total energy              =     -34.17990194 Ry
     Harris-Foulkes estimate   =     -34.18003854 Ry
     estimated scf accuracy    <       0.00036136 Ry

     iteration #  5     ecut=    90.00 Ry     beta=0.70
     Davidson diagonalization with overlap
     ethr =  4.52E-06,  avg # of iterations = 12.0

     negative rho (up, down):  2.133E-06 0.000E+00

     total cpu time spent up to now is        1.9 secs

     total energy              =     -34.17992139 Ry
     Harris-Foulkes estimate   =     -34.17992917 Ry
     estimated scf accuracy    <       0.00002811 Ry

     iteration #  6     ecut=    90.00 Ry     beta=0.70
     Davidson diagonalization with overlap
     ethr =  3.51E-07,  avg # of iterations = 19.0

     negative rho (up, down):  2.460E-07 0.000E+00

     total cpu time spent up to now is        2.2 secs

     total energy              =     -34.17992427 Ry
     Harris-Foulkes estimate   =     -34.17992434 Ry
     estimated scf accuracy    <       0.00000069 Ry

     iteration #  7     ecut=    90.00 Ry     beta=0.70
     Davidson diagonalization with overlap
     ethr =  8.63E-09,  avg # of iterations =  2.0

     total cpu time spent up to now is        2.4 secs

     total energy              =     -34.17992408 Ry
     Harris-Foulkes estimate   =     -34.17992437 Ry
     estimated scf accuracy    <       0.00000002 Ry

     iteration #  8     ecut=    90.00 Ry     beta=0.70
     Davidson diagonalization with overlap
     ethr =  2.34E-10,  avg # of iterations =  2.0

     total cpu time spent up to now is        2.5 secs

     End of self-consistent calculation

          k = 0.0000 0.0000 0.0000 (115313 PWs)   bands (ev):

   -25.0368 -12.8699  -9.0162  -7.0603  -0.9592   0.4169   0.7359   1.1302

     the Fermi energy is    -5.0714 ev

!    total energy              =     -34.17992391 Ry
     Harris-Foulkes estimate   =     -34.17992409 Ry
     estimated scf accuracy    <          7.3E-09 Ry

     The total energy is the sum of the following terms:

     one-electron contribution =     -63.59651436 Ry
     hartree contribution      =      33.22612838 Ry
     xc contribution           =      -8.35159923 Ry
     ewald contribution        =       4.54206130 Ry
     smearing contrib. (-TS)   =       0.00000000 Ry

     convergence has been achieved in   8 iterations

     Forces acting on atoms (Ry/au):

     atom    1 type  1   force =    -0.00790972    0.02773168    0.05263043
     atom    2 type  1   force =     0.04936334    0.02050802    0.01301544
     atom    3 type  2   force =    -0.04145363   -0.04823970   -0.06564587

     Total force =     0.122406     Total SCF correction =     0.000120

     BFGS Geometry Optimization

     number of scf cycles    =   1
     number of bfgs steps    =   0

     energy   new            =     -34.1799239078 Ry

     new trust radius        =       0.0914048808 bohr
     new conv_thr            =       0.0000000100 Ry


ATOMIC_POSITIONS (angstrom)
H        0.215133359  -0.411406029  -0.766765176
H        0.746218957   0.426801378   0.448373476
O       -0.081237315  -0.024887349   0.046587701



     Writing output data file pwscf.save
     Check: negative starting charge=   -0.015969
     NEW-OLD atomic charge density approx. for the potential
     Check: negative starting charge=   -0.015972

     negative rho (up, down):  1.654E-02 0.000E+00

     total cpu time spent up to now is        3.2 secs

     per-process dynamical memory:    45.8 Mb

     Self-consistent Calculation

     iteration #  1     ecut=    90.00 Ry     beta=0.70
     Davidson diagonalization with overlap
     c_bands:  1 eigenvalues not converged
     ethr =  1.00E-06,  avg # of iterations = 20.0

     negative rho (up, down):  4.337E-03 0.000E+00

     total cpu time spent up to now is        3.7 secs

     total energy              =     -34.16928970 Ry
     Harris-Foulkes estimate   =     -34.15443292 Ry
     estimated scf accuracy    <       0.00317381 Ry

     iteration #  2     ecut=    90.00 Ry     beta=0.70
     Davidson diagonalization with overlap
     ethr =  3.97E-05,  avg # of iterations =  5.0

     negative rho (up, down):  1.577E-03 0.000E+00

     total cpu time spent up to now is        4.0 secs

     total energy              =     -34.17372539 Ry
     Harris-Foulkes estimate   =     -34.17014502 Ry
     estimated scf accuracy    <       0.00022300 Ry

     iteration #  3     ecut=    90.00 Ry     beta=0.70
     Davidson diagonalization with overlap
     ethr =  2.79E-06,  avg # of iterations = 18.0

     negative rho (up, down):  3.599E-04 0.000E+00

     total cpu time spent up to now is        4.3 secs

     total energy              =     -34.17408809 Ry
     Harris-Foulkes estimate   =     -34.17378720 Ry
     estimated scf accuracy    <       0.00001988 Ry

     iteration #  4     ecut=    90.00 Ry     beta=0.70
     Davidson diagonalization with overlap
     ethr =  2.48E-07,  avg # of iterations = 18.0

     negative rho (up, down):  3.042E-05 0.000E+00

     total cpu time spent up to now is        4.6 secs

     total energy              =     -34.17817568 Ry
     Harris-Foulkes estimate   =     -34.17817694 Ry
     estimated scf accuracy    <       0.00001218 Ry

     iteration #  5     ecut=    90.00 Ry     beta=0.70
     Davidson diagonalization with overlap
     ethr =  1.52E-07,  avg # of iterations =  4.0

     negative rho (up, down):  2.974E-07 0.000E+00

     total cpu time spent up to now is        4.9 secs

     total energy              =     -34.17817826 Ry
     Harris-Foulkes estimate   =     -34.17817838 Ry
     estimated scf accuracy    <       0.00000010 Ry

     iteration #  6     ecut=    90.00 Ry     beta=0.70
     Davidson diagonalization with overlap
     ethr =  1.19E-09,  avg # of iterations =  2.0

     total cpu time spent up to now is        5.0 secs

     End of self-consistent calculation

          k = 0.0000 0.0000 0.0000 (115313 PWs)   bands (ev):

   -25.0390 -12.7829  -9.0752  -7.0607  -0.9763   0.4074   0.7367   1.1317

     the Fermi energy is    -5.0709 ev

!    total energy              =     -34.17817831 Ry
     Harris-Foulkes estimate   =     -34.17817831 Ry
     estimated scf accuracy    <          2.8E-09 Ry

     The total energy is the sum of the following terms:

     one-electron contribution =     -63.54761621 Ry
     hartree contribution      =      33.20088954 Ry
     xc contribution           =      -8.34793708 Ry
     ewald contribution        =       4.51648545 Ry
     smearing contrib. (-TS)   =       0.00000000 Ry

     convergence has been achieved in   6 iterations

     Forces acting on atoms (Ry/au):

     atom    1 type  1   force =     0.02698392   -0.02556993   -0.05789945
     atom    2 type  1   force =    -0.05742590   -0.03423568   -0.03378161
     atom    3 type  2   force =     0.03044198    0.05980561    0.09168105

     Total force =     0.152493     Total SCF correction =     0.000267

     number of scf cycles    =   2
     number of bfgs steps    =   1

     energy   old            =     -34.1799239078 Ry
     energy   new            =     -34.1781783070 Ry

     CASE: energy  _new > energy  _old

     new trust radius        =       0.0409335104 bohr
     new conv_thr            =       0.0000000100 Ry


ATOMIC_POSITIONS (angstrom)
H        0.217444560  -0.419509162  -0.782143668
H        0.731795099   0.420808980   0.444570393
O       -0.069124659  -0.010791818   0.065769276



     Writing output data file pwscf.save
     Check: negative starting charge=   -0.015972
     NEW-OLD atomic charge density approx. for the potential
     Check: negative starting charge=   -0.015973

     negative rho (up, down):  9.193E-03 0.000E+00

     total cpu time spent up to now is        5.7 secs

     per-process dynamical memory:    45.8 Mb

     Self-consistent Calculation

     iteration #  1     ecut=    90.00 Ry     beta=0.70
     Davidson diagonalization with overlap
     c_bands:  1 eigenvalues not converged
     ethr =  1.00E-06,  avg # of iterations = 20.0

     negative rho (up, down):  2.412E-03 0.000E+00

     total cpu time spent up to now is        6.2 secs

     total energy              =     -34.17759823 Ry
     Harris-Foulkes estimate   =     -34.17091035 Ry
     estimated scf accuracy    <       0.00098922 Ry

     iteration #  2     ecut=    90.00 Ry     beta=0.70
     Davidson diagonalization with overlap
     ethr =  1.24E-05,  avg # of iterations =  6.0

     negative rho (up, down):  9.270E-04 0.000E+00

     total cpu time spent up to now is        6.4 secs

     total energy              =     -34.17910080 Ry
     Harris-Foulkes estimate   =     -34.17801230 Ry
     estimated scf accuracy    <       0.00009868 Ry

     iteration #  3     ecut=    90.00 Ry     beta=0.70
     Davidson diagonalization with overlap
     c_bands:  1 eigenvalues not converged
     ethr =  1.23E-06,  avg # of iterations = 20.0

     negative rho (up, down):  3.552E-04 0.000E+00

     total cpu time spent up to now is        6.8 secs

     total energy              =     -34.18322948 Ry
     Harris-Foulkes estimate   =     -34.18320962 Ry
     estimated scf accuracy    <       0.00001867 Ry

     iteration #  4     ecut=    90.00 Ry     beta=0.70
     Davidson diagonalization with overlap
     ethr =  2.33E-07,  avg # of iterations =  5.0

     negative rho (up, down):  6.938E-06 0.000E+00

     total cpu time spent up to now is        7.0 secs

     total energy              =     -34.18323760 Ry
     Harris-Foulkes estimate   =     -34.18323639 Ry
     estimated scf accuracy    <       0.00000385 Ry

     iteration #  5     ecut=    90.00 Ry     beta=0.70
     Davidson diagonalization with overlap
     ethr =  4.81E-08,  avg # of iterations = 18.0

     total cpu time spent up to now is        7.3 secs

     total energy              =     -34.18323843 Ry
     Harris-Foulkes estimate   =     -34.18323857 Ry
     estimated scf accuracy    <       0.00000002 Ry

     iteration #  6     ecut=    90.00 Ry     beta=0.70
     Davidson diagonalization with overlap
     ethr =  2.99E-10,  avg # of iterations =  2.0

     total cpu time spent up to now is        7.4 secs

     End of self-consistent calculation

          k = 0.0000 0.0000 0.0000 (115313 PWs)   bands (ev):

   -25.0139 -12.8366  -9.0402  -7.0590  -0.9526   0.4248   0.7314   1.1301

     the Fermi energy is    -5.0658 ev

!    total energy              =     -34.18323841 Ry
     Harris-Foulkes estimate   =     -34.18323845 Ry
     estimated scf accuracy    <          1.6E-09 Ry

     The total energy is the sum of the following terms:

     one-electron contribution =     -63.55974452 Ry
     hartree contribution      =      33.20775222 Ry
     xc contribution           =      -8.34811083 Ry
     ewald contribution        =       4.51686472 Ry
     smearing contrib. (-TS)   =       0.00000000 Ry

     convergence has been achieved in   6 iterations

     Forces acting on atoms (Ry/au):

     atom    1 type  1   force =     0.00494253    0.00599909    0.00854543
     atom    2 type  1   force =    -0.00484664   -0.00720936   -0.01015064
     atom    3 type  2   force =    -0.00009589    0.00121027    0.00160521

     Total force =     0.017776     Total SCF correction =     0.000118

     number of scf cycles    =   3
     number of bfgs steps    =   1

     energy   old            =     -34.1799239078 Ry
     energy   new            =     -34.1832384094 Ry

     CASE: energy  _new < energy  _old

     new trust radius        =       0.0127231674 bohr
     new conv_thr            =       0.0000000010 Ry


ATOMIC_POSITIONS (angstrom)
H        0.219939836  -0.415996613  -0.776970050
H        0.729887502   0.417285545   0.439403910
O       -0.069712338  -0.010780932   0.065762140



     Writing output data file pwscf.save
     Check: negative starting charge=   -0.015973
     NEW-OLD atomic charge density approx. for the potential
     Check: negative starting charge=   -0.015980

     negative rho (up, down):  1.394E-04 0.000E+00

     total cpu time spent up to now is        8.0 secs

     per-process dynamical memory:    45.8 Mb

     Self-consistent Calculation

     iteration #  1     ecut=    90.00 Ry     beta=0.70
     Davidson diagonalization with overlap
     ethr =  1.00E-06,  avg # of iterations =  4.0

     negative rho (up, down):  2.639E-05 0.000E+00

     total cpu time spent up to now is        8.3 secs

     total energy              =     -34.18342354 Ry
     Harris-Foulkes estimate   =     -34.18344989 Ry
     estimated scf accuracy    <       0.00004815 Ry

     iteration #  2     ecut=    90.00 Ry     beta=0.70
     Davidson diagonalization with overlap
     ethr =  6.02E-07,  avg # of iterations =  2.0

     negative rho (up, down):  1.259E-05 0.000E+00

     total cpu time spent up to now is        8.5 secs

     total energy              =     -34.18343359 Ry
     Harris-Foulkes estimate   =     -34.18345277 Ry
     estimated scf accuracy    <       0.00004180 Ry

     iteration #  3     ecut=    90.00 Ry     beta=0.70
     Davidson diagonalization with overlap
     ethr =  5.23E-07,  avg # of iterations =  2.0

     negative rho (up, down):  3.543E-07 0.000E+00

     total cpu time spent up to now is        8.8 secs

     total energy              =     -34.18344388 Ry
     Harris-Foulkes estimate   =     -34.18344307 Ry
     estimated scf accuracy    <       0.00000073 Ry

     iteration #  4     ecut=    90.00 Ry     beta=0.70
     Davidson diagonalization with overlap
     ethr =  9.17E-09,  avg # of iterations =  2.0

     total cpu time spent up to now is        9.0 secs

     total energy              =     -34.18344441 Ry
     Harris-Foulkes estimate   =     -34.18344405 Ry
     estimated scf accuracy    <       0.00000001 Ry

     iteration #  5     ecut=    90.00 Ry     beta=0.70
     Davidson diagonalization with overlap
     ethr =  1.37E-10,  avg # of iterations =  2.0

     total cpu time spent up to now is        9.2 secs

     End of self-consistent calculation

          k = 0.0000 0.0000 0.0000 (115313 PWs)   bands (ev):

   -25.0743 -12.8561  -9.0744  -7.0709  -0.9389   0.4290   0.7439   1.1306

     the Fermi energy is    -5.0805 ev

!    total energy              =     -34.18344443 Ry
     Harris-Foulkes estimate   =     -34.18344441 Ry
     estimated scf accuracy    <          5.0E-10 Ry

     The total energy is the sum of the following terms:

     one-electron contribution =     -63.67280124 Ry
     hartree contribution      =      33.26064006 Ry
     xc contribution           =      -8.35677749 Ry
     ewald contribution        =       4.58549424 Ry
     smearing contrib. (-TS)   =       0.00000000 Ry

     convergence has been achieved in   5 iterations

     Forces acting on atoms (Ry/au):

     atom    1 type  1   force =     0.00591053    0.00115965   -0.00034644
     atom    2 type  1   force =     0.00133824   -0.00267397   -0.00512008
     atom    3 type  2   force =    -0.00724877    0.00151432    0.00546652

     Total force =     0.012501     Total SCF correction =     0.000025

     number of scf cycles    =   4
     number of bfgs steps    =   2

     energy   old            =     -34.1832384094 Ry
     energy   new            =     -34.1834444331 Ry

     CASE: energy  _new < energy  _old

     new trust radius        =       0.0178062622 bohr
     new conv_thr            =       0.0000000002 Ry


ATOMIC_POSITIONS (angstrom)
H        0.226568401  -0.411863546  -0.772366195
H        0.729977318   0.412526958   0.431271600
O       -0.076430719  -0.010155412   0.069290594



     Writing output data file pwscf.save
     Check: negative starting charge=   -0.015980
     NEW-OLD atomic charge density approx. for the potential
     Check: negative starting charge=   -0.015995

     negative rho (up, down):  2.373E-03 0.000E+00

     total cpu time spent up to now is        9.7 secs

     per-process dynamical memory:    45.8 Mb

     Self-consistent Calculation

     iteration #  1     ecut=    90.00 Ry     beta=0.70
     Davidson diagonalization with overlap
     c_bands:  1 eigenvalues not converged
     ethr =  1.00E-06,  avg # of iterations = 20.0

     negative rho (up, down):  6.071E-04 0.000E+00

     total cpu time spent up to now is       10.2 secs

     total energy              =     -34.17954682 Ry
     Harris-Foulkes estimate   =     -34.17842689 Ry
     estimated scf accuracy    <       0.00003513 Ry

     iteration #  2     ecut=    90.00 Ry     beta=0.70
     Davidson diagonalization with overlap
     ethr =  4.39E-07,  avg # of iterations = 15.0

     negative rho (up, down):  2.078E-04 0.000E+00

     total cpu time spent up to now is       14.6 secs

     total energy              =     -34.18363822 Ry
     Harris-Foulkes estimate   =     -34.18363488 Ry
     estimated scf accuracy    <       0.00000758 Ry

     iteration #  3     ecut=    90.00 Ry     beta=0.70
     Davidson diagonalization with overlap
     ethr =  9.48E-08,  avg # of iterations = 20.0

     negative rho (up, down):  1.772E-05 0.000E+00

     total cpu time spent up to now is       14.9 secs

     total energy              =     -34.18364498 Ry
     Harris-Foulkes estimate   =     -34.18364179 Ry
     estimated scf accuracy    <       0.00000364 Ry

     iteration #  4     ecut=    90.00 Ry     beta=0.70
     Davidson diagonalization with overlap
     ethr =  4.55E-08,  avg # of iterations =  3.0

     negative rho (up, down):  1.143E-08 0.000E+00

     total cpu time spent up to now is       15.1 secs

     total energy              =     -34.18364634 Ry
     Harris-Foulkes estimate   =     -34.18364577 Ry
     estimated scf accuracy    <       0.00000002 Ry

     iteration #  5     ecut=    90.00 Ry     beta=0.70
     Davidson diagonalization with overlap
     ethr =  2.60E-10,  avg # of iterations =  2.0

     total cpu time spent up to now is       15.3 secs

     total energy              =     -34.18364642 Ry
     Harris-Foulkes estimate   =     -34.18364636 Ry
     estimated scf accuracy    <          1.4E-09 Ry

     iteration #  6     ecut=    90.00 Ry     beta=0.70
     Davidson diagonalization with overlap
     ethr =  1.81E-11,  avg # of iterations =  2.0

     total cpu time spent up to now is       15.5 secs

     End of self-consistent calculation

          k = 0.0000 0.0000 0.0000 (115313 PWs)   bands (ev):

   -25.1007 -12.7758  -9.1556  -7.0787  -0.9428   0.4272   0.7474   1.1301

     the Fermi energy is    -5.0875 ev

!    total energy              =     -34.18364647 Ry
     Harris-Foulkes estimate   =     -34.18364642 Ry
     estimated scf accuracy    <          1.4E-10 Ry

     The total energy is the sum of the following terms:

     one-electron contribution =     -63.67570401 Ry
     hartree contribution      =      33.25941924 Ry
     xc contribution           =      -8.35662863 Ry
     ewald contribution        =       4.58926693 Ry
     smearing contrib. (-TS)   =       0.00000000 Ry

     convergence has been achieved in   6 iterations

     Forces acting on atoms (Ry/au):

     atom    1 type  1   force =     0.00186409   -0.00044268   -0.00051808
     atom    2 type  1   force =     0.00278391   -0.00012099   -0.00063777
     atom    3 type  2   force =    -0.00464800    0.00056367    0.00115585

     Total force =     0.005947     Total SCF correction =     0.000019

     number of scf cycles    =   5
     number of bfgs steps    =   3

     energy   old            =     -34.1834444331 Ry
     energy   new            =     -34.1836464711 Ry

     CASE: energy  _new < energy  _old

     new trust radius        =       0.0081434807 bohr
     new conv_thr            =       0.0000000002 Ry


ATOMIC_POSITIONS (angstrom)
H        0.229516808  -0.410546089  -0.770473996
H        0.731046912   0.410520151   0.427982651
O       -0.080448720  -0.009466063   0.070687346



     Writing output data file pwscf.save
     Check: negative starting charge=   -0.015995
     NEW-OLD atomic charge density approx. for the potential
     Check: negative starting charge=   -0.016002

     negative rho (up, down):  1.253E-03 0.000E+00

     total cpu time spent up to now is       16.1 secs

     per-process dynamical memory:    45.8 Mb

     Self-consistent Calculation

     iteration #  1     ecut=    90.00 Ry     beta=0.70
     Davidson diagonalization with overlap
     ethr =  1.00E-06,  avg # of iterations = 17.0

     negative rho (up, down):  3.135E-04 0.000E+00

     total cpu time spent up to now is       16.5 secs

     total energy              =     -34.18366407 Ry
     Harris-Foulkes estimate   =     -34.18354869 Ry
     estimated scf accuracy    <       0.00001618 Ry

     iteration #  2     ecut=    90.00 Ry     beta=0.70
     Davidson diagonalization with overlap
     c_bands:  1 eigenvalues not converged
     ethr =  2.02E-07,  avg # of iterations = 20.0

     negative rho (up, down):  1.760E-04 0.000E+00

     total cpu time spent up to now is       16.8 secs

     total energy              =     -34.18366871 Ry
     Harris-Foulkes estimate   =     -34.18367373 Ry
     estimated scf accuracy    <       0.00001211 Ry

     iteration #  3     ecut=    90.00 Ry     beta=0.70
     Davidson diagonalization with overlap
     ethr =  1.51E-07,  avg # of iterations =  5.0

     negative rho (up, down):  8.968E-06 0.000E+00

     total cpu time spent up to now is       17.0 secs

     total energy              =     -34.18367546 Ry
     Harris-Foulkes estimate   =     -34.18367170 Ry
     estimated scf accuracy    <       0.00000047 Ry

     iteration #  4     ecut=    90.00 Ry     beta=0.70
     Davidson diagonalization with overlap
     ethr =  5.83E-09,  avg # of iterations =  4.0

     negative rho (up, down):  6.098E-08 0.000E+00

     total cpu time spent up to now is       17.2 secs

     total energy              =     -34.18367602 Ry
     Harris-Foulkes estimate   =     -34.18367563 Ry
     estimated scf accuracy    <          8.6E-09 Ry

     iteration #  5     ecut=    90.00 Ry     beta=0.70
     Davidson diagonalization with overlap
     ethr =  1.07E-10,  avg # of iterations =  3.0

     total cpu time spent up to now is       17.4 secs

     total energy              =     -34.18367616 Ry
     Harris-Foulkes estimate   =     -34.18367603 Ry
     estimated scf accuracy    <          4.5E-10 Ry

     iteration #  6     ecut=    90.00 Ry     beta=0.70
     Davidson diagonalization with overlap
     ethr =  5.65E-12,  avg # of iterations =  2.0

     total cpu time spent up to now is       17.5 secs

     End of self-consistent calculation

          k = 0.0000 0.0000 0.0000 (115313 PWs)   bands (ev):

   -25.1000 -12.7238  -9.1942  -7.0801  -0.9488   0.4249   0.7464   1.1311

     the Fermi energy is    -5.0865 ev

!    total energy              =     -34.18367616 Ry
     Harris-Foulkes estimate   =     -34.18367616 Ry
     estimated scf accuracy    <          1.5E-11 Ry

     The total energy is the sum of the following terms:

     one-electron contribution =     -63.64786138 Ry
     hartree contribution      =      33.24488279 Ry
     xc contribution           =      -8.35428701 Ry
     ewald contribution        =       4.57358945 Ry
     smearing contrib. (-TS)   =       0.00000000 Ry

     convergence has been achieved in   6 iterations

     Forces acting on atoms (Ry/au):

     atom    1 type  1   force =    -0.00053958   -0.00088766    0.00003757
     atom    2 type  1   force =     0.00054626   -0.00057059   -0.00017004
     atom    3 type  2   force =    -0.00000668    0.00145826    0.00013247

     Total force =     0.001969     Total SCF correction =     0.000011

     number of scf cycles    =   6
     number of bfgs steps    =   4

     energy   old            =     -34.1836464711 Ry
     energy   new            =     -34.1836761616 Ry

     CASE: energy  _new < energy  _old

     new trust radius        =       0.0015111041 bohr
     new conv_thr            =            1.0E-10 Ry


ATOMIC_POSITIONS (angstrom)
H        0.229356231  -0.410914912  -0.770261636
H        0.731473363   0.410135408   0.427740710
O       -0.080714594  -0.008712496   0.070716926



     Writing output data file pwscf.save
     Check: negative starting charge=   -0.016002
     NEW-OLD atomic charge density approx. for the potential
     Check: negative starting charge=   -0.016002

     negative rho (up, down):  1.748E-04 0.000E+00

     total cpu time spent up to now is       18.3 secs

     per-process dynamical memory:    45.8 Mb

     Self-consistent Calculation

     iteration #  1     ecut=    90.00 Ry     beta=0.70
     Davidson diagonalization with overlap
     ethr =  1.00E-06,  avg # of iterations =  3.0

     Threshold (ethr) on eigenvalues was too large:
     Diagonalizing with lowered threshold

     Davidson diagonalization with overlap
     ethr =  5.33E-09,  avg # of iterations =  2.0

     negative rho (up, down):  3.505E-05 0.000E+00

     total cpu time spent up to now is       18.6 secs

     total energy              =     -34.18367889 Ry
     Harris-Foulkes estimate   =     -34.18367656 Ry
     estimated scf accuracy    <       0.00000046 Ry

     iteration #  2     ecut=    90.00 Ry     beta=0.70
     Davidson diagonalization with overlap
     ethr =  5.80E-09,  avg # of iterations =  2.0

     negative rho (up, down):  8.776E-06 0.000E+00

     total cpu time spent up to now is       18.8 secs

     total energy              =     -34.18367934 Ry
     Harris-Foulkes estimate   =     -34.18367904 Ry
     estimated scf accuracy    <       0.00000009 Ry

     iteration #  3     ecut=    90.00 Ry     beta=0.70
     Davidson diagonalization with overlap
     ethr =  1.16E-09,  avg # of iterations =  2.0

     negative rho (up, down):  4.256E-07 0.000E+00

     total cpu time spent up to now is       19.0 secs

     total energy              =     -34.18367959 Ry
     Harris-Foulkes estimate   =     -34.18367938 Ry
     estimated scf accuracy    <       0.00000004 Ry

     iteration #  4     ecut=    90.00 Ry     beta=0.70
     Davidson diagonalization with overlap
     ethr =  4.67E-10,  avg # of iterations =  2.0

     total cpu time spent up to now is       19.2 secs

     total energy              =     -34.18367962 Ry
     Harris-Foulkes estimate   =     -34.18367960 Ry
     estimated scf accuracy    <          5.8E-10 Ry

     iteration #  5     ecut=    90.00 Ry     beta=0.70
     Davidson diagonalization with overlap
     ethr =  7.21E-12,  avg # of iterations =  2.0

     total cpu time spent up to now is       19.3 secs

     End of self-consistent calculation

          k = 0.0000 0.0000 0.0000 (115313 PWs)   bands (ev):

   -25.0990 -12.7204  -9.1959  -7.0800  -0.9494   0.4247   0.7462   1.1310

     the Fermi energy is    -5.0864 ev

!    total energy              =     -34.18367963 Ry
     Harris-Foulkes estimate   =     -34.18367962 Ry
     estimated scf accuracy    <          2.8E-11 Ry

     The total energy is the sum of the following terms:

     one-electron contribution =     -63.64437925 Ry
     hartree contribution      =      33.24316663 Ry
     xc contribution           =      -8.35401302 Ry
     ewald contribution        =       4.57154601 Ry
     smearing contrib. (-TS)   =       0.00000000 Ry

     convergence has been achieved in   5 iterations

     Forces acting on atoms (Ry/au):

     atom    1 type  1   force =    -0.00077659   -0.00057265    0.00031682
     atom    2 type  1   force =     0.00059808   -0.00040790   -0.00026931
     atom    3 type  2   force =     0.00017851    0.00098056   -0.00004751

     Total force =     0.001620     Total SCF correction =     0.000055

     bfgs converged in   7 scf cycles and   5 bfgs steps
     (criteria: energy <  1.0E-04, force <  1.0E-03)

     End of BFGS Geometry Optimization

     Final energy   =     -34.1836796336 Ry
Begin final coordinates

ATOMIC_POSITIONS (angstrom)
H        0.229356231  -0.410914912  -0.770261636
H        0.731473363   0.410135408   0.427740710
O       -0.080714594  -0.008712496   0.070716926
End final coordinates



     Writing output data file pwscf.save
 
     init_run     :      0.51s CPU      0.55s WALL (       1 calls)
     electrons    :     13.77s CPU     15.73s WALL (       7 calls)
     update_pot   :      1.50s CPU      1.85s WALL (       6 calls)
     forces       :      0.47s CPU      0.47s WALL (       7 calls)

     Called by init_run:
     wfcinit      :      0.03s CPU      0.04s WALL (       1 calls)
     potinit      :      0.11s CPU      0.12s WALL (       1 calls)

     Called by electrons:
     c_bands      :      4.93s CPU      4.99s WALL (      43 calls)
     sum_band     :      0.88s CPU      0.90s WALL (      43 calls)
     v_of_rho     :      2.55s CPU      2.73s WALL (      49 calls)
     mix_rho      :      4.68s CPU      5.75s WALL (      43 calls)

     Called by c_bands:
     init_us_2    :      0.02s CPU      0.03s WALL (      87 calls)
     cegterg      :      4.91s CPU      4.95s WALL (      43 calls)

     Called by sum_band:

     Called by *egterg:
     h_psi        :      4.12s CPU      4.15s WALL (     373 calls)
     g_psi        :      0.04s CPU      0.04s WALL (     329 calls)
     cdiaghg      :      0.09s CPU      0.09s WALL (     365 calls)

     Called by h_psi:
     h_psi:pot    :      4.08s CPU      4.11s WALL (     373 calls)
     h_psi:calbec :      0.06s CPU      0.06s WALL (     373 calls)
     vloc_psi     :      3.99s CPU      4.01s WALL (     373 calls)
     add_vuspsi   :      0.03s CPU      0.03s WALL (     373 calls)

     General routines
     calbec       :      0.06s CPU      0.06s WALL (     401 calls)
     fft          :      1.79s CPU      1.85s WALL (     554 calls)
     fftw         :      3.94s CPU      3.97s WALL (    3116 calls)
     davcio       :      0.11s CPU      0.76s WALL (     280 calls)
 
     Parallel routines
     fft_scatter  :      2.03s CPU      2.11s WALL (    3670 calls)
 
     PWSCF        :    16.75s CPU        19.80s WALL

 
   This run was terminated on:   2:19:40  28Jul2018            

=------------------------------------------------------------------------------=
   JOB DONE.
=------------------------------------------------------------------------------=
