
     Program PWSCF v.6.0 (svn rev. 13079) starts on 28Jul2018 at  2:36:23 

     This program is part of the open-source Quantum ESPRESSO suite
     for quantum simulation of materials; please cite
         "P. Giannozzi et al., J. Phys.:Condens. Matter 21 395502 (2009);
          URL http://www.quantum-espresso.org", 
     in publications or presentations arising from this work. More details at
     http://www.quantum-espresso.org/quote

     Parallel version (MPI), running on    28 processors
     R & G space division:  proc/nbgrp/npool/nimage =      28
     Reading input from ../QMCmins/relax-59.in

     Current dimensions of program PWSCF are:
     Max number of different atomic species (ntypx) = 10
     Max number of k-points (npk) =  40000
     Max angular momentum in pseudopotentials (lmaxx) =  3
     Message from routine iosys:
     pot_extrapolation='second-order' not available, using 'atomic'
     Message from routine iosys:
     wfc_extrapolation='second-order' not available, using 'atomic'

     Subspace diagonalization in iterative solution of the eigenvalue problem:
     a serial algorithm will be used

 
     Parallelization info
     --------------------
     sticks:   dense  smooth     PW     G-vecs:    dense   smooth      PW
     Min         408     408    102                32936    32936    4116
     Max         409     409    103                32943    32943    4121
     Sum       11449   11449   2869               922329   922329  115313
 


     bravais-lattice index     =            1
     lattice parameter (alat)  =      20.0000  a.u.
     unit-cell volume          =    8000.0000 (a.u.)^3
     number of atoms/cell      =            3
     number of atomic types    =            2
     number of electrons       =         8.00
     number of Kohn-Sham states=            8
     kinetic-energy cutoff     =      90.0000  Ry
     charge density cutoff     =     360.0000  Ry
     convergence threshold     =      1.0E-08
     mixing beta               =       0.7000
     number of iterations used =            8  plain     mixing
     Exchange-correlation      = BLYP ( 1  3  1  3 0 0)
     nstep                     =           50


     celldm(1)=  20.000000  celldm(2)=   0.000000  celldm(3)=   0.000000
     celldm(4)=   0.000000  celldm(5)=   0.000000  celldm(6)=   0.000000

     crystal axes: (cart. coord. in units of alat)
               a(1) = (   1.000000   0.000000   0.000000 )  
               a(2) = (   0.000000   1.000000   0.000000 )  
               a(3) = (   0.000000   0.000000   1.000000 )  

     reciprocal axes: (cart. coord. in units 2 pi/alat)
               b(1) = (  1.000000  0.000000  0.000000 )  
               b(2) = (  0.000000  1.000000  0.000000 )  
               b(3) = (  0.000000  0.000000  1.000000 )  


     PseudoPot. # 1 for  H read from file:
     ../H.blyp-hgh.UPF
     MD5 check sum: c576e69559cde411e611be972c763230
     Pseudo is Norm-conserving, Zval =  1.0
     Generated in analytical, separable form
     Using radial grid of  929 points,  0 beta functions with: 

     PseudoPot. # 2 for  O read from file:
     ../O.blyp-hgh.UPF
     MD5 check sum: d0b7156309aa9befef28faac7bc56342
     Pseudo is Norm-conserving, Zval =  6.0
     Generated in analytical, separable form
     Using radial grid of 1095 points,  1 beta functions with: 
                l(1) =   0

     atomic species   valence    mass     pseudopotential
        H              1.00     1.01000      H( 1.00)
        O              6.00    16.00000      O( 1.00)

     No symmetry found



   Cartesian axes

     site n.     atom                  positions (alat units)
         1           H   tau(   1) = (  -0.0360407  -0.0457403  -0.0534202  )
         2           H   tau(   2) = (   0.0081491   0.0945973  -0.0076612  )
         3           O   tau(   3) = (   0.0017607  -0.0030841   0.0094338  )

     number of k points=     1  Marzari-Vanderbilt smearing, width (Ry)=  0.0250
                       cart. coord. in units 2pi/alat
        k(    1) = (   0.0000000   0.0000000   0.0000000), wk =   2.0000000

     Dense  grid:   922329 G-vectors     FFT dimensions: ( 125, 125, 125)

     Estimated max dynamical RAM per process >      31.67Mb

     Estimated total allocated dynamical RAM >     886.64Mb

     Initial potential from superposition of free atoms
     Check: negative starting charge=   -0.015902

     starting charge    7.99998, renormalised to    8.00000

     negative rho (up, down):  1.590E-02 0.000E+00
     Starting wfc are    6 randomized atomic wfcs +    2 random wfc

     total cpu time spent up to now is        0.7 secs

     per-process dynamical memory:    33.5 Mb

     Self-consistent Calculation

     iteration #  1     ecut=    90.00 Ry     beta=0.70
     Davidson diagonalization with overlap
     ethr =  1.00E-02,  avg # of iterations =  8.0

     negative rho (up, down):  4.625E-03 0.000E+00

     total cpu time spent up to now is        1.2 secs

     total energy              =     -33.99169847 Ry
     Harris-Foulkes estimate   =     -34.25494880 Ry
     estimated scf accuracy    <       0.39106359 Ry

     iteration #  2     ecut=    90.00 Ry     beta=0.70
     Davidson diagonalization with overlap
     ethr =  4.89E-03,  avg # of iterations =  2.0

     negative rho (up, down):  2.813E-03 0.000E+00

     total cpu time spent up to now is        1.3 secs

     total energy              =     -34.05610488 Ry
     Harris-Foulkes estimate   =     -34.26273306 Ry
     estimated scf accuracy    <       0.44651070 Ry

     iteration #  3     ecut=    90.00 Ry     beta=0.70
     Davidson diagonalization with overlap
     ethr =  4.89E-03,  avg # of iterations =  2.0

     negative rho (up, down):  1.933E-04 0.000E+00

     total cpu time spent up to now is        1.5 secs

     total energy              =     -34.15489844 Ry
     Harris-Foulkes estimate   =     -34.15592292 Ry
     estimated scf accuracy    <       0.00618726 Ry

     iteration #  4     ecut=    90.00 Ry     beta=0.70
     Davidson diagonalization with overlap
     ethr =  7.73E-05,  avg # of iterations =  5.0

     negative rho (up, down):  4.373E-06 0.000E+00

     total cpu time spent up to now is        1.8 secs

     total energy              =     -34.15665800 Ry
     Harris-Foulkes estimate   =     -34.15682290 Ry
     estimated scf accuracy    <       0.00041765 Ry

     iteration #  5     ecut=    90.00 Ry     beta=0.70
     Davidson diagonalization with overlap
     c_bands:  1 eigenvalues not converged
     ethr =  5.22E-06,  avg # of iterations = 20.0

     negative rho (up, down):  1.976E-06 0.000E+00

     total cpu time spent up to now is        2.1 secs

     total energy              =     -34.15668360 Ry
     Harris-Foulkes estimate   =     -34.15669196 Ry
     estimated scf accuracy    <       0.00002759 Ry

     iteration #  6     ecut=    90.00 Ry     beta=0.70
     Davidson diagonalization with overlap
     ethr =  3.45E-07,  avg # of iterations = 10.0

     negative rho (up, down):  2.804E-07 0.000E+00

     total cpu time spent up to now is        2.3 secs

     total energy              =     -34.15668713 Ry
     Harris-Foulkes estimate   =     -34.15668771 Ry
     estimated scf accuracy    <       0.00000056 Ry

     iteration #  7     ecut=    90.00 Ry     beta=0.70
     Davidson diagonalization with overlap
     ethr =  6.96E-09,  avg # of iterations =  2.0

     total cpu time spent up to now is        2.6 secs

     total energy              =     -34.15668719 Ry
     Harris-Foulkes estimate   =     -34.15668728 Ry
     estimated scf accuracy    <       0.00000003 Ry

     iteration #  8     ecut=    90.00 Ry     beta=0.70
     Davidson diagonalization with overlap
     ethr =  4.30E-10,  avg # of iterations =  2.0

     total cpu time spent up to now is        2.7 secs

     End of self-consistent calculation

          k = 0.0000 0.0000 0.0000 (115313 PWs)   bands (ev):

   -25.1275 -13.2319  -8.7065  -7.0488  -0.9879   0.3785   0.7578   1.1225

     the Fermi energy is    -5.0999 ev

!    total energy              =     -34.15668703 Ry
     Harris-Foulkes estimate   =     -34.15668720 Ry
     estimated scf accuracy    <          7.6E-09 Ry

     The total energy is the sum of the following terms:

     one-electron contribution =     -63.84148070 Ry
     hartree contribution      =      33.35395210 Ry
     xc contribution           =      -8.37483628 Ry
     ewald contribution        =       4.70567785 Ry
     smearing contrib. (-TS)   =       0.00000000 Ry

     convergence has been achieved in   8 iterations

     Forces acting on atoms (Ry/au):

     atom    1 type  1   force =    -0.09189734   -0.07484933   -0.16187260
     atom    2 type  1   force =    -0.01872634   -0.11862155   -0.00147005
     atom    3 type  2   force =     0.11062368    0.19347088    0.16334265

     Total force =     0.361972     Total SCF correction =     0.000162

     BFGS Geometry Optimization

     number of scf cycles    =   1
     number of bfgs steps    =   0

     energy   new            =     -34.1566870332 Ry

     new trust radius        =       0.2763139490 bohr
     new conv_thr            =       0.0000000100 Ry


ATOMIC_POSITIONS (angstrom)
H       -0.430067978  -0.523702560  -0.651034289
H        0.076336450   0.938403181  -0.081860917
O        0.077173528   0.069739379   0.186280206



     Writing output data file pwscf.save
     Check: negative starting charge=   -0.015902
     NEW-OLD atomic charge density approx. for the potential
     Check: negative starting charge=   -0.015898

     negative rho (up, down):  2.845E-02 0.000E+00

     total cpu time spent up to now is        3.4 secs

     per-process dynamical memory:    45.8 Mb

     Self-consistent Calculation

     iteration #  1     ecut=    90.00 Ry     beta=0.70
     Davidson diagonalization with overlap
     c_bands:  3 eigenvalues not converged
     ethr =  1.00E-06,  avg # of iterations = 20.0

     negative rho (up, down):  7.219E-03 0.000E+00

     total cpu time spent up to now is        4.0 secs

     total energy              =     -34.13284955 Ry
     Harris-Foulkes estimate   =     -34.10094876 Ry
     estimated scf accuracy    <       0.02742159 Ry

     iteration #  2     ecut=    90.00 Ry     beta=0.70
     Davidson diagonalization with overlap
     ethr =  3.43E-04,  avg # of iterations =  4.0

     negative rho (up, down):  2.789E-03 0.000E+00

     total cpu time spent up to now is        4.2 secs

     total energy              =     -34.13243702 Ry
     Harris-Foulkes estimate   =     -34.14062347 Ry
     estimated scf accuracy    <       0.00255816 Ry

     iteration #  3     ecut=    90.00 Ry     beta=0.70
     Davidson diagonalization with overlap
     ethr =  3.20E-05,  avg # of iterations = 12.0

     negative rho (up, down):  1.056E-03 0.000E+00

     total cpu time spent up to now is        4.5 secs

     total energy              =     -34.13371319 Ry
     Harris-Foulkes estimate   =     -34.13335079 Ry
     estimated scf accuracy    <       0.00047432 Ry

     iteration #  4     ecut=    90.00 Ry     beta=0.70
     Davidson diagonalization with overlap
     ethr =  5.93E-06,  avg # of iterations = 16.0

     negative rho (up, down):  4.708E-05 0.000E+00

     total cpu time spent up to now is        4.9 secs

     total energy              =     -34.13797245 Ry
     Harris-Foulkes estimate   =     -34.13800142 Ry
     estimated scf accuracy    <       0.00012898 Ry

     iteration #  5     ecut=    90.00 Ry     beta=0.70
     Davidson diagonalization with overlap
     c_bands:  1 eigenvalues not converged
     ethr =  1.61E-06,  avg # of iterations = 20.0

     negative rho (up, down):  9.892E-07 0.000E+00

     total cpu time spent up to now is        5.2 secs

     total energy              =     -34.13800034 Ry
     Harris-Foulkes estimate   =     -34.13800119 Ry
     estimated scf accuracy    <       0.00000092 Ry

     iteration #  6     ecut=    90.00 Ry     beta=0.70
     Davidson diagonalization with overlap
     ethr =  1.14E-08,  avg # of iterations =  4.0

     negative rho (up, down):  7.125E-08 0.000E+00

     total cpu time spent up to now is        5.4 secs

     total energy              =     -34.13800062 Ry
     Harris-Foulkes estimate   =     -34.13800066 Ry
     estimated scf accuracy    <       0.00000003 Ry

     iteration #  7     ecut=    90.00 Ry     beta=0.70
     Davidson diagonalization with overlap
     ethr =  3.17E-10,  avg # of iterations =  2.0

     total cpu time spent up to now is        5.5 secs

     End of self-consistent calculation

          k = 0.0000 0.0000 0.0000 (115313 PWs)   bands (ev):

   -24.8532 -12.4541  -8.9639  -6.9981  -1.3078   0.2427   0.7058   1.1105

     the Fermi energy is    -5.0403 ev

!    total energy              =     -34.13800061 Ry
     Harris-Foulkes estimate   =     -34.13800062 Ry
     estimated scf accuracy    <          1.4E-09 Ry

     The total energy is the sum of the following terms:

     one-electron contribution =     -62.81611508 Ry
     hartree contribution      =      32.85328688 Ry
     xc contribution           =      -8.29871690 Ry
     ewald contribution        =       4.12354449 Ry
     smearing contrib. (-TS)   =       0.00000000 Ry

     convergence has been achieved in   7 iterations

     Forces acting on atoms (Ry/au):

     atom    1 type  1   force =     0.07719145    0.10320341    0.12696817
     atom    2 type  1   force =    -0.00806509    0.16169742   -0.06244948
     atom    3 type  2   force =    -0.06912636   -0.26490082   -0.06451869

     Total force =     0.376769     Total SCF correction =     0.000100

     number of scf cycles    =   2
     number of bfgs steps    =   1

     energy   old            =     -34.1566870332 Ry
     energy   new            =     -34.1380006098 Ry

     CASE: energy  _new > energy  _old

     new trust radius        =       0.1209125718 bohr
     new conv_thr            =       0.0000000100 Ry


ATOMIC_POSITIONS (angstrom)
H       -0.402718054  -0.501426360  -0.602858757
H        0.081909667   0.973706600  -0.081423410
O        0.044250387   0.012159760   0.137667167



     Writing output data file pwscf.save
     Check: negative starting charge=   -0.015898
     NEW-OLD atomic charge density approx. for the potential
     Check: negative starting charge=   -0.015927

     negative rho (up, down):  2.508E-02 0.000E+00

     total cpu time spent up to now is        6.1 secs

     per-process dynamical memory:    45.8 Mb

     Self-consistent Calculation

     iteration #  1     ecut=    90.00 Ry     beta=0.70
     Davidson diagonalization with overlap
     c_bands:  1 eigenvalues not converged
     ethr =  1.00E-06,  avg # of iterations = 20.0

     negative rho (up, down):  6.653E-03 0.000E+00

     total cpu time spent up to now is        6.6 secs

     total energy              =     -34.15962555 Ry
     Harris-Foulkes estimate   =     -34.18990208 Ry
     estimated scf accuracy    <       0.01125041 Ry

     iteration #  2     ecut=    90.00 Ry     beta=0.70
     Davidson diagonalization with overlap
     ethr =  1.41E-04,  avg # of iterations =  4.0

     negative rho (up, down):  4.144E-03 0.000E+00

     total cpu time spent up to now is        6.9 secs

     total energy              =     -34.16966239 Ry
     Harris-Foulkes estimate   =     -34.17131798 Ry
     estimated scf accuracy    <       0.01172305 Ry

     iteration #  3     ecut=    90.00 Ry     beta=0.70
     Davidson diagonalization with overlap
     ethr =  1.41E-04,  avg # of iterations =  3.0

     negative rho (up, down):  1.264E-03 0.000E+00

     total cpu time spent up to now is        7.1 secs

     total energy              =     -34.17559473 Ry
     Harris-Foulkes estimate   =     -34.17203369 Ry
     estimated scf accuracy    <       0.00015013 Ry

     iteration #  4     ecut=    90.00 Ry     beta=0.70
     Davidson diagonalization with overlap
     c_bands:  1 eigenvalues not converged
     ethr =  1.88E-06,  avg # of iterations = 20.0

     negative rho (up, down):  3.542E-05 0.000E+00

     total cpu time spent up to now is        7.4 secs

     total energy              =     -34.17986477 Ry
     Harris-Foulkes estimate   =     -34.17973219 Ry
     estimated scf accuracy    <       0.00001233 Ry

     iteration #  5     ecut=    90.00 Ry     beta=0.70
     Davidson diagonalization with overlap
     ethr =  1.54E-07,  avg # of iterations =  6.0

     negative rho (up, down):  3.771E-07 0.000E+00

     total cpu time spent up to now is        7.7 secs

     total energy              =     -34.17986787 Ry
     Harris-Foulkes estimate   =     -34.17986848 Ry
     estimated scf accuracy    <       0.00000039 Ry

     iteration #  6     ecut=    90.00 Ry     beta=0.70
     Davidson diagonalization with overlap
     ethr =  4.81E-09,  avg # of iterations =  2.0

     total cpu time spent up to now is        7.8 secs

     End of self-consistent calculation

          k = 0.0000 0.0000 0.0000 (115313 PWs)   bands (ev):

   -24.8211 -12.9255  -8.8037  -7.0128  -0.9908   0.4129   0.6979   1.1194

     the Fermi energy is    -5.0256 ev

!    total energy              =     -34.17986777 Ry
     Harris-Foulkes estimate   =     -34.17986795 Ry
     estimated scf accuracy    <          7.8E-09 Ry

     The total energy is the sum of the following terms:

     one-electron contribution =     -63.27314865 Ry
     hartree contribution      =      33.07898070 Ry
     xc contribution           =      -8.32680324 Ry
     ewald contribution        =       4.34110342 Ry
     smearing contrib. (-TS)   =       0.00000000 Ry

     convergence has been achieved in   6 iterations

     Forces acting on atoms (Ry/au):

     atom    1 type  1   force =     0.01973385    0.04289114    0.02682243
     atom    2 type  1   force =    -0.01035560   -0.02098281   -0.01415687
     atom    3 type  2   force =    -0.00937825   -0.02190833   -0.01266556

     Total force =     0.066519     Total SCF correction =     0.000321

     number of scf cycles    =   3
     number of bfgs steps    =   1

     energy   old            =     -34.1566870332 Ry
     energy   new            =     -34.1798677717 Ry

     CASE: energy  _new < energy  _old

     new trust radius        =       0.0372909239 bohr
     new conv_thr            =       0.0000000043 Ry


ATOMIC_POSITIONS (angstrom)
H       -0.396812097  -0.483795076  -0.596250519
H        0.076240006   0.959121122  -0.088247825
O        0.044014091   0.009113955   0.137883344



     Writing output data file pwscf.save
     Check: negative starting charge=   -0.015927
     NEW-OLD atomic charge density approx. for the potential
     Check: negative starting charge=   -0.015954

     negative rho (up, down):  9.010E-04 0.000E+00

     total cpu time spent up to now is        8.5 secs

     per-process dynamical memory:    45.8 Mb

     Self-consistent Calculation

     iteration #  1     ecut=    90.00 Ry     beta=0.70
     Davidson diagonalization with overlap
     ethr =  1.00E-06,  avg # of iterations =  6.0

     negative rho (up, down):  2.167E-04 0.000E+00

     total cpu time spent up to now is        8.9 secs

     total energy              =     -34.18188409 Ry
     Harris-Foulkes estimate   =     -34.18207188 Ry
     estimated scf accuracy    <       0.00038320 Ry

     iteration #  2     ecut=    90.00 Ry     beta=0.70
     Davidson diagonalization with overlap
     ethr =  4.79E-06,  avg # of iterations =  2.0

     negative rho (up, down):  1.233E-04 0.000E+00

     total cpu time spent up to now is        9.1 secs

     total energy              =     -34.18195442 Ry
     Harris-Foulkes estimate   =     -34.18211758 Ry
     estimated scf accuracy    <       0.00033777 Ry

     iteration #  3     ecut=    90.00 Ry     beta=0.70
     Davidson diagonalization with overlap
     ethr =  4.22E-06,  avg # of iterations =  2.0

     negative rho (up, down):  1.045E-05 0.000E+00

     total cpu time spent up to now is        9.3 secs

     total energy              =     -34.18203288 Ry
     Harris-Foulkes estimate   =     -34.18203086 Ry
     estimated scf accuracy    <       0.00000590 Ry

     iteration #  4     ecut=    90.00 Ry     beta=0.70
     Davidson diagonalization with overlap
     ethr =  7.37E-08,  avg # of iterations =  3.0

     negative rho (up, down):  2.842E-07 0.000E+00

     total cpu time spent up to now is        9.5 secs

     total energy              =     -34.18203494 Ry
     Harris-Foulkes estimate   =     -34.18203428 Ry
     estimated scf accuracy    <       0.00000010 Ry

     iteration #  5     ecut=    90.00 Ry     beta=0.70
     Davidson diagonalization with overlap
     ethr =  1.20E-09,  avg # of iterations =  2.0

     total cpu time spent up to now is        9.7 secs

     total energy              =     -34.18203514 Ry
     Harris-Foulkes estimate   =     -34.18203496 Ry
     estimated scf accuracy    <          5.0E-09 Ry

     iteration #  6     ecut=    90.00 Ry     beta=0.70
     Davidson diagonalization with overlap
     ethr =  6.25E-11,  avg # of iterations =  2.0

     total cpu time spent up to now is        9.8 secs

     End of self-consistent calculation

          k = 0.0000 0.0000 0.0000 (115313 PWs)   bands (ev):

   -24.9850 -12.9959  -8.8938  -7.0467  -0.9445   0.4280   0.7334   1.1205

     the Fermi energy is    -5.0657 ev

!    total energy              =     -34.18203519 Ry
     Harris-Foulkes estimate   =     -34.18203514 Ry
     estimated scf accuracy    <          2.8E-10 Ry

     The total energy is the sum of the following terms:

     one-electron contribution =     -63.59370239 Ry
     hartree contribution      =      33.22889101 Ry
     xc contribution           =      -8.35138389 Ry
     ewald contribution        =       4.53416008 Ry
     smearing contrib. (-TS)   =       0.00000000 Ry

     convergence has been achieved in   6 iterations

     Forces acting on atoms (Ry/au):

     atom    1 type  1   force =     0.00652099    0.02281399    0.00648024
     atom    2 type  1   force =    -0.00732876   -0.00142954   -0.01398657
     atom    3 type  2   force =     0.00080777   -0.02138445    0.00750634

     Total force =     0.037022     Total SCF correction =     0.000076

     number of scf cycles    =   4
     number of bfgs steps    =   2

     energy   old            =     -34.1798677717 Ry
     energy   new            =     -34.1820351934 Ry

     CASE: energy  _new < energy  _old

     new trust radius        =       0.0545885043 bohr
     new conv_thr            =       0.0000000022 Ry


ATOMIC_POSITIONS (angstrom)
H       -0.390725932  -0.455853509  -0.592165698
H        0.065854938   0.946815929  -0.105013827
O        0.048312994  -0.006522419   0.150564525



     Writing output data file pwscf.save
     Check: negative starting charge=   -0.015954
     NEW-OLD atomic charge density approx. for the potential
     Check: negative starting charge=   -0.015997

     negative rho (up, down):  7.056E-03 0.000E+00

     total cpu time spent up to now is       10.6 secs

     per-process dynamical memory:    45.8 Mb

     Self-consistent Calculation

     iteration #  1     ecut=    90.00 Ry     beta=0.70
     Davidson diagonalization with overlap
     c_bands:  1 eigenvalues not converged
     ethr =  1.00E-06,  avg # of iterations = 20.0

     negative rho (up, down):  1.825E-03 0.000E+00

     total cpu time spent up to now is       11.4 secs

     total energy              =     -34.17864837 Ry
     Harris-Foulkes estimate   =     -34.17119653 Ry
     estimated scf accuracy    <       0.00031726 Ry

     iteration #  2     ecut=    90.00 Ry     beta=0.70
     Davidson diagonalization with overlap
     ethr =  3.97E-06,  avg # of iterations = 14.0

     negative rho (up, down):  3.897E-04 0.000E+00

     total cpu time spent up to now is       11.7 secs

     total energy              =     -34.17924016 Ry
     Harris-Foulkes estimate   =     -34.17870903 Ry
     estimated scf accuracy    <       0.00001996 Ry

     iteration #  3     ecut=    90.00 Ry     beta=0.70
     Davidson diagonalization with overlap
     c_bands:  1 eigenvalues not converged
     ethr =  2.50E-07,  avg # of iterations = 20.0

     negative rho (up, down):  1.943E-05 0.000E+00

     total cpu time spent up to now is       12.0 secs

     total energy              =     -34.18333016 Ry
     Harris-Foulkes estimate   =     -34.18332351 Ry
     estimated scf accuracy    <       0.00000157 Ry

     iteration #  4     ecut=    90.00 Ry     beta=0.70
     Davidson diagonalization with overlap
     c_bands:  1 eigenvalues not converged
     ethr =  1.96E-08,  avg # of iterations = 20.0

     negative rho (up, down):  2.070E-06 0.000E+00

     total cpu time spent up to now is       12.3 secs

     total energy              =     -34.18333068 Ry
     Harris-Foulkes estimate   =     -34.18333073 Ry
     estimated scf accuracy    <       0.00000037 Ry

     iteration #  5     ecut=    90.00 Ry     beta=0.70
     Davidson diagonalization with overlap
     ethr =  4.65E-09,  avg # of iterations = 11.0

     total cpu time spent up to now is       12.6 secs

     total energy              =     -34.18333072 Ry
     Harris-Foulkes estimate   =     -34.18333079 Ry
     estimated scf accuracy    <       0.00000002 Ry

     iteration #  6     ecut=    90.00 Ry     beta=0.70
     Davidson diagonalization with overlap
     ethr =  2.80E-10,  avg # of iterations =  2.0

     total cpu time spent up to now is       12.8 secs

     End of self-consistent calculation

          k = 0.0000 0.0000 0.0000 (115313 PWs)   bands (ev):

   -25.0856 -12.8260  -9.1077  -7.0730  -0.9417   0.4277   0.7494   1.1190

     the Fermi energy is    -5.0920 ev

!    total energy              =     -34.18333077 Ry
     Harris-Foulkes estimate   =     -34.18333072 Ry
     estimated scf accuracy    <          2.0E-10 Ry

     The total energy is the sum of the following terms:

     one-electron contribution =     -63.67636950 Ry
     hartree contribution      =      33.26135507 Ry
     xc contribution           =      -8.35692209 Ry
     ewald contribution        =       4.58860575 Ry
     smearing contrib. (-TS)   =       0.00000000 Ry

     convergence has been achieved in   6 iterations

     Forces acting on atoms (Ry/au):

     atom    1 type  1   force =    -0.00704397   -0.00308420   -0.01225063
     atom    2 type  1   force =    -0.00199515   -0.01337247    0.00091256
     atom    3 type  2   force =     0.00903913    0.01645666    0.01133807

     Total force =     0.029562     Total SCF correction =     0.000093

     number of scf cycles    =   5
     number of bfgs steps    =   3

     energy   old            =     -34.1820351934 Ry
     energy   new            =     -34.1833307656 Ry

     CASE: energy  _new < energy  _old

     new trust radius        =       0.0128232736 bohr
     new conv_thr            =       0.0000000013 Ry


ATOMIC_POSITIONS (angstrom)
H       -0.391262206  -0.451699789  -0.593978098
H        0.063796791   0.940596905  -0.106784319
O        0.050907414  -0.004457116   0.154147417



     Writing output data file pwscf.save
     Check: negative starting charge=   -0.015997
     NEW-OLD atomic charge density approx. for the potential
     Check: negative starting charge=   -0.016006

     negative rho (up, down):  1.476E-03 0.000E+00

     total cpu time spent up to now is       13.3 secs

     per-process dynamical memory:    45.8 Mb

     Self-consistent Calculation

     iteration #  1     ecut=    90.00 Ry     beta=0.70
     Davidson diagonalization with overlap
     ethr =  1.00E-06,  avg # of iterations = 13.0

     negative rho (up, down):  3.717E-04 0.000E+00

     total cpu time spent up to now is       13.8 secs

     total energy              =     -34.17946069 Ry
     Harris-Foulkes estimate   =     -34.17926868 Ry
     estimated scf accuracy    <       0.00002806 Ry

     iteration #  2     ecut=    90.00 Ry     beta=0.70
     Davidson diagonalization with overlap
     ethr =  3.51E-07,  avg # of iterations = 13.0

     negative rho (up, down):  1.039E-04 0.000E+00

     total cpu time spent up to now is       14.0 secs

     total energy              =     -34.18354839 Ry
     Harris-Foulkes estimate   =     -34.18354533 Ry
     estimated scf accuracy    <       0.00000186 Ry

     iteration #  3     ecut=    90.00 Ry     beta=0.70
     Davidson diagonalization with overlap
     ethr =  2.32E-08,  avg # of iterations =  4.0

     negative rho (up, down):  1.199E-05 0.000E+00

     total cpu time spent up to now is       14.2 secs

     total energy              =     -34.18355094 Ry
     Harris-Foulkes estimate   =     -34.18354895 Ry
     estimated scf accuracy    <       0.00000028 Ry

     iteration #  4     ecut=    90.00 Ry     beta=0.70
     Davidson diagonalization with overlap
     ethr =  3.53E-09,  avg # of iterations =  3.0

     negative rho (up, down):  2.430E-07 0.000E+00

     total cpu time spent up to now is       14.5 secs

     total energy              =     -34.18355118 Ry
     Harris-Foulkes estimate   =     -34.18355108 Ry
     estimated scf accuracy    <       0.00000013 Ry

     iteration #  5     ecut=    90.00 Ry     beta=0.70
     Davidson diagonalization with overlap
     ethr =  1.65E-09,  avg # of iterations =  2.0

     total cpu time spent up to now is       14.6 secs

     End of self-consistent calculation

          k = 0.0000 0.0000 0.0000 (115313 PWs)   bands (ev):

   -25.1096 -12.7991  -9.1479  -7.0788  -0.9395   0.4287   0.7539   1.1189

     the Fermi energy is    -5.0981 ev

!    total energy              =     -34.18355132 Ry
     Harris-Foulkes estimate   =     -34.18355121 Ry
     estimated scf accuracy    <          7.7E-10 Ry

     The total energy is the sum of the following terms:

     one-electron contribution =     -63.70395190 Ry
     hartree contribution      =      33.27332127 Ry
     xc contribution           =      -8.35884515 Ry
     ewald contribution        =       4.60592446 Ry
     smearing contrib. (-TS)   =       0.00000000 Ry

     convergence has been achieved in   5 iterations

     Forces acting on atoms (Ry/au):

     atom    1 type  1   force =    -0.00288931   -0.00129213   -0.00455311
     atom    2 type  1   force =    -0.00054050    0.00003789   -0.00036484
     atom    3 type  2   force =     0.00342981    0.00125423    0.00491796

     Total force =     0.008288     Total SCF correction =     0.000313

     number of scf cycles    =   6
     number of bfgs steps    =   4

     energy   old            =     -34.1833307656 Ry
     energy   new            =     -34.1835513235 Ry

     CASE: energy  _new < energy  _old

     new trust radius        =       0.0046367111 bohr
     new conv_thr            =       0.0000000002 Ry


ATOMIC_POSITIONS (angstrom)
H       -0.392076181  -0.450702762  -0.595325732
H        0.063157385   0.939985976  -0.107375490
O        0.052360796  -0.004843215   0.156086223



     Writing output data file pwscf.save
     Check: negative starting charge=   -0.016006
     NEW-OLD atomic charge density approx. for the potential
     Check: negative starting charge=   -0.016008

     negative rho (up, down):  6.690E-04 0.000E+00

     total cpu time spent up to now is       15.4 secs

     per-process dynamical memory:    45.8 Mb

     Self-consistent Calculation

     iteration #  1     ecut=    90.00 Ry     beta=0.70
     Davidson diagonalization with overlap
     ethr =  1.00E-06,  avg # of iterations =  4.0

     negative rho (up, down):  1.606E-04 0.000E+00

     total cpu time spent up to now is       16.6 secs

     total energy              =     -34.18356690 Ry
     Harris-Foulkes estimate   =     -34.18356638 Ry
     estimated scf accuracy    <       0.00001114 Ry

     iteration #  2     ecut=    90.00 Ry     beta=0.70
     Davidson diagonalization with overlap
     ethr =  1.39E-07,  avg # of iterations =  3.0

     negative rho (up, down):  9.307E-05 0.000E+00

     total cpu time spent up to now is       16.8 secs

     total energy              =     -34.18356995 Ry
     Harris-Foulkes estimate   =     -34.18357490 Ry
     estimated scf accuracy    <       0.00001123 Ry

     iteration #  3     ecut=    90.00 Ry     beta=0.70
     Davidson diagonalization with overlap
     ethr =  1.39E-07,  avg # of iterations =  2.0

     negative rho (up, down):  6.878E-06 0.000E+00

     total cpu time spent up to now is       17.0 secs

     total energy              =     -34.18357438 Ry
     Harris-Foulkes estimate   =     -34.18357231 Ry
     estimated scf accuracy    <       0.00000010 Ry

     iteration #  4     ecut=    90.00 Ry     beta=0.70
     Davidson diagonalization with overlap
     ethr =  1.26E-09,  avg # of iterations =  3.0

     negative rho (up, down):  2.540E-07 0.000E+00

     total cpu time spent up to now is       17.2 secs

     total energy              =     -34.18357460 Ry
     Harris-Foulkes estimate   =     -34.18357445 Ry
     estimated scf accuracy    <          5.3E-09 Ry

     iteration #  5     ecut=    90.00 Ry     beta=0.70
     Davidson diagonalization with overlap
     ethr =  6.59E-11,  avg # of iterations =  2.0

     total cpu time spent up to now is       17.4 secs

     total energy              =     -34.18357469 Ry
     Harris-Foulkes estimate   =     -34.18357460 Ry
     estimated scf accuracy    <          2.5E-10 Ry

     iteration #  6     ecut=    90.00 Ry     beta=0.70
     Davidson diagonalization with overlap
     ethr =  3.14E-12,  avg # of iterations =  2.0

     total cpu time spent up to now is       17.6 secs

     End of self-consistent calculation

          k = 0.0000 0.0000 0.0000 (115313 PWs)   bands (ev):

   -25.0979 -12.7666  -9.1631  -7.0772  -0.9453   0.4264   0.7508   1.1183

     the Fermi energy is    -5.0956 ev

!    total energy              =     -34.18357471 Ry
     Harris-Foulkes estimate   =     -34.18357469 Ry
     estimated scf accuracy    <          7.0E-12 Ry

     The total energy is the sum of the following terms:

     one-electron contribution =     -63.66723481 Ry
     hartree contribution      =      33.25519792 Ry
     xc contribution           =      -8.35586545 Ry
     ewald contribution        =       4.58432763 Ry
     smearing contrib. (-TS)   =       0.00000000 Ry

     convergence has been achieved in   6 iterations

     Forces acting on atoms (Ry/au):

     atom    1 type  1   force =    -0.00049892    0.00031816   -0.00022754
     atom    2 type  1   force =    -0.00020264   -0.00015738    0.00039232
     atom    3 type  2   force =     0.00070156   -0.00016078   -0.00016479

     Total force =     0.001080     Total SCF correction =     0.000016

     bfgs converged in   7 scf cycles and   5 bfgs steps
     (criteria: energy <  1.0E-04, force <  1.0E-03)

     End of BFGS Geometry Optimization

     Final energy   =     -34.1835747142 Ry
Begin final coordinates

ATOMIC_POSITIONS (angstrom)
H       -0.392076181  -0.450702762  -0.595325732
H        0.063157385   0.939985976  -0.107375490
O        0.052360796  -0.004843215   0.156086223
End final coordinates



     Writing output data file pwscf.save
 
     init_run     :      0.51s CPU      0.55s WALL (       1 calls)
     electrons    :     12.00s CPU     14.11s WALL (       7 calls)
     update_pot   :      1.45s CPU      1.73s WALL (       6 calls)
     forces       :      0.50s CPU      0.63s WALL (       7 calls)

     Called by init_run:
     wfcinit      :      0.03s CPU      0.04s WALL (       1 calls)
     potinit      :      0.11s CPU      0.11s WALL (       1 calls)

     Called by electrons:
     c_bands      :      5.38s CPU      5.45s WALL (      44 calls)
     sum_band     :      0.90s CPU      0.97s WALL (      44 calls)
     v_of_rho     :      2.61s CPU      2.69s WALL (      51 calls)
     mix_rho      :      0.94s CPU      1.86s WALL (      44 calls)

     Called by c_bands:
     init_us_2    :      0.02s CPU      0.03s WALL (      89 calls)
     cegterg      :      5.35s CPU      5.41s WALL (      44 calls)

     Called by sum_band:

     Called by *egterg:
     h_psi        :      4.54s CPU      4.58s WALL (     384 calls)
     g_psi        :      0.04s CPU      0.05s WALL (     339 calls)
     cdiaghg      :      0.09s CPU      0.09s WALL (     377 calls)

     Called by h_psi:
     h_psi:pot    :      4.49s CPU      4.53s WALL (     384 calls)
     h_psi:calbec :      0.06s CPU      0.06s WALL (     384 calls)
     vloc_psi     :      4.40s CPU      4.44s WALL (     384 calls)
     add_vuspsi   :      0.03s CPU      0.03s WALL (     384 calls)

     General routines
     calbec       :      0.06s CPU      0.06s WALL (     412 calls)
     fft          :      1.87s CPU      2.02s WALL (     574 calls)
     fftw         :      4.30s CPU      4.39s WALL (    3386 calls)
     davcio       :      0.10s CPU      0.82s WALL (     306 calls)
 
     Parallel routines
     fft_scatter  :      2.17s CPU      2.37s WALL (    3960 calls)
 
     PWSCF        :    15.02s CPU        18.10s WALL

 
   This run was terminated on:   2:36:41  28Jul2018            

=------------------------------------------------------------------------------=
   JOB DONE.
=------------------------------------------------------------------------------=
