
     Program PWSCF v.6.0 (svn rev. 13079) starts on 28Jul2018 at  2:16:24 

     This program is part of the open-source Quantum ESPRESSO suite
     for quantum simulation of materials; please cite
         "P. Giannozzi et al., J. Phys.:Condens. Matter 21 395502 (2009);
          URL http://www.quantum-espresso.org", 
     in publications or presentations arising from this work. More details at
     http://www.quantum-espresso.org/quote

     Parallel version (MPI), running on    28 processors
     R & G space division:  proc/nbgrp/npool/nimage =      28
     Reading input from ../QMCmins/relax-11.in

     Current dimensions of program PWSCF are:
     Max number of different atomic species (ntypx) = 10
     Max number of k-points (npk) =  40000
     Max angular momentum in pseudopotentials (lmaxx) =  3
     Message from routine iosys:
     pot_extrapolation='second-order' not available, using 'atomic'
     Message from routine iosys:
     wfc_extrapolation='second-order' not available, using 'atomic'

     Subspace diagonalization in iterative solution of the eigenvalue problem:
     a serial algorithm will be used

 
     Parallelization info
     --------------------
     sticks:   dense  smooth     PW     G-vecs:    dense   smooth      PW
     Min         408     408    102                32936    32936    4116
     Max         409     409    103                32943    32943    4121
     Sum       11449   11449   2869               922329   922329  115313
 


     bravais-lattice index     =            1
     lattice parameter (alat)  =      20.0000  a.u.
     unit-cell volume          =    8000.0000 (a.u.)^3
     number of atoms/cell      =            3
     number of atomic types    =            2
     number of electrons       =         8.00
     number of Kohn-Sham states=            8
     kinetic-energy cutoff     =      90.0000  Ry
     charge density cutoff     =     360.0000  Ry
     convergence threshold     =      1.0E-08
     mixing beta               =       0.7000
     number of iterations used =            8  plain     mixing
     Exchange-correlation      = BLYP ( 1  3  1  3 0 0)
     nstep                     =           50


     celldm(1)=  20.000000  celldm(2)=   0.000000  celldm(3)=   0.000000
     celldm(4)=   0.000000  celldm(5)=   0.000000  celldm(6)=   0.000000

     crystal axes: (cart. coord. in units of alat)
               a(1) = (   1.000000   0.000000   0.000000 )  
               a(2) = (   0.000000   1.000000   0.000000 )  
               a(3) = (   0.000000   0.000000   1.000000 )  

     reciprocal axes: (cart. coord. in units 2 pi/alat)
               b(1) = (  1.000000  0.000000  0.000000 )  
               b(2) = (  0.000000  1.000000  0.000000 )  
               b(3) = (  0.000000  0.000000  1.000000 )  


     PseudoPot. # 1 for  H read from file:
     ../H.blyp-hgh.UPF
     MD5 check sum: c576e69559cde411e611be972c763230
     Pseudo is Norm-conserving, Zval =  1.0
     Generated in analytical, separable form
     Using radial grid of  929 points,  0 beta functions with: 

     PseudoPot. # 2 for  O read from file:
     ../O.blyp-hgh.UPF
     MD5 check sum: d0b7156309aa9befef28faac7bc56342
     Pseudo is Norm-conserving, Zval =  6.0
     Generated in analytical, separable form
     Using radial grid of 1095 points,  1 beta functions with: 
                l(1) =   0

     atomic species   valence    mass     pseudopotential
        H              1.00     1.01000      H( 1.00)
        O              6.00    16.00000      O( 1.00)

     No symmetry found



   Cartesian axes

     site n.     atom                  positions (alat units)
         1           H   tau(   1) = (   0.0578103  -0.0419937  -0.0485541  )
         2           H   tau(   2) = (  -0.0060747  -0.0351450   0.0780612  )
         3           O   tau(   3) = (  -0.0032658   0.0048694   0.0037154  )

     number of k points=     1  Marzari-Vanderbilt smearing, width (Ry)=  0.0250
                       cart. coord. in units 2pi/alat
        k(    1) = (   0.0000000   0.0000000   0.0000000), wk =   2.0000000

     Dense  grid:   922329 G-vectors     FFT dimensions: ( 125, 125, 125)

     Estimated max dynamical RAM per process >      31.67Mb

     Estimated total allocated dynamical RAM >     886.64Mb

     Initial potential from superposition of free atoms
     Check: negative starting charge=   -0.015973

     starting charge    7.99998, renormalised to    8.00000

     negative rho (up, down):  1.597E-02 0.000E+00
     Starting wfc are    6 randomized atomic wfcs +    2 random wfc

     total cpu time spent up to now is        0.8 secs

     per-process dynamical memory:    33.5 Mb

     Self-consistent Calculation

     iteration #  1     ecut=    90.00 Ry     beta=0.70
     Davidson diagonalization with overlap
     ethr =  1.00E-02,  avg # of iterations =  8.0

     negative rho (up, down):  4.670E-03 0.000E+00

     total cpu time spent up to now is        1.2 secs

     total energy              =     -34.00906588 Ry
     Harris-Foulkes estimate   =     -34.27230753 Ry
     estimated scf accuracy    <       0.39128153 Ry

     iteration #  2     ecut=    90.00 Ry     beta=0.70
     Davidson diagonalization with overlap
     ethr =  4.89E-03,  avg # of iterations =  2.0

     negative rho (up, down):  2.814E-03 0.000E+00

     total cpu time spent up to now is        1.4 secs

     total energy              =     -34.07844006 Ry
     Harris-Foulkes estimate   =     -34.26016099 Ry
     estimated scf accuracy    <       0.38153748 Ry

     iteration #  3     ecut=    90.00 Ry     beta=0.70
     Davidson diagonalization with overlap
     ethr =  4.77E-03,  avg # of iterations =  2.0

     negative rho (up, down):  2.038E-04 0.000E+00

     total cpu time spent up to now is        1.6 secs

     total energy              =     -34.16561618 Ry
     Harris-Foulkes estimate   =     -34.16672110 Ry
     estimated scf accuracy    <       0.00607662 Ry

     iteration #  4     ecut=    90.00 Ry     beta=0.70
     Davidson diagonalization with overlap
     ethr =  7.60E-05,  avg # of iterations =  5.0

     negative rho (up, down):  3.678E-06 0.000E+00

     total cpu time spent up to now is        1.9 secs

     total energy              =     -34.16737424 Ry
     Harris-Foulkes estimate   =     -34.16753679 Ry
     estimated scf accuracy    <       0.00042368 Ry

     iteration #  5     ecut=    90.00 Ry     beta=0.70
     Davidson diagonalization with overlap
     c_bands:  1 eigenvalues not converged
     ethr =  5.30E-06,  avg # of iterations = 20.0

     total cpu time spent up to now is        2.2 secs

     total energy              =     -34.16739972 Ry
     Harris-Foulkes estimate   =     -34.16740840 Ry
     estimated scf accuracy    <       0.00003091 Ry

     iteration #  6     ecut=    90.00 Ry     beta=0.70
     Davidson diagonalization with overlap
     ethr =  3.86E-07,  avg # of iterations = 13.0

     negative rho (up, down):  1.424E-07 0.000E+00

     total cpu time spent up to now is        2.4 secs

     total energy              =     -34.16740328 Ry
     Harris-Foulkes estimate   =     -34.16740301 Ry
     estimated scf accuracy    <       0.00000207 Ry

     iteration #  7     ecut=    90.00 Ry     beta=0.70
     Davidson diagonalization with overlap
     ethr =  2.58E-08,  avg # of iterations =  2.0

     total cpu time spent up to now is        2.6 secs

     total energy              =     -34.16740349 Ry
     Harris-Foulkes estimate   =     -34.16740349 Ry
     estimated scf accuracy    <       0.00000003 Ry

     iteration #  8     ecut=    90.00 Ry     beta=0.70
     Davidson diagonalization with overlap
     ethr =  3.30E-10,  avg # of iterations =  3.0

     total cpu time spent up to now is        2.8 secs

     End of self-consistent calculation

          k = 0.0000 0.0000 0.0000 (115313 PWs)   bands (ev):

   -25.5668 -13.2681  -9.1118  -7.1527  -0.8480   0.4519   0.8292   1.1251

     the Fermi energy is    -5.2078 ev

!    total energy              =     -34.16740327 Ry
     Harris-Foulkes estimate   =     -34.16740350 Ry
     estimated scf accuracy    <          7.1E-09 Ry

     The total energy is the sum of the following terms:

     one-electron contribution =     -64.66383367 Ry
     hartree contribution      =      33.73338138 Ry
     xc contribution           =      -8.43651675 Ry
     ewald contribution        =       5.19956577 Ry
     smearing contrib. (-TS)   =       0.00000000 Ry

     convergence has been achieved in   8 iterations

     Forces acting on atoms (Ry/au):

     atom    1 type  1   force =    -0.00732674    0.00471534    0.00877261
     atom    2 type  1   force =    -0.00505561   -0.10367706    0.18833540
     atom    3 type  2   force =     0.01238235    0.09896172   -0.19710801

     Total force =     0.308538     Total SCF correction =     0.000029

     BFGS Geometry Optimization

     number of scf cycles    =   1
     number of bfgs steps    =   0

     energy   new            =     -34.1674032748 Ry

     new trust radius        =       0.2209034013 bohr
     new conv_thr            =       0.0000000100 Ry


ATOMIC_POSITIONS (angstrom)
H        0.607960859  -0.441946751  -0.509231736
H       -0.066967315  -0.426822535   0.925826803
O       -0.028011543   0.103903286  -0.064983068



     Writing output data file pwscf.save
     Check: negative starting charge=   -0.015973
     NEW-OLD atomic charge density approx. for the potential
     Check: negative starting charge=   -0.015903

     negative rho (up, down):  2.845E-02 0.000E+00

     total cpu time spent up to now is        3.4 secs

     per-process dynamical memory:    45.8 Mb

     Self-consistent Calculation

     iteration #  1     ecut=    90.00 Ry     beta=0.70
     Davidson diagonalization with overlap
     c_bands:  1 eigenvalues not converged
     ethr =  1.00E-06,  avg # of iterations = 20.0

     negative rho (up, down):  7.256E-03 0.000E+00

     total cpu time spent up to now is        4.0 secs

     total energy              =     -34.13388958 Ry
     Harris-Foulkes estimate   =     -34.12055017 Ry
     estimated scf accuracy    <       0.02813189 Ry

     iteration #  2     ecut=    90.00 Ry     beta=0.70
     Davidson diagonalization with overlap
     ethr =  3.52E-04,  avg # of iterations =  4.0

     negative rho (up, down):  4.263E-03 0.000E+00

     total cpu time spent up to now is        4.2 secs

     total energy              =     -34.14172255 Ry
     Harris-Foulkes estimate   =     -34.14856123 Ry
     estimated scf accuracy    <       0.01846737 Ry

     iteration #  3     ecut=    90.00 Ry     beta=0.70
     Davidson diagonalization with overlap
     ethr =  2.31E-04,  avg # of iterations =  3.0

     negative rho (up, down):  1.505E-03 0.000E+00

     total cpu time spent up to now is        4.4 secs

     total energy              =     -34.14998460 Ry
     Harris-Foulkes estimate   =     -34.14688914 Ry
     estimated scf accuracy    <       0.00136142 Ry

     iteration #  4     ecut=    90.00 Ry     beta=0.70
     Davidson diagonalization with overlap
     ethr =  1.70E-05,  avg # of iterations = 14.0

     negative rho (up, down):  9.652E-05 0.000E+00

     total cpu time spent up to now is        4.7 secs

     total energy              =     -34.15052780 Ry
     Harris-Foulkes estimate   =     -34.15024827 Ry
     estimated scf accuracy    <       0.00002418 Ry

     iteration #  5     ecut=    90.00 Ry     beta=0.70
     Davidson diagonalization with overlap
     c_bands:  1 eigenvalues not converged
     ethr =  3.02E-07,  avg # of iterations = 20.0

     negative rho (up, down):  1.418E-06 0.000E+00

     total cpu time spent up to now is        5.0 secs

     total energy              =     -34.15461445 Ry
     Harris-Foulkes estimate   =     -34.15461317 Ry
     estimated scf accuracy    <       0.00000070 Ry

     iteration #  6     ecut=    90.00 Ry     beta=0.70
     Davidson diagonalization with overlap
     ethr =  8.79E-09,  avg # of iterations =  3.0

     negative rho (up, down):  1.031E-08 0.000E+00

     total cpu time spent up to now is        5.3 secs

     total energy              =     -34.15461452 Ry
     Harris-Foulkes estimate   =     -34.15461457 Ry
     estimated scf accuracy    <       0.00000004 Ry

     iteration #  7     ecut=    90.00 Ry     beta=0.70
     Davidson diagonalization with overlap
     ethr =  5.25E-10,  avg # of iterations =  2.0

     total cpu time spent up to now is        5.4 secs

     End of self-consistent calculation

          k = 0.0000 0.0000 0.0000 (115313 PWs)   bands (ev):

   -24.7440 -12.0865  -9.2837  -7.0119  -1.2628   0.2789   0.6683   1.1053

     the Fermi energy is    -5.0169 ev

!    total energy              =     -34.15461453 Ry
     Harris-Foulkes estimate   =     -34.15461453 Ry
     estimated scf accuracy    <          1.6E-09 Ry

     The total energy is the sum of the following terms:

     one-electron contribution =     -62.55574145 Ry
     hartree contribution      =      32.71716061 Ry
     xc contribution           =      -8.27368057 Ry
     ewald contribution        =       3.95764688 Ry
     smearing contrib. (-TS)   =       0.00000000 Ry

     convergence has been achieved in   7 iterations

     Forces acting on atoms (Ry/au):

     atom    1 type  1   force =     0.04966852   -0.04006348   -0.03960842
     atom    2 type  1   force =     0.00259931    0.07949628   -0.14207523
     atom    3 type  2   force =    -0.05226784   -0.03943280    0.18168365

     Total force =     0.263531     Total SCF correction =     0.000036

     number of scf cycles    =   2
     number of bfgs steps    =   1

     energy   old            =     -34.1674032748 Ry
     energy   new            =     -34.1546145275 Ry

     CASE: energy  _new > energy  _old

     new trust radius        =       0.0973707776 bohr
     new conv_thr            =       0.0000000100 Ry


ATOMIC_POSITIONS (angstrom)
H        0.610129017  -0.443342133  -0.511827762
H       -0.065471237  -0.396141991   0.870093811
O       -0.031675779   0.074618125  -0.006654049



     Writing output data file pwscf.save
     Check: negative starting charge=   -0.015903
     NEW-OLD atomic charge density approx. for the potential
     Check: negative starting charge=   -0.016004

     negative rho (up, down):  2.155E-02 0.000E+00

     total cpu time spent up to now is        6.1 secs

     per-process dynamical memory:    45.8 Mb

     Self-consistent Calculation

     iteration #  1     ecut=    90.00 Ry     beta=0.70
     Davidson diagonalization with overlap
     ethr =  1.00E-06,  avg # of iterations = 18.0

     negative rho (up, down):  5.712E-03 0.000E+00

     total cpu time spent up to now is        6.5 secs

     total energy              =     -34.15367430 Ry
     Harris-Foulkes estimate   =     -34.23606294 Ry
     estimated scf accuracy    <       0.01322064 Ry

     iteration #  2     ecut=    90.00 Ry     beta=0.70
     Davidson diagonalization with overlap
     ethr =  1.65E-04,  avg # of iterations =  4.0

     negative rho (up, down):  3.695E-03 0.000E+00

     total cpu time spent up to now is        6.8 secs

     total energy              =     -34.17238240 Ry
     Harris-Foulkes estimate   =     -34.17745943 Ry
     estimated scf accuracy    <       0.01831412 Ry

     iteration #  3     ecut=    90.00 Ry     beta=0.70
     Davidson diagonalization with overlap
     ethr =  1.65E-04,  avg # of iterations =  2.0

     negative rho (up, down):  1.378E-03 0.000E+00

     total cpu time spent up to now is        6.9 secs

     total energy              =     -34.17844592 Ry
     Harris-Foulkes estimate   =     -34.17561439 Ry
     estimated scf accuracy    <       0.00018281 Ry

     iteration #  4     ecut=    90.00 Ry     beta=0.70
     Davidson diagonalization with overlap
     ethr =  2.29E-06,  avg # of iterations = 16.0

     negative rho (up, down):  5.577E-05 0.000E+00

     total cpu time spent up to now is        7.3 secs

     total energy              =     -34.17870936 Ry
     Harris-Foulkes estimate   =     -34.17849849 Ry
     estimated scf accuracy    <       0.00002437 Ry

     iteration #  5     ecut=    90.00 Ry     beta=0.70
     Davidson diagonalization with overlap
     c_bands:  1 eigenvalues not converged
     ethr =  3.05E-07,  avg # of iterations = 20.0

     negative rho (up, down):  3.819E-07 0.000E+00

     total cpu time spent up to now is        7.6 secs

     total energy              =     -34.18279127 Ry
     Harris-Foulkes estimate   =     -34.18279220 Ry
     estimated scf accuracy    <       0.00000029 Ry

     iteration #  6     ecut=    90.00 Ry     beta=0.70
     Davidson diagonalization with overlap
     ethr =  3.60E-09,  avg # of iterations =  4.0

     negative rho (up, down):  2.378E-08 0.000E+00

     total cpu time spent up to now is        7.8 secs

     total energy              =     -34.18279135 Ry
     Harris-Foulkes estimate   =     -34.18279135 Ry
     estimated scf accuracy    <       0.00000003 Ry

     iteration #  7     ecut=    90.00 Ry     beta=0.70
     Davidson diagonalization with overlap
     ethr =  4.01E-10,  avg # of iterations =  2.0

     total cpu time spent up to now is        8.0 secs

     End of self-consistent calculation

          k = 0.0000 0.0000 0.0000 (115313 PWs)   bands (ev):

   -25.1019 -12.7363  -9.1852  -7.0776  -0.9513   0.4232   0.7534   1.1180

     the Fermi energy is    -5.0968 ev

!    total energy              =     -34.18279136 Ry
     Harris-Foulkes estimate   =     -34.18279135 Ry
     estimated scf accuracy    <          6.2E-10 Ry

     The total energy is the sum of the following terms:

     one-electron contribution =     -63.65349008 Ry
     hartree contribution      =      33.24785178 Ry
     xc contribution           =      -8.35474519 Ry
     ewald contribution        =       4.57759212 Ry
     smearing contrib. (-TS)   =       0.00000000 Ry

     convergence has been achieved in   7 iterations

     Forces acting on atoms (Ry/au):

     atom    1 type  1   force =     0.01912504   -0.01405167   -0.01495964
     atom    2 type  1   force =     0.00098299    0.01362282   -0.02324477
     atom    3 type  2   force =    -0.02010803    0.00042884    0.03820441

     Total force =     0.058120     Total SCF correction =     0.000097

     number of scf cycles    =   3
     number of bfgs steps    =   1

     energy   old            =     -34.1674032748 Ry
     energy   new            =     -34.1827913629 Ry

     CASE: energy  _new < energy  _old

     new trust radius        =       0.0253156826 bohr
     new conv_thr            =       0.0000000038 Ry


ATOMIC_POSITIONS (angstrom)
H        0.618644706  -0.449627802  -0.518356804
H       -0.065236525  -0.394347342   0.867527418
O       -0.040426182   0.079109145   0.002441386



     Writing output data file pwscf.save
     Check: negative starting charge=   -0.016004
     NEW-OLD atomic charge density approx. for the potential
     Check: negative starting charge=   -0.016017

     negative rho (up, down):  4.413E-03 0.000E+00

     total cpu time spent up to now is        8.6 secs

     per-process dynamical memory:    45.8 Mb

     Self-consistent Calculation

     iteration #  1     ecut=    90.00 Ry     beta=0.70
     Davidson diagonalization with overlap
     c_bands:  1 eigenvalues not converged
     ethr =  1.00E-06,  avg # of iterations = 20.0

     negative rho (up, down):  1.147E-03 0.000E+00

     total cpu time spent up to now is        9.0 secs

     total energy              =     -34.17898341 Ry
     Harris-Foulkes estimate   =     -34.17529239 Ry
     estimated scf accuracy    <       0.00035169 Ry

     iteration #  2     ecut=    90.00 Ry     beta=0.70
     Davidson diagonalization with overlap
     ethr =  4.40E-06,  avg # of iterations = 14.0

     negative rho (up, down):  6.142E-04 0.000E+00

     total cpu time spent up to now is        9.3 secs

     total energy              =     -34.18319997 Ry
     Harris-Foulkes estimate   =     -34.18322627 Ry
     estimated scf accuracy    <       0.00016696 Ry

     iteration #  3     ecut=    90.00 Ry     beta=0.70
     Davidson diagonalization with overlap
     ethr =  2.09E-06,  avg # of iterations =  4.0

     negative rho (up, down):  1.943E-04 0.000E+00

     total cpu time spent up to now is        9.5 secs

     total energy              =     -34.18325296 Ry
     Harris-Foulkes estimate   =     -34.18325051 Ry
     estimated scf accuracy    <       0.00001599 Ry

     iteration #  4     ecut=    90.00 Ry     beta=0.70
     Davidson diagonalization with overlap
     ethr =  2.00E-07,  avg # of iterations = 10.0

     negative rho (up, down):  4.585E-06 0.000E+00

     total cpu time spent up to now is        9.8 secs

     total energy              =     -34.18325922 Ry
     Harris-Foulkes estimate   =     -34.18325667 Ry
     estimated scf accuracy    <       0.00000026 Ry

     iteration #  5     ecut=    90.00 Ry     beta=0.70
     Davidson diagonalization with overlap
     ethr =  3.31E-09,  avg # of iterations =  3.0

     negative rho (up, down):  1.472E-08 0.000E+00

     total cpu time spent up to now is       10.0 secs

     total energy              =     -34.18325956 Ry
     Harris-Foulkes estimate   =     -34.18325937 Ry
     estimated scf accuracy    <          9.6E-09 Ry

     iteration #  6     ecut=    90.00 Ry     beta=0.70
     Davidson diagonalization with overlap
     ethr =  1.20E-10,  avg # of iterations =  2.0

     total cpu time spent up to now is       10.1 secs

     End of self-consistent calculation

          k = 0.0000 0.0000 0.0000 (115313 PWs)   bands (ev):

   -25.0195 -12.6412  -9.1962  -7.0648  -0.9742   0.4172   0.7356   1.1166

     the Fermi energy is    -5.0773 ev

!    total energy              =     -34.18325956 Ry
     Harris-Foulkes estimate   =     -34.18325956 Ry
     estimated scf accuracy    <          6.6E-10 Ry

     The total energy is the sum of the following terms:

     one-electron contribution =     -63.46841731 Ry
     hartree contribution      =      33.15900438 Ry
     xc contribution           =      -8.34016109 Ry
     ewald contribution        =       4.46631447 Ry
     smearing contrib. (-TS)   =       0.00000000 Ry

     convergence has been achieved in   6 iterations

     Forces acting on atoms (Ry/au):

     atom    1 type  1   force =    -0.01349208    0.01200639    0.00965157
     atom    2 type  1   force =    -0.00043280    0.00567480   -0.00810044
     atom    3 type  2   force =     0.01392487   -0.01768119   -0.00155114

     Total force =     0.032036     Total SCF correction =     0.000118

     number of scf cycles    =   4
     number of bfgs steps    =   2

     energy   old            =     -34.1827913629 Ry
     energy   new            =     -34.1832595578 Ry

     CASE: energy  _new < energy  _old

     new trust radius        =       0.0126036878 bohr
     new conv_thr            =       0.0000000005 Ry


ATOMIC_POSITIONS (angstrom)
H        0.614967667  -0.446172011  -0.515779795
H       -0.065374602  -0.392335246   0.864775932
O       -0.036611065   0.073641257   0.002615863



     Writing output data file pwscf.save
     Check: negative starting charge=   -0.016017
     NEW-OLD atomic charge density approx. for the potential
     Check: negative starting charge=   -0.016012

     negative rho (up, down):  2.051E-03 0.000E+00

     total cpu time spent up to now is       10.7 secs

     per-process dynamical memory:    45.8 Mb

     Self-consistent Calculation

     iteration #  1     ecut=    90.00 Ry     beta=0.70
     Davidson diagonalization with overlap
     c_bands:  1 eigenvalues not converged
     ethr =  1.00E-06,  avg # of iterations = 20.0

     negative rho (up, down):  5.237E-04 0.000E+00

     total cpu time spent up to now is       11.3 secs

     total energy              =     -34.17938258 Ry
     Harris-Foulkes estimate   =     -34.17878510 Ry
     estimated scf accuracy    <       0.00018680 Ry

     iteration #  2     ecut=    90.00 Ry     beta=0.70
     Davidson diagonalization with overlap
     c_bands:  1 eigenvalues not converged
     ethr =  2.33E-06,  avg # of iterations = 20.0

     negative rho (up, down):  3.217E-04 0.000E+00

     total cpu time spent up to now is       11.6 secs

     total energy              =     -34.18351124 Ry
     Harris-Foulkes estimate   =     -34.18360073 Ry
     estimated scf accuracy    <       0.00020436 Ry

     iteration #  3     ecut=    90.00 Ry     beta=0.70
     Davidson diagonalization with overlap
     ethr =  2.33E-06,  avg # of iterations = 13.0

     negative rho (up, down):  4.643E-05 0.000E+00

     total cpu time spent up to now is       11.9 secs

     total energy              =     -34.18355535 Ry
     Harris-Foulkes estimate   =     -34.18355295 Ry
     estimated scf accuracy    <       0.00000095 Ry

     iteration #  4     ecut=    90.00 Ry     beta=0.70
     Davidson diagonalization with overlap
     ethr =  1.19E-08,  avg # of iterations =  5.0

     negative rho (up, down):  2.539E-06 0.000E+00

     total cpu time spent up to now is       12.1 secs

     total energy              =     -34.18355531 Ry
     Harris-Foulkes estimate   =     -34.18355586 Ry
     estimated scf accuracy    <       0.00000004 Ry

     iteration #  5     ecut=    90.00 Ry     beta=0.70
     Davidson diagonalization with overlap
     ethr =  4.99E-10,  avg # of iterations =  2.0

     total cpu time spent up to now is       12.3 secs

     total energy              =     -34.18355526 Ry
     Harris-Foulkes estimate   =     -34.18355533 Ry
     estimated scf accuracy    <          1.9E-09 Ry

     iteration #  6     ecut=    90.00 Ry     beta=0.70
     Davidson diagonalization with overlap
     ethr =  2.36E-11,  avg # of iterations =  2.0

     total cpu time spent up to now is       12.5 secs

     End of self-consistent calculation

          k = 0.0000 0.0000 0.0000 (115313 PWs)   bands (ev):

   -25.0988 -12.7488  -9.1773  -7.0776  -0.9472   0.4259   0.7534   1.1198

     the Fermi energy is    -5.0947 ev

!    total energy              =     -34.18355524 Ry
     Harris-Foulkes estimate   =     -34.18355526 Ry
     estimated scf accuracy    <          6.6E-11 Ry

     The total energy is the sum of the following terms:

     one-electron contribution =     -63.65919291 Ry
     hartree contribution      =      33.25086034 Ry
     xc contribution           =      -8.35514347 Ry
     ewald contribution        =       4.57992081 Ry
     smearing contrib. (-TS)   =       0.00000000 Ry

     convergence has been achieved in   6 iterations

     Forces acting on atoms (Ry/au):

     atom    1 type  1   force =    -0.00032977    0.00130304    0.00014681
     atom    2 type  1   force =     0.00014657    0.00020313    0.00064636
     atom    3 type  2   force =     0.00018320   -0.00150617   -0.00079317

     Total force =     0.002289     Total SCF correction =     0.000030

     number of scf cycles    =   5
     number of bfgs steps    =   3

     energy   old            =     -34.1832595578 Ry
     energy   new            =     -34.1835552351 Ry

     CASE: energy  _new < energy  _old

     new trust radius        =       0.0014033334 bohr
     new conv_thr            =       0.0000000002 Ry


ATOMIC_POSITIONS (angstrom)
H        0.614985191  -0.445616883  -0.515847703
H       -0.065283612  -0.392185390   0.865050469
O       -0.036719579   0.072936273   0.002409234



     Writing output data file pwscf.save
     Check: negative starting charge=   -0.016012
     NEW-OLD atomic charge density approx. for the potential
     Check: negative starting charge=   -0.016011

     negative rho (up, down):  1.592E-04 0.000E+00

     total cpu time spent up to now is       13.0 secs

     per-process dynamical memory:    45.8 Mb

     Self-consistent Calculation

     iteration #  1     ecut=    90.00 Ry     beta=0.70
     Davidson diagonalization with overlap
     ethr =  1.00E-06,  avg # of iterations =  3.0

     Threshold (ethr) on eigenvalues was too large:
     Diagonalizing with lowered threshold

     Davidson diagonalization with overlap
     ethr =  8.09E-09,  avg # of iterations =  1.0

     negative rho (up, down):  3.124E-05 0.000E+00

     total cpu time spent up to now is       13.4 secs

     total energy              =     -34.18355787 Ry
     Harris-Foulkes estimate   =     -34.18355560 Ry
     estimated scf accuracy    <       0.00000062 Ry

     iteration #  2     ecut=    90.00 Ry     beta=0.70
     Davidson diagonalization with overlap
     ethr =  7.70E-09,  avg # of iterations =  3.0

     negative rho (up, down):  1.421E-05 0.000E+00

     total cpu time spent up to now is       13.6 secs

     total energy              =     -34.18355816 Ry
     Harris-Foulkes estimate   =     -34.18355822 Ry
     estimated scf accuracy    <       0.00000043 Ry

     iteration #  3     ecut=    90.00 Ry     beta=0.70
     Davidson diagonalization with overlap
     ethr =  5.43E-09,  avg # of iterations =  2.0

     negative rho (up, down):  2.484E-07 0.000E+00

     total cpu time spent up to now is       13.8 secs

     total energy              =     -34.18355841 Ry
     Harris-Foulkes estimate   =     -34.18355827 Ry
     estimated scf accuracy    <       0.00000002 Ry

     iteration #  4     ecut=    90.00 Ry     beta=0.70
     Davidson diagonalization with overlap
     ethr =  2.42E-10,  avg # of iterations =  2.0

     total cpu time spent up to now is       14.0 secs

     total energy              =     -34.18355838 Ry
     Harris-Foulkes estimate   =     -34.18355842 Ry
     estimated scf accuracy    <          3.8E-10 Ry

     iteration #  5     ecut=    90.00 Ry     beta=0.70
     Davidson diagonalization with overlap
     ethr =  4.73E-12,  avg # of iterations =  3.0

     total cpu time spent up to now is       14.1 secs

     End of self-consistent calculation

          k = 0.0000 0.0000 0.0000 (115313 PWs)   bands (ev):

   -25.1010 -12.7551  -9.1742  -7.0779  -0.9461   0.4262   0.7539   1.1196

     the Fermi energy is    -5.0954 ev

!    total energy              =     -34.18355832 Ry
     Harris-Foulkes estimate   =     -34.18355838 Ry
     estimated scf accuracy    <          2.3E-11 Ry

     The total energy is the sum of the following terms:

     one-electron contribution =     -63.66621347 Ry
     hartree contribution      =      33.25432243 Ry
     xc contribution           =      -8.35571240 Ry
     ewald contribution        =       4.58404512 Ry
     smearing contrib. (-TS)   =       0.00000000 Ry

     convergence has been achieved in   5 iterations

     Forces acting on atoms (Ry/au):

     atom    1 type  1   force =     0.00046299    0.00058735   -0.00032726
     atom    2 type  1   force =     0.00026342    0.00015308    0.00049661
     atom    3 type  2   force =    -0.00072642   -0.00074043   -0.00016935

     Total force =     0.001453     Total SCF correction =     0.000090

     bfgs converged in   6 scf cycles and   4 bfgs steps
     (criteria: energy <  1.0E-04, force <  1.0E-03)

     End of BFGS Geometry Optimization

     Final energy   =     -34.1835583211 Ry
Begin final coordinates

ATOMIC_POSITIONS (angstrom)
H        0.614985191  -0.445616883  -0.515847703
H       -0.065283612  -0.392185390   0.865050469
O       -0.036719579   0.072936273   0.002409234
End final coordinates



     Writing output data file pwscf.save
 
     init_run     :      0.57s CPU      0.61s WALL (       1 calls)
     electrons    :      9.43s CPU     11.18s WALL (       6 calls)
     update_pot   :      1.25s CPU      1.56s WALL (       5 calls)
     forces       :      0.41s CPU      0.41s WALL (       6 calls)

     Called by init_run:
     wfcinit      :      0.08s CPU      0.10s WALL (       1 calls)
     potinit      :      0.11s CPU      0.11s WALL (       1 calls)

     Called by electrons:
     c_bands      :      4.90s CPU      5.12s WALL (      40 calls)
     sum_band     :      0.82s CPU      0.85s WALL (      40 calls)
     v_of_rho     :      2.31s CPU      2.46s WALL (      45 calls)
     mix_rho      :      0.82s CPU      1.52s WALL (      40 calls)

     Called by c_bands:
     init_us_2    :      0.02s CPU      0.03s WALL (      81 calls)
     cegterg      :      4.87s CPU      5.08s WALL (      40 calls)

     Called by sum_band:

     Called by *egterg:
     h_psi        :      4.15s CPU      4.34s WALL (     357 calls)
     g_psi        :      0.04s CPU      0.04s WALL (     316 calls)
     cdiaghg      :      0.09s CPU      0.09s WALL (     350 calls)

     Called by h_psi:
     h_psi:pot    :      4.11s CPU      4.30s WALL (     357 calls)
     h_psi:calbec :      0.08s CPU      0.15s WALL (     357 calls)
     vloc_psi     :      4.00s CPU      4.12s WALL (     357 calls)
     add_vuspsi   :      0.03s CPU      0.03s WALL (     357 calls)

     General routines
     calbec       :      0.08s CPU      0.15s WALL (     381 calls)
     fft          :      1.61s CPU      1.76s WALL (     508 calls)
     fftw         :      3.91s CPU      4.04s WALL (    3034 calls)
     davcio       :      0.10s CPU      0.69s WALL (     281 calls)
 
     Parallel routines
     fft_scatter  :      1.93s CPU      2.19s WALL (    3542 calls)
 
     PWSCF        :    12.22s CPU        14.81s WALL

 
   This run was terminated on:   2:16:39  28Jul2018            

=------------------------------------------------------------------------------=
   JOB DONE.
=------------------------------------------------------------------------------=
