
     Program PWSCF v.6.0 (svn rev. 13079) starts on 28Jul2018 at  2:14: 2 

     This program is part of the open-source Quantum ESPRESSO suite
     for quantum simulation of materials; please cite
         "P. Giannozzi et al., J. Phys.:Condens. Matter 21 395502 (2009);
          URL http://www.quantum-espresso.org", 
     in publications or presentations arising from this work. More details at
     http://www.quantum-espresso.org/quote

     Parallel version (MPI), running on    28 processors
     R & G space division:  proc/nbgrp/npool/nimage =      28
     Reading input from ../QMCmins/relax-7.in

     Current dimensions of program PWSCF are:
     Max number of different atomic species (ntypx) = 10
     Max number of k-points (npk) =  40000
     Max angular momentum in pseudopotentials (lmaxx) =  3
     Message from routine iosys:
     pot_extrapolation='second-order' not available, using 'atomic'
     Message from routine iosys:
     wfc_extrapolation='second-order' not available, using 'atomic'

     Subspace diagonalization in iterative solution of the eigenvalue problem:
     a serial algorithm will be used

 
     Parallelization info
     --------------------
     sticks:   dense  smooth     PW     G-vecs:    dense   smooth      PW
     Min         408     408    102                32936    32936    4116
     Max         409     409    103                32943    32943    4121
     Sum       11449   11449   2869               922329   922329  115313
 


     bravais-lattice index     =            1
     lattice parameter (alat)  =      20.0000  a.u.
     unit-cell volume          =    8000.0000 (a.u.)^3
     number of atoms/cell      =            3
     number of atomic types    =            2
     number of electrons       =         8.00
     number of Kohn-Sham states=            8
     kinetic-energy cutoff     =      90.0000  Ry
     charge density cutoff     =     360.0000  Ry
     convergence threshold     =      1.0E-08
     mixing beta               =       0.7000
     number of iterations used =            8  plain     mixing
     Exchange-correlation      = BLYP ( 1  3  1  3 0 0)
     nstep                     =           50


     celldm(1)=  20.000000  celldm(2)=   0.000000  celldm(3)=   0.000000
     celldm(4)=   0.000000  celldm(5)=   0.000000  celldm(6)=   0.000000

     crystal axes: (cart. coord. in units of alat)
               a(1) = (   1.000000   0.000000   0.000000 )  
               a(2) = (   0.000000   1.000000   0.000000 )  
               a(3) = (   0.000000   0.000000   1.000000 )  

     reciprocal axes: (cart. coord. in units 2 pi/alat)
               b(1) = (  1.000000  0.000000  0.000000 )  
               b(2) = (  0.000000  1.000000  0.000000 )  
               b(3) = (  0.000000  0.000000  1.000000 )  


     PseudoPot. # 1 for  H read from file:
     ../H.blyp-hgh.UPF
     MD5 check sum: c576e69559cde411e611be972c763230
     Pseudo is Norm-conserving, Zval =  1.0
     Generated in analytical, separable form
     Using radial grid of  929 points,  0 beta functions with: 

     PseudoPot. # 2 for  O read from file:
     ../O.blyp-hgh.UPF
     MD5 check sum: d0b7156309aa9befef28faac7bc56342
     Pseudo is Norm-conserving, Zval =  6.0
     Generated in analytical, separable form
     Using radial grid of 1095 points,  1 beta functions with: 
                l(1) =   0

     atomic species   valence    mass     pseudopotential
        H              1.00     1.01000      H( 1.00)
        O              6.00    16.00000      O( 1.00)

     No symmetry found



   Cartesian axes

     site n.     atom                  positions (alat units)
         1           H   tau(   1) = (  -0.0453435   0.0580051   0.0425899  )
         2           H   tau(   2) = (   0.0200337  -0.0618349   0.0650671  )
         3           O   tau(   3) = (   0.0015977   0.0002418  -0.0012178  )

     number of k points=     1  Marzari-Vanderbilt smearing, width (Ry)=  0.0250
                       cart. coord. in units 2pi/alat
        k(    1) = (   0.0000000   0.0000000   0.0000000), wk =   2.0000000

     Dense  grid:   922329 G-vectors     FFT dimensions: ( 125, 125, 125)

     Estimated max dynamical RAM per process >      31.67Mb

     Estimated total allocated dynamical RAM >     886.64Mb

     Initial potential from superposition of free atoms
     Check: negative starting charge=   -0.016024

     starting charge    7.99998, renormalised to    8.00000

     negative rho (up, down):  1.602E-02 0.000E+00
     Starting wfc are    6 randomized atomic wfcs +    2 random wfc

     total cpu time spent up to now is        0.7 secs

     per-process dynamical memory:    33.5 Mb

     Self-consistent Calculation

     iteration #  1     ecut=    90.00 Ry     beta=0.70
     Davidson diagonalization with overlap
     ethr =  1.00E-02,  avg # of iterations =  8.0

     negative rho (up, down):  4.683E-03 0.000E+00

     total cpu time spent up to now is        1.0 secs

     total energy              =     -34.02088905 Ry
     Harris-Foulkes estimate   =     -34.27342017 Ry
     estimated scf accuracy    <       0.37723142 Ry

     iteration #  2     ecut=    90.00 Ry     beta=0.70
     Davidson diagonalization with overlap
     ethr =  4.72E-03,  avg # of iterations =  2.0

     negative rho (up, down):  2.830E-03 0.000E+00

     total cpu time spent up to now is        1.2 secs

     total energy              =     -34.08609011 Ry
     Harris-Foulkes estimate   =     -34.26474863 Ry
     estimated scf accuracy    <       0.37691989 Ry

     iteration #  3     ecut=    90.00 Ry     beta=0.70
     Davidson diagonalization with overlap
     ethr =  4.71E-03,  avg # of iterations =  2.0

     negative rho (up, down):  1.784E-04 0.000E+00

     total cpu time spent up to now is        1.4 secs

     total energy              =     -34.17198916 Ry
     Harris-Foulkes estimate   =     -34.17298242 Ry
     estimated scf accuracy    <       0.00593907 Ry

     iteration #  4     ecut=    90.00 Ry     beta=0.70
     Davidson diagonalization with overlap
     ethr =  7.42E-05,  avg # of iterations =  6.0

     negative rho (up, down):  1.178E-05 0.000E+00

     total cpu time spent up to now is        1.6 secs

     total energy              =     -34.17367234 Ry
     Harris-Foulkes estimate   =     -34.17381419 Ry
     estimated scf accuracy    <       0.00036366 Ry

     iteration #  5     ecut=    90.00 Ry     beta=0.70
     Davidson diagonalization with overlap
     ethr =  4.55E-06,  avg # of iterations = 10.0

     negative rho (up, down):  1.420E-08 0.000E+00

     total cpu time spent up to now is        1.9 secs

     total energy              =     -34.17369762 Ry
     Harris-Foulkes estimate   =     -34.17370322 Ry
     estimated scf accuracy    <       0.00002153 Ry

     iteration #  6     ecut=    90.00 Ry     beta=0.70
     Davidson diagonalization with overlap
     ethr =  2.69E-07,  avg # of iterations =  2.0

     negative rho (up, down):  9.810E-08 0.000E+00

     total cpu time spent up to now is        2.2 secs

     total energy              =     -34.17370025 Ry
     Harris-Foulkes estimate   =     -34.17370008 Ry
     estimated scf accuracy    <       0.00000223 Ry

     iteration #  7     ecut=    90.00 Ry     beta=0.70
     Davidson diagonalization with overlap
     ethr =  2.79E-08,  avg # of iterations =  2.0

     total cpu time spent up to now is        2.4 secs

     total energy              =     -34.17370041 Ry
     Harris-Foulkes estimate   =     -34.17370050 Ry
     estimated scf accuracy    <       0.00000003 Ry

     iteration #  8     ecut=    90.00 Ry     beta=0.70
     Davidson diagonalization with overlap
     ethr =  3.40E-10,  avg # of iterations =  2.0

     total cpu time spent up to now is        2.6 secs

     End of self-consistent calculation

          k = 0.0000 0.0000 0.0000 (115313 PWs)   bands (ev):

   -25.5494 -12.9440  -9.3448  -7.1571  -0.8735   0.4438   0.8285   1.1539

     the Fermi energy is    -5.1817 ev

!    total energy              =     -34.17370026 Ry
     Harris-Foulkes estimate   =     -34.17370042 Ry
     estimated scf accuracy    <          5.0E-09 Ry

     The total energy is the sum of the following terms:

     one-electron contribution =     -64.48301526 Ry
     hartree contribution      =      33.63982921 Ry
     xc contribution           =      -8.41998432 Ry
     ewald contribution        =       5.08947011 Ry
     smearing contrib. (-TS)   =       0.00000000 Ry

     convergence has been achieved in   8 iterations

     Forces acting on atoms (Ry/au):

     atom    1 type  1   force =    -0.08592608    0.11485508    0.07040578
     atom    2 type  1   force =     0.00871353   -0.00669310   -0.00672988
     atom    3 type  2   force =     0.07721254   -0.10816199   -0.06367590

     Total force =     0.217746     Total SCF correction =     0.000029

     BFGS Geometry Optimization

     number of scf cycles    =   1
     number of bfgs steps    =   0

     energy   new            =     -34.1737002621 Ry

     new trust radius        =       0.1597872169 bohr
     new conv_thr            =       0.0000000100 Ry


ATOMIC_POSITIONS (angstrom)
H       -0.525365122   0.674678692   0.488009134
H        0.216639004  -0.657973834   0.685078703
O        0.057768118  -0.054677858  -0.046584837



     Writing output data file pwscf.save
     Check: negative starting charge=   -0.016024
     NEW-OLD atomic charge density approx. for the potential
     Check: negative starting charge=   -0.015929

     negative rho (up, down):  2.376E-02 0.000E+00

     total cpu time spent up to now is        3.1 secs

     per-process dynamical memory:    45.8 Mb

     Self-consistent Calculation

     iteration #  1     ecut=    90.00 Ry     beta=0.70
     Davidson diagonalization with overlap
     c_bands:  1 eigenvalues not converged
     ethr =  1.00E-06,  avg # of iterations = 20.0

     negative rho (up, down):  6.184E-03 0.000E+00

     total cpu time spent up to now is        3.8 secs

     total energy              =     -34.15281160 Ry
     Harris-Foulkes estimate   =     -34.14102515 Ry
     estimated scf accuracy    <       0.01454409 Ry

     iteration #  2     ecut=    90.00 Ry     beta=0.70
     Davidson diagonalization with overlap
     ethr =  1.82E-04,  avg # of iterations =  4.0

     negative rho (up, down):  3.590E-03 0.000E+00

     total cpu time spent up to now is        4.0 secs

     total energy              =     -34.15960532 Ry
     Harris-Foulkes estimate   =     -34.16034872 Ry
     estimated scf accuracy    <       0.00903743 Ry

     iteration #  3     ecut=    90.00 Ry     beta=0.70
     Davidson diagonalization with overlap
     ethr =  1.13E-04,  avg # of iterations =  3.0

     negative rho (up, down):  1.217E-03 0.000E+00

     total cpu time spent up to now is        4.2 secs

     total energy              =     -34.16471390 Ry
     Harris-Foulkes estimate   =     -34.16210164 Ry
     estimated scf accuracy    <       0.00063429 Ry

     iteration #  4     ecut=    90.00 Ry     beta=0.70
     Davidson diagonalization with overlap
     ethr =  7.93E-06,  avg # of iterations = 18.0

     negative rho (up, down):  6.785E-05 0.000E+00

     total cpu time spent up to now is        4.5 secs

     total energy              =     -34.16902954 Ry
     Harris-Foulkes estimate   =     -34.16891874 Ry
     estimated scf accuracy    <       0.00001087 Ry

     iteration #  5     ecut=    90.00 Ry     beta=0.70
     Davidson diagonalization with overlap
     ethr =  1.36E-07,  avg # of iterations =  5.0

     negative rho (up, down):  1.175E-06 0.000E+00

     total cpu time spent up to now is        4.8 secs

     total energy              =     -34.16903363 Ry
     Harris-Foulkes estimate   =     -34.16903350 Ry
     estimated scf accuracy    <       0.00000036 Ry

     iteration #  6     ecut=    90.00 Ry     beta=0.70
     Davidson diagonalization with overlap
     ethr =  4.53E-09,  avg # of iterations =  2.0

     total cpu time spent up to now is        5.0 secs

     total energy              =     -34.16903359 Ry
     Harris-Foulkes estimate   =     -34.16903370 Ry
     estimated scf accuracy    <       0.00000002 Ry

     iteration #  7     ecut=    90.00 Ry     beta=0.70
     Davidson diagonalization with overlap
     ethr =  2.79E-10,  avg # of iterations =  2.0

     total cpu time spent up to now is        5.1 secs

     End of self-consistent calculation

          k = 0.0000 0.0000 0.0000 (115313 PWs)   bands (ev):

   -24.8644 -12.1552  -9.3944  -7.0435  -1.1274   0.3472   0.6918   1.1442

     the Fermi energy is    -5.0178 ev

!    total energy              =     -34.16903363 Ry
     Harris-Foulkes estimate   =     -34.16903359 Ry
     estimated scf accuracy    <          1.9E-09 Ry

     The total energy is the sum of the following terms:

     one-electron contribution =     -62.88966057 Ry
     hartree contribution      =      32.87460609 Ry
     xc contribution           =      -8.29616200 Ry
     ewald contribution        =       4.14218286 Ry
     smearing contrib. (-TS)   =       0.00000000 Ry

     convergence has been achieved in   7 iterations

     Forces acting on atoms (Ry/au):

     atom    1 type  1   force =     0.06690613   -0.07890171   -0.07165646
     atom    2 type  1   force =     0.01460647   -0.03678805    0.02745384
     atom    3 type  2   force =    -0.08151260    0.11568976    0.04420262

     Total force =     0.200348     Total SCF correction =     0.000063

     number of scf cycles    =   2
     number of bfgs steps    =   1

     energy   old            =     -34.1737002621 Ry
     energy   new            =     -34.1690336293 Ry

     CASE: energy  _new > energy  _old

     new trust radius        =       0.0727347370 bohr
     new conv_thr            =       0.0000000100 Ry


ATOMIC_POSITIONS (angstrom)
H       -0.500592885   0.641566307   0.467711353
H        0.214126917  -0.656044234   0.687018907
O        0.035507967  -0.023495073  -0.028227260



     Writing output data file pwscf.save
     Check: negative starting charge=   -0.015929
     NEW-OLD atomic charge density approx. for the potential
     Check: negative starting charge=   -0.015990

     negative rho (up, down):  1.481E-02 0.000E+00

     total cpu time spent up to now is        5.7 secs

     per-process dynamical memory:    45.8 Mb

     Self-consistent Calculation

     iteration #  1     ecut=    90.00 Ry     beta=0.70
     Davidson diagonalization with overlap
     c_bands:  1 eigenvalues not converged
     ethr =  1.00E-06,  avg # of iterations = 20.0

     negative rho (up, down):  3.949E-03 0.000E+00

     total cpu time spent up to now is        6.2 secs

     total energy              =     -32.90140538 Ry
     Harris-Foulkes estimate   =     -34.71620855 Ry
     estimated scf accuracy    <       0.21147241 Ry

     iteration #  2     ecut=    90.00 Ry     beta=0.70
     Davidson diagonalization with overlap
     ethr =  2.64E-03,  avg # of iterations =  3.0

     negative rho (up, down):  2.722E-03 0.000E+00

     total cpu time spent up to now is        6.4 secs

     total energy              =     -34.10286393 Ry
     Harris-Foulkes estimate   =     -34.35095879 Ry
     estimated scf accuracy    <       0.71199108 Ry

     iteration #  3     ecut=    90.00 Ry     beta=0.70
     Davidson diagonalization with overlap
     ethr =  2.64E-03,  avg # of iterations =  2.0

     negative rho (up, down):  1.820E-03 0.000E+00

     total cpu time spent up to now is        6.5 secs

     total energy              =     -34.17884045 Ry
     Harris-Foulkes estimate   =     -34.18247355 Ry
     estimated scf accuracy    <       0.05002928 Ry

     iteration #  4     ecut=    90.00 Ry     beta=0.70
     Davidson diagonalization with overlap
     ethr =  6.25E-04,  avg # of iterations =  1.0

     negative rho (up, down):  8.746E-04 0.000E+00

     total cpu time spent up to now is        6.7 secs

     total energy              =     -34.17633656 Ry
     Harris-Foulkes estimate   =     -34.17958044 Ry
     estimated scf accuracy    <       0.02670821 Ry

     iteration #  5     ecut=    90.00 Ry     beta=0.70
     Davidson diagonalization with overlap
     ethr =  3.34E-04,  avg # of iterations =  3.0

     negative rho (up, down):  5.129E-04 0.000E+00

     total cpu time spent up to now is        6.9 secs

     total energy              =     -34.18222368 Ry
     Harris-Foulkes estimate   =     -34.18208298 Ry
     estimated scf accuracy    <       0.00480178 Ry

     iteration #  6     ecut=    90.00 Ry     beta=0.70
     Davidson diagonalization with overlap
     ethr =  6.00E-05,  avg # of iterations =  9.0

     negative rho (up, down):  2.221E-04 0.000E+00

     total cpu time spent up to now is        7.2 secs

     total energy              =     -34.18239050 Ry
     Harris-Foulkes estimate   =     -34.18247407 Ry
     estimated scf accuracy    <       0.00199540 Ry

     iteration #  7     ecut=    90.00 Ry     beta=0.70
     Davidson diagonalization with overlap
     ethr =  2.49E-05,  avg # of iterations =  2.0

     negative rho (up, down):  1.693E-04 0.000E+00

     total cpu time spent up to now is        7.6 secs

     total energy              =     -34.18263869 Ry
     Harris-Foulkes estimate   =     -34.18258013 Ry
     estimated scf accuracy    <       0.00032521 Ry

     iteration #  8     ecut=    90.00 Ry     beta=0.70
     Davidson diagonalization with overlap
     ethr =  4.07E-06,  avg # of iterations =  7.0

     negative rho (up, down):  3.431E-07 0.000E+00

     total cpu time spent up to now is        7.8 secs

     total energy              =     -34.18261152 Ry
     Harris-Foulkes estimate   =     -34.18264898 Ry
     estimated scf accuracy    <       0.00031028 Ry

     iteration #  9     ecut=    90.00 Ry     beta=0.70
     Davidson diagonalization with overlap
     ethr =  3.88E-06,  avg # of iterations =  2.0

     negative rho (up, down):  1.841E-07 0.000E+00

     total cpu time spent up to now is        8.0 secs

     total energy              =     -34.18264451 Ry
     Harris-Foulkes estimate   =     -34.18264748 Ry
     estimated scf accuracy    <       0.00000730 Ry

     iteration # 10     ecut=    90.00 Ry     beta=0.70
     Davidson diagonalization with overlap
     ethr =  9.13E-08,  avg # of iterations =  3.0

     total cpu time spent up to now is        8.3 secs

     total energy              =     -34.18264870 Ry
     Harris-Foulkes estimate   =     -34.18264891 Ry
     estimated scf accuracy    <       0.00000055 Ry

     iteration # 11     ecut=    90.00 Ry     beta=0.70
     Davidson diagonalization with overlap
     ethr =  6.90E-09,  avg # of iterations =  2.0

     total cpu time spent up to now is        8.5 secs

     total energy              =     -34.18264862 Ry
     Harris-Foulkes estimate   =     -34.18264879 Ry
     estimated scf accuracy    <       0.00000004 Ry

     iteration # 12     ecut=    90.00 Ry     beta=0.70
     Davidson diagonalization with overlap
     ethr =  5.40E-10,  avg # of iterations =  2.0

     total cpu time spent up to now is        8.6 secs

     End of self-consistent calculation

          k = 0.0000 0.0000 0.0000 (115313 PWs)   bands (ev):

   -25.1832 -12.5789  -9.3659  -7.1001  -0.9535   0.4216   0.7675   1.1559

     the Fermi energy is    -5.0888 ev

!    total energy              =     -34.18264854 Ry
     Harris-Foulkes estimate   =     -34.18264862 Ry
     estimated scf accuracy    <          1.1E-09 Ry

     The total energy is the sum of the following terms:

     one-electron contribution =     -63.71469785 Ry
     hartree contribution      =      33.27166149 Ry
     xc contribution           =      -8.35855435 Ry
     ewald contribution        =       4.61894218 Ry
     smearing contrib. (-TS)   =       0.00000000 Ry

     convergence has been achieved in  12 iterations

     Forces acting on atoms (Ry/au):

     atom    1 type  1   force =     0.00360268    0.00107367   -0.01398349
     atom    2 type  1   force =     0.01054729   -0.02125280    0.00946471
     atom    3 type  2   force =    -0.01414997    0.02017913    0.00451877

     Total force =     0.038601     Total SCF correction =     0.000081

     number of scf cycles    =   3
     number of bfgs steps    =   1

     energy   old            =     -34.1737002621 Ry
     energy   new            =     -34.1826485359 Ry

     CASE: energy  _new < energy  _old

     new trust radius        =       0.0237550750 bohr
     new conv_thr            =       0.0000000021 Ry


ATOMIC_POSITIONS (angstrom)
H       -0.501867232   0.646112561   0.463430395
H        0.219523876  -0.666538088   0.691351685
O        0.031385357  -0.017547473  -0.028279080



     Writing output data file pwscf.save
     Check: negative starting charge=   -0.015990
     NEW-OLD atomic charge density approx. for the potential
     Check: negative starting charge=   -0.015990

     negative rho (up, down):  2.241E-03 0.000E+00

     total cpu time spent up to now is        9.2 secs

     per-process dynamical memory:    45.8 Mb

     Self-consistent Calculation

     iteration #  1     ecut=    90.00 Ry     beta=0.70
     Davidson diagonalization with overlap
     ethr =  1.00E-06,  avg # of iterations = 15.0

     negative rho (up, down):  5.771E-04 0.000E+00

     total cpu time spent up to now is        9.6 secs

     total energy              =     -34.17902478 Ry
     Harris-Foulkes estimate   =     -34.17815569 Ry
     estimated scf accuracy    <       0.00013532 Ry

     iteration #  2     ecut=    90.00 Ry     beta=0.70
     Davidson diagonalization with overlap
     ethr =  1.69E-06,  avg # of iterations = 14.0

     negative rho (up, down):  2.970E-04 0.000E+00

     total cpu time spent up to now is        9.9 secs

     total energy              =     -34.18313337 Ry
     Harris-Foulkes estimate   =     -34.18316038 Ry
     estimated scf accuracy    <       0.00005944 Ry

     iteration #  3     ecut=    90.00 Ry     beta=0.70
     Davidson diagonalization with overlap
     ethr =  7.43E-07,  avg # of iterations =  3.0

     negative rho (up, down):  7.877E-05 0.000E+00

     total cpu time spent up to now is       10.1 secs

     total energy              =     -34.18315159 Ry
     Harris-Foulkes estimate   =     -34.18315212 Ry
     estimated scf accuracy    <       0.00000685 Ry

     iteration #  4     ecut=    90.00 Ry     beta=0.70
     Davidson diagonalization with overlap
     ethr =  8.57E-08,  avg # of iterations =  3.0

     negative rho (up, down):  1.056E-06 0.000E+00

     total cpu time spent up to now is       10.4 secs

     total energy              =     -34.18315346 Ry
     Harris-Foulkes estimate   =     -34.18315309 Ry
     estimated scf accuracy    <       0.00000011 Ry

     iteration #  5     ecut=    90.00 Ry     beta=0.70
     Davidson diagonalization with overlap
     ethr =  1.39E-09,  avg # of iterations =  2.0

     total cpu time spent up to now is       10.6 secs

     total energy              =     -34.18315340 Ry
     Harris-Foulkes estimate   =     -34.18315352 Ry
     estimated scf accuracy    <          4.6E-09 Ry

     iteration #  6     ecut=    90.00 Ry     beta=0.70
     Davidson diagonalization with overlap
     ethr =  5.71E-11,  avg # of iterations =  2.0

     total cpu time spent up to now is       10.7 secs

     End of self-consistent calculation

          k = 0.0000 0.0000 0.0000 (115313 PWs)   bands (ev):

   -25.1060 -12.5704  -9.3157  -7.0854  -0.9665   0.4186   0.7524   1.1503

     the Fermi energy is    -5.0736 ev

!    total energy              =     -34.18315338 Ry
     Harris-Foulkes estimate   =     -34.18315340 Ry
     estimated scf accuracy    <          3.1E-10 Ry

     The total energy is the sum of the following terms:

     one-electron contribution =     -63.58087830 Ry
     hartree contribution      =      33.20912917 Ry
     xc contribution           =      -8.34834738 Ry
     ewald contribution        =       4.53694314 Ry
     smearing contrib. (-TS)   =       0.00000000 Ry

     convergence has been achieved in   6 iterations

     Forces acting on atoms (Ry/au):

     atom    1 type  1   force =    -0.00042455    0.00461303   -0.00737011
     atom    2 type  1   force =     0.00280459    0.00128893   -0.01139812
     atom    3 type  2   force =    -0.00238004   -0.00590196    0.01876823

     Total force =     0.024657     Total SCF correction =     0.000090

     number of scf cycles    =   4
     number of bfgs steps    =   2

     energy   old            =     -34.1826485359 Ry
     energy   new            =     -34.1831533758 Ry

     CASE: energy  _new < energy  _old

     new trust radius        =       0.0186479690 bohr
     new conv_thr            =       0.0000000005 Ry


ATOMIC_POSITIONS (angstrom)
H       -0.502998147   0.651161173   0.457660356
H        0.223777470  -0.671339670   0.687764007
O        0.028262678  -0.017794502  -0.018921363



     Writing output data file pwscf.save
     Check: negative starting charge=   -0.015990
     NEW-OLD atomic charge density approx. for the potential
     Check: negative starting charge=   -0.015986

     negative rho (up, down):  3.113E-03 0.000E+00

     total cpu time spent up to now is       11.2 secs

     per-process dynamical memory:    45.8 Mb

     Self-consistent Calculation

     iteration #  1     ecut=    90.00 Ry     beta=0.70
     Davidson diagonalization with overlap
     c_bands:  1 eigenvalues not converged
     ethr =  1.00E-06,  avg # of iterations = 20.0

     negative rho (up, down):  8.042E-04 0.000E+00

     total cpu time spent up to now is       11.7 secs

     total energy              =     -34.17935818 Ry
     Harris-Foulkes estimate   =     -34.17733111 Ry
     estimated scf accuracy    <       0.00011350 Ry

     iteration #  2     ecut=    90.00 Ry     beta=0.70
     Davidson diagonalization with overlap
     ethr =  1.42E-06,  avg # of iterations =  8.0

     negative rho (up, down):  4.846E-04 0.000E+00

     total cpu time spent up to now is       11.9 secs

     total energy              =     -34.18348432 Ry
     Harris-Foulkes estimate   =     -34.18351327 Ry
     estimated scf accuracy    <       0.00010444 Ry

     iteration #  3     ecut=    90.00 Ry     beta=0.70
     Davidson diagonalization with overlap
     ethr =  1.31E-06,  avg # of iterations =  3.0

     negative rho (up, down):  3.763E-05 0.000E+00

     total cpu time spent up to now is       12.4 secs

     total energy              =     -34.18351380 Ry
     Harris-Foulkes estimate   =     -34.18350695 Ry
     estimated scf accuracy    <       0.00000161 Ry

     iteration #  4     ecut=    90.00 Ry     beta=0.70
     Davidson diagonalization with overlap
     ethr =  2.01E-08,  avg # of iterations =  4.0

     negative rho (up, down):  3.104E-07 0.000E+00

     total cpu time spent up to now is       12.6 secs

     total energy              =     -34.18351370 Ry
     Harris-Foulkes estimate   =     -34.18351443 Ry
     estimated scf accuracy    <       0.00000005 Ry

     iteration #  5     ecut=    90.00 Ry     beta=0.70
     Davidson diagonalization with overlap
     ethr =  6.01E-10,  avg # of iterations =  3.0

     total cpu time spent up to now is       12.8 secs

     total energy              =     -34.18351366 Ry
     Harris-Foulkes estimate   =     -34.18351373 Ry
     estimated scf accuracy    <          2.4E-09 Ry

     iteration #  6     ecut=    90.00 Ry     beta=0.70
     Davidson diagonalization with overlap
     ethr =  3.06E-11,  avg # of iterations =  2.0

     total cpu time spent up to now is       12.9 secs

     End of self-consistent calculation

          k = 0.0000 0.0000 0.0000 (115313 PWs)   bands (ev):

   -25.1280 -12.6999  -9.2355  -7.0860  -0.9474   0.4251   0.7589   1.1531

     the Fermi energy is    -5.0771 ev

!    total energy              =     -34.18351364 Ry
     Harris-Foulkes estimate   =     -34.18351366 Ry
     estimated scf accuracy    <          8.5E-11 Ry

     The total energy is the sum of the following terms:

     one-electron contribution =     -63.68419974 Ry
     hartree contribution      =      33.26103667 Ry
     xc contribution           =      -8.35687225 Ry
     ewald contribution        =       4.59652168 Ry
     smearing contrib. (-TS)   =       0.00000000 Ry

     convergence has been achieved in   6 iterations

     Forces acting on atoms (Ry/au):

     atom    1 type  1   force =    -0.00384948    0.00712685    0.00014977
     atom    2 type  1   force =     0.00188834   -0.00067966   -0.00323089
     atom    3 type  2   force =     0.00196114   -0.00644719    0.00308112

     Total force =     0.011619     Total SCF correction =     0.000013

     number of scf cycles    =   5
     number of bfgs steps    =   3

     energy   old            =     -34.1831533758 Ry
     energy   new            =     -34.1835136415 Ry

     CASE: energy  _new < energy  _old

     new trust radius        =       0.0125183515 bohr
     new conv_thr            =       0.0000000004 Ry


ATOMIC_POSITIONS (angstrom)
H       -0.505060580   0.656696885   0.454662811
H        0.227173308  -0.675379208   0.686173464
O        0.026929272  -0.019290677  -0.014333275



     Writing output data file pwscf.save
     Check: negative starting charge=   -0.015986
     NEW-OLD atomic charge density approx. for the potential
     Check: negative starting charge=   -0.015983

     negative rho (up, down):  1.480E-03 0.000E+00

     total cpu time spent up to now is       13.7 secs

     per-process dynamical memory:    45.8 Mb

     Self-consistent Calculation

     iteration #  1     ecut=    90.00 Ry     beta=0.70
     Davidson diagonalization with overlap
     ethr =  1.00E-06,  avg # of iterations =  8.0

     negative rho (up, down):  3.739E-04 0.000E+00

     total cpu time spent up to now is       14.0 secs

     total energy              =     -34.17952277 Ry
     Harris-Foulkes estimate   =     -34.17927450 Ry
     estimated scf accuracy    <       0.00001623 Ry

     iteration #  2     ecut=    90.00 Ry     beta=0.70
     Davidson diagonalization with overlap
     ethr =  2.03E-07,  avg # of iterations =  5.0

     negative rho (up, down):  1.331E-04 0.000E+00

     total cpu time spent up to now is       14.2 secs

     total energy              =     -34.18360881 Ry
     Harris-Foulkes estimate   =     -34.18360577 Ry
     estimated scf accuracy    <       0.00000392 Ry

     iteration #  3     ecut=    90.00 Ry     beta=0.70
     Davidson diagonalization with overlap
     ethr =  4.90E-08,  avg # of iterations =  3.0

     negative rho (up, down):  1.251E-05 0.000E+00

     total cpu time spent up to now is       14.4 secs

     total energy              =     -34.18360809 Ry
     Harris-Foulkes estimate   =     -34.18361053 Ry
     estimated scf accuracy    <       0.00000161 Ry

     iteration #  4     ecut=    90.00 Ry     beta=0.70
     Davidson diagonalization with overlap
     ethr =  2.01E-08,  avg # of iterations =  3.0

     negative rho (up, down):  1.400E-08 0.000E+00

     total cpu time spent up to now is       14.6 secs

     total energy              =     -34.18360806 Ry
     Harris-Foulkes estimate   =     -34.18360845 Ry
     estimated scf accuracy    <       0.00000001 Ry

     iteration #  5     ecut=    90.00 Ry     beta=0.70
     Davidson diagonalization with overlap
     ethr =  1.58E-10,  avg # of iterations =  2.0

     total cpu time spent up to now is       14.8 secs

     total energy              =     -34.18360804 Ry
     Harris-Foulkes estimate   =     -34.18360807 Ry
     estimated scf accuracy    <          7.9E-10 Ry

     iteration #  6     ecut=    90.00 Ry     beta=0.70
     Davidson diagonalization with overlap
     ethr =  9.83E-12,  avg # of iterations =  2.0

     total cpu time spent up to now is       15.0 secs

     End of self-consistent calculation

          k = 0.0000 0.0000 0.0000 (115313 PWs)   bands (ev):

   -25.1102 -12.7516  -9.1831  -7.0810  -0.9445   0.4266   0.7565   1.1519

     the Fermi energy is    -5.0735 ev

!    total energy              =     -34.18360804 Ry
     Harris-Foulkes estimate   =     -34.18360804 Ry
     estimated scf accuracy    <          8.9E-11 Ry

     The total energy is the sum of the following terms:

     one-electron contribution =     -63.68065464 Ry
     hartree contribution      =      33.26097760 Ry
     xc contribution           =      -8.35688156 Ry
     ewald contribution        =       4.59295056 Ry
     smearing contrib. (-TS)   =       0.00000000 Ry

     convergence has been achieved in   6 iterations

     Forces acting on atoms (Ry/au):

     atom    1 type  1   force =    -0.00118717    0.00255743    0.00065504
     atom    2 type  1   force =     0.00085506   -0.00047584    0.00035522
     atom    3 type  2   force =     0.00033211   -0.00208159   -0.00101027

     Total force =     0.003863     Total SCF correction =     0.000013

     number of scf cycles    =   6
     number of bfgs steps    =   4

     energy   old            =     -34.1835136415 Ry
     energy   new            =     -34.1836080420 Ry

     CASE: energy  _new < energy  _old

     new trust radius        =       0.0039372978 bohr
     new conv_thr            =            1.0E-10 Ry


ATOMIC_POSITIONS (angstrom)
H       -0.505621420   0.658591442   0.454001597
H        0.228344096  -0.676506068   0.686179642
O        0.026319324  -0.020058374  -0.013678239



     Writing output data file pwscf.save
     Check: negative starting charge=   -0.015983
     NEW-OLD atomic charge density approx. for the potential
     Check: negative starting charge=   -0.015981

     negative rho (up, down):  2.868E-04 0.000E+00

     total cpu time spent up to now is       15.5 secs

     per-process dynamical memory:    45.8 Mb

     Self-consistent Calculation

     iteration #  1     ecut=    90.00 Ry     beta=0.70
     Davidson diagonalization with overlap
     ethr =  1.00E-06,  avg # of iterations =  3.0

     Threshold (ethr) on eigenvalues was too large:
     Diagonalizing with lowered threshold

     Davidson diagonalization with overlap
     ethr =  2.16E-08,  avg # of iterations =  2.0

     negative rho (up, down):  6.253E-05 0.000E+00

     total cpu time spent up to now is       16.0 secs

     total energy              =     -34.18361638 Ry
     Harris-Foulkes estimate   =     -34.18361340 Ry
     estimated scf accuracy    <       0.00000182 Ry

     iteration #  2     ecut=    90.00 Ry     beta=0.70
     Davidson diagonalization with overlap
     ethr =  2.27E-08,  avg # of iterations =  2.0

     negative rho (up, down):  2.134E-05 0.000E+00

     total cpu time spent up to now is       16.2 secs

     total energy              =     -34.18361652 Ry
     Harris-Foulkes estimate   =     -34.18361691 Ry
     estimated scf accuracy    <       0.00000050 Ry

     iteration #  3     ecut=    90.00 Ry     beta=0.70
     Davidson diagonalization with overlap
     ethr =  6.23E-09,  avg # of iterations =  2.0

     negative rho (up, down):  7.721E-07 0.000E+00

     total cpu time spent up to now is       16.4 secs

     total energy              =     -34.18361650 Ry
     Harris-Foulkes estimate   =     -34.18361673 Ry
     estimated scf accuracy    <       0.00000015 Ry

     iteration #  4     ecut=    90.00 Ry     beta=0.70
     Davidson diagonalization with overlap
     ethr =  1.85E-09,  avg # of iterations =  2.0

     total cpu time spent up to now is       16.5 secs

     total energy              =     -34.18361638 Ry
     Harris-Foulkes estimate   =     -34.18361654 Ry
     estimated scf accuracy    <          1.6E-09 Ry

     iteration #  5     ecut=    90.00 Ry     beta=0.70
     Davidson diagonalization with overlap
     ethr =  2.02E-11,  avg # of iterations =  2.0

     total cpu time spent up to now is       16.7 secs

     total energy              =     -34.18361632 Ry
     Harris-Foulkes estimate   =     -34.18361638 Ry
     estimated scf accuracy    <          1.1E-10 Ry

     iteration #  6     ecut=    90.00 Ry     beta=0.70
     Davidson diagonalization with overlap
     ethr =  1.39E-12,  avg # of iterations =  2.0

     total cpu time spent up to now is       16.9 secs

     End of self-consistent calculation

          k = 0.0000 0.0000 0.0000 (115313 PWs)   bands (ev):

   -25.0989 -12.7567  -9.1703  -7.0786  -0.9460   0.4262   0.7543   1.1516

     the Fermi energy is    -5.0709 ev

!    total energy              =     -34.18361629 Ry
     Harris-Foulkes estimate   =     -34.18361632 Ry
     estimated scf accuracy    <          9.7E-12 Ry

     The total energy is the sum of the following terms:

     one-electron contribution =     -63.66409734 Ry
     hartree contribution      =      33.25348831 Ry
     xc contribution           =      -8.35566261 Ry
     ewald contribution        =       4.58265535 Ry
     smearing contrib. (-TS)   =       0.00000000 Ry

     convergence has been achieved in   6 iterations

     Forces acting on atoms (Ry/au):

     atom    1 type  1   force =     0.00024620    0.00037975    0.00008923
     atom    2 type  1   force =     0.00036219    0.00025173    0.00048641
     atom    3 type  2   force =    -0.00060839   -0.00063148   -0.00057563

     Total force =     0.001321     Total SCF correction =     0.000011

     bfgs converged in   7 scf cycles and   5 bfgs steps
     (criteria: energy <  1.0E-04, force <  1.0E-03)

     End of BFGS Geometry Optimization

     Final energy   =     -34.1836162868 Ry
Begin final coordinates

ATOMIC_POSITIONS (angstrom)
H       -0.505621420   0.658591442   0.454001597
H        0.228344096  -0.676506068   0.686179642
O        0.026319324  -0.020058374  -0.013678239
End final coordinates



     Writing output data file pwscf.save
 
     init_run     :      0.52s CPU      0.56s WALL (       1 calls)
     electrons    :     11.60s CPU     13.63s WALL (       7 calls)
     update_pot   :      1.53s CPU      1.79s WALL (       6 calls)
     forces       :      0.46s CPU      0.47s WALL (       7 calls)

     Called by init_run:
     wfcinit      :      0.02s CPU      0.04s WALL (       1 calls)
     potinit      :      0.11s CPU      0.12s WALL (       1 calls)

     Called by electrons:
     c_bands      :      5.32s CPU      5.39s WALL (      52 calls)
     sum_band     :      1.08s CPU      1.10s WALL (      52 calls)
     v_of_rho     :      3.02s CPU      3.22s WALL (      58 calls)
     mix_rho      :      1.42s CPU      2.39s WALL (      52 calls)

     Called by c_bands:
     init_us_2    :      0.03s CPU      0.03s WALL (     105 calls)
     cegterg      :      5.29s CPU      5.34s WALL (      52 calls)

     Called by sum_band:

     Called by *egterg:
     h_psi        :      4.57s CPU      4.60s WALL (     314 calls)
     g_psi        :      0.04s CPU      0.04s WALL (     261 calls)
     cdiaghg      :      0.08s CPU      0.08s WALL (     306 calls)

     Called by h_psi:
     h_psi:pot    :      4.53s CPU      4.56s WALL (     314 calls)
     h_psi:calbec :      0.13s CPU      0.14s WALL (     314 calls)
     vloc_psi     :      4.36s CPU      4.38s WALL (     314 calls)
     add_vuspsi   :      0.03s CPU      0.03s WALL (     314 calls)

     General routines
     calbec       :      0.13s CPU      0.14s WALL (     342 calls)
     fft          :      2.15s CPU      2.35s WALL (     653 calls)
     fftw         :      4.36s CPU      4.40s WALL (    3396 calls)
     davcio       :      0.15s CPU      0.96s WALL (     426 calls)
 
     Parallel routines
     fft_scatter  :      2.40s CPU      2.62s WALL (    4049 calls)
 
     PWSCF        :    14.78s CPU        17.67s WALL

 
   This run was terminated on:   2:14:19  28Jul2018            

=------------------------------------------------------------------------------=
   JOB DONE.
=------------------------------------------------------------------------------=
