
     Program PWSCF v.6.0 (svn rev. 13079) starts on 28Jul2018 at  2:40:29 

     This program is part of the open-source Quantum ESPRESSO suite
     for quantum simulation of materials; please cite
         "P. Giannozzi et al., J. Phys.:Condens. Matter 21 395502 (2009);
          URL http://www.quantum-espresso.org", 
     in publications or presentations arising from this work. More details at
     http://www.quantum-espresso.org/quote

     Parallel version (MPI), running on    28 processors
     R & G space division:  proc/nbgrp/npool/nimage =      28
     Reading input from ../QMCmins/relax-70.in

     Current dimensions of program PWSCF are:
     Max number of different atomic species (ntypx) = 10
     Max number of k-points (npk) =  40000
     Max angular momentum in pseudopotentials (lmaxx) =  3
     Message from routine iosys:
     pot_extrapolation='second-order' not available, using 'atomic'
     Message from routine iosys:
     wfc_extrapolation='second-order' not available, using 'atomic'

     Subspace diagonalization in iterative solution of the eigenvalue problem:
     a serial algorithm will be used

 
     Parallelization info
     --------------------
     sticks:   dense  smooth     PW     G-vecs:    dense   smooth      PW
     Min         408     408    102                32936    32936    4116
     Max         409     409    103                32943    32943    4121
     Sum       11449   11449   2869               922329   922329  115313
 


     bravais-lattice index     =            1
     lattice parameter (alat)  =      20.0000  a.u.
     unit-cell volume          =    8000.0000 (a.u.)^3
     number of atoms/cell      =            3
     number of atomic types    =            2
     number of electrons       =         8.00
     number of Kohn-Sham states=            8
     kinetic-energy cutoff     =      90.0000  Ry
     charge density cutoff     =     360.0000  Ry
     convergence threshold     =      1.0E-08
     mixing beta               =       0.7000
     number of iterations used =            8  plain     mixing
     Exchange-correlation      = BLYP ( 1  3  1  3 0 0)
     nstep                     =           50


     celldm(1)=  20.000000  celldm(2)=   0.000000  celldm(3)=   0.000000
     celldm(4)=   0.000000  celldm(5)=   0.000000  celldm(6)=   0.000000

     crystal axes: (cart. coord. in units of alat)
               a(1) = (   1.000000   0.000000   0.000000 )  
               a(2) = (   0.000000   1.000000   0.000000 )  
               a(3) = (   0.000000   0.000000   1.000000 )  

     reciprocal axes: (cart. coord. in units 2 pi/alat)
               b(1) = (  1.000000  0.000000  0.000000 )  
               b(2) = (  0.000000  1.000000  0.000000 )  
               b(3) = (  0.000000  0.000000  1.000000 )  


     PseudoPot. # 1 for  H read from file:
     ../H.blyp-hgh.UPF
     MD5 check sum: c576e69559cde411e611be972c763230
     Pseudo is Norm-conserving, Zval =  1.0
     Generated in analytical, separable form
     Using radial grid of  929 points,  0 beta functions with: 

     PseudoPot. # 2 for  O read from file:
     ../O.blyp-hgh.UPF
     MD5 check sum: d0b7156309aa9befef28faac7bc56342
     Pseudo is Norm-conserving, Zval =  6.0
     Generated in analytical, separable form
     Using radial grid of 1095 points,  1 beta functions with: 
                l(1) =   0

     atomic species   valence    mass     pseudopotential
        H              1.00     1.01000      H( 1.00)
        O              6.00    16.00000      O( 1.00)

     No symmetry found



   Cartesian axes

     site n.     atom                  positions (alat units)
         1           H   tau(   1) = (   0.0105571  -0.0389667  -0.0798968  )
         2           H   tau(   2) = (   0.0143541   0.0838481  -0.0174724  )
         3           O   tau(   3) = (  -0.0015725  -0.0028332   0.0117244  )

     number of k points=     1  Marzari-Vanderbilt smearing, width (Ry)=  0.0250
                       cart. coord. in units 2pi/alat
        k(    1) = (   0.0000000   0.0000000   0.0000000), wk =   2.0000000

     Dense  grid:   922329 G-vectors     FFT dimensions: ( 125, 125, 125)

     Estimated max dynamical RAM per process >      31.67Mb

     Estimated total allocated dynamical RAM >     886.64Mb

     Initial potential from superposition of free atoms
     Check: negative starting charge=   -0.016008

     starting charge    7.99998, renormalised to    8.00000

     negative rho (up, down):  1.601E-02 0.000E+00
     Starting wfc are    6 randomized atomic wfcs +    2 random wfc

     total cpu time spent up to now is        0.8 secs

     per-process dynamical memory:    33.5 Mb

     Self-consistent Calculation

     iteration #  1     ecut=    90.00 Ry     beta=0.70
     Davidson diagonalization with overlap
     ethr =  1.00E-02,  avg # of iterations =  7.0

     negative rho (up, down):  4.657E-03 0.000E+00

     total cpu time spent up to now is        1.1 secs

     total energy              =     -34.03515308 Ry
     Harris-Foulkes estimate   =     -34.24793537 Ry
     estimated scf accuracy    <       0.32509106 Ry

     iteration #  2     ecut=    90.00 Ry     beta=0.70
     Davidson diagonalization with overlap
     ethr =  4.06E-03,  avg # of iterations =  2.0

     negative rho (up, down):  2.925E-03 0.000E+00

     total cpu time spent up to now is        1.3 secs

     total energy              =     -34.07843175 Ry
     Harris-Foulkes estimate   =     -34.26463515 Ry
     estimated scf accuracy    <       0.41179811 Ry

     iteration #  3     ecut=    90.00 Ry     beta=0.70
     Davidson diagonalization with overlap
     ethr =  4.06E-03,  avg # of iterations =  2.0

     negative rho (up, down):  1.266E-04 0.000E+00

     total cpu time spent up to now is        1.5 secs

     total energy              =     -34.16921027 Ry
     Harris-Foulkes estimate   =     -34.16989273 Ry
     estimated scf accuracy    <       0.00594646 Ry

     iteration #  4     ecut=    90.00 Ry     beta=0.70
     Davidson diagonalization with overlap
     ethr =  7.43E-05,  avg # of iterations =  6.0

     negative rho (up, down):  7.851E-06 0.000E+00

     total cpu time spent up to now is        1.7 secs

     total energy              =     -34.17077837 Ry
     Harris-Foulkes estimate   =     -34.17087665 Ry
     estimated scf accuracy    <       0.00027097 Ry

     iteration #  5     ecut=    90.00 Ry     beta=0.70
     Davidson diagonalization with overlap
     c_bands:  1 eigenvalues not converged
     ethr =  3.39E-06,  avg # of iterations = 20.0

     negative rho (up, down):  4.562E-07 0.000E+00

     total cpu time spent up to now is        2.0 secs

     total energy              =     -34.17079647 Ry
     Harris-Foulkes estimate   =     -34.17080155 Ry
     estimated scf accuracy    <       0.00002073 Ry

     iteration #  6     ecut=    90.00 Ry     beta=0.70
     Davidson diagonalization with overlap
     ethr =  2.59E-07,  avg # of iterations = 17.0

     negative rho (up, down):  2.852E-07 0.000E+00

     total cpu time spent up to now is        2.3 secs

     total energy              =     -34.17079876 Ry
     Harris-Foulkes estimate   =     -34.17079867 Ry
     estimated scf accuracy    <       0.00000144 Ry

     iteration #  7     ecut=    90.00 Ry     beta=0.70
     Davidson diagonalization with overlap
     ethr =  1.80E-08,  avg # of iterations =  2.0

     total cpu time spent up to now is        2.5 secs

     total energy              =     -34.17079859 Ry
     Harris-Foulkes estimate   =     -34.17079896 Ry
     estimated scf accuracy    <       0.00000004 Ry

     iteration #  8     ecut=    90.00 Ry     beta=0.70
     Davidson diagonalization with overlap
     ethr =  5.24E-10,  avg # of iterations =  2.0

     total cpu time spent up to now is        2.6 secs

     End of self-consistent calculation

          k = 0.0000 0.0000 0.0000 (115313 PWs)   bands (ev):

   -24.9615 -11.8641  -9.7208  -7.0775  -1.1149   0.3629   0.6945   1.1065

     the Fermi energy is    -5.0704 ev

!    total energy              =     -34.17079848 Ry
     Harris-Foulkes estimate   =     -34.17079860 Ry
     estimated scf accuracy    <          3.5E-09 Ry

     The total energy is the sum of the following terms:

     one-electron contribution =     -62.94958376 Ry
     hartree contribution      =      32.89336879 Ry
     xc contribution           =      -8.29705671 Ry
     ewald contribution        =       4.18247319 Ry
     smearing contrib. (-TS)   =       0.00000000 Ry

     convergence has been achieved in   8 iterations

     Forces acting on atoms (Ry/au):

     atom    1 type  1   force =    -0.01653939    0.00457522    0.09440315
     atom    2 type  1   force =    -0.00242568    0.02107081    0.02784496
     atom    3 type  2   force =     0.01896506   -0.02564603   -0.12224811

     Total force =     0.162461     Total SCF correction =     0.000077

     BFGS Geometry Optimization

     number of scf cycles    =   1
     number of bfgs steps    =   0

     energy   new            =     -34.1707984794 Ry

     new trust radius        =       0.1263407787 bohr
     new conv_thr            =       0.0000000100 Ry


ATOMIC_POSITIONS (angstrom)
H        0.102979733  -0.409984896  -0.795635003
H        0.150633388   0.898560190  -0.170185084
O       -0.006607121  -0.043556294   0.059395087



     Writing output data file pwscf.save
     Check: negative starting charge=   -0.016008
     NEW-OLD atomic charge density approx. for the potential
     Check: negative starting charge=   -0.016036

     negative rho (up, down):  2.168E-02 0.000E+00

     total cpu time spent up to now is        3.2 secs

     per-process dynamical memory:    45.8 Mb

     Self-consistent Calculation

     iteration #  1     ecut=    90.00 Ry     beta=0.70
     Davidson diagonalization with overlap
     c_bands:  1 eigenvalues not converged
     ethr =  1.00E-06,  avg # of iterations = 20.0

     negative rho (up, down):  5.791E-03 0.000E+00

     total cpu time spent up to now is        3.7 secs

     total energy              =     -34.16267940 Ry
     Harris-Foulkes estimate   =     -34.15456329 Ry
     estimated scf accuracy    <       0.01124265 Ry

     iteration #  2     ecut=    90.00 Ry     beta=0.70
     Davidson diagonalization with overlap
     ethr =  1.41E-04,  avg # of iterations =  4.0

     negative rho (up, down):  3.562E-03 0.000E+00

     total cpu time spent up to now is        3.9 secs

     total energy              =     -34.16865954 Ry
     Harris-Foulkes estimate   =     -34.17056959 Ry
     estimated scf accuracy    <       0.01102315 Ry

     iteration #  3     ecut=    90.00 Ry     beta=0.70
     Davidson diagonalization with overlap
     ethr =  1.38E-04,  avg # of iterations =  2.0

     negative rho (up, down):  8.271E-04 0.000E+00

     total cpu time spent up to now is        4.1 secs

     total energy              =     -34.17374223 Ry
     Harris-Foulkes estimate   =     -34.17096023 Ry
     estimated scf accuracy    <       0.00009268 Ry

     iteration #  4     ecut=    90.00 Ry     beta=0.70
     Davidson diagonalization with overlap
     ethr =  1.16E-06,  avg # of iterations = 15.0

     negative rho (up, down):  9.952E-05 0.000E+00

     total cpu time spent up to now is        4.5 secs

     total energy              =     -34.17789768 Ry
     Harris-Foulkes estimate   =     -34.17786770 Ry
     estimated scf accuracy    <       0.00000328 Ry

     iteration #  5     ecut=    90.00 Ry     beta=0.70
     Davidson diagonalization with overlap
     ethr =  4.11E-08,  avg # of iterations =  5.0

     negative rho (up, down):  3.647E-07 0.000E+00

     total cpu time spent up to now is        4.7 secs

     total energy              =     -34.17789608 Ry
     Harris-Foulkes estimate   =     -34.17789885 Ry
     estimated scf accuracy    <       0.00000016 Ry

     iteration #  6     ecut=    90.00 Ry     beta=0.70
     Davidson diagonalization with overlap
     ethr =  2.02E-09,  avg # of iterations =  2.0

     total cpu time spent up to now is        4.9 secs

     End of self-consistent calculation

          k = 0.0000 0.0000 0.0000 (115313 PWs)   bands (ev):

   -25.4503 -12.6806  -9.4723  -7.1469  -0.9091   0.4326   0.8074   1.1200

     the Fermi energy is    -5.1825 ev

!    total energy              =     -34.17789579 Ry
     Harris-Foulkes estimate   =     -34.17789615 Ry
     estimated scf accuracy    <          5.2E-09 Ry

     The total energy is the sum of the following terms:

     one-electron contribution =     -64.20117581 Ry
     hartree contribution      =      33.50129094 Ry
     xc contribution           =      -8.39640729 Ry
     ewald contribution        =       4.91839637 Ry
     smearing contrib. (-TS)   =       0.00000000 Ry

     convergence has been achieved in   6 iterations

     Forces acting on atoms (Ry/au):

     atom    1 type  1   force =     0.00844262   -0.05910167   -0.08629987
     atom    2 type  1   force =    -0.00230841    0.00745498    0.01823549
     atom    3 type  2   force =    -0.00613421    0.05164669    0.06806438

     Total force =     0.136906     Total SCF correction =     0.000326

     number of scf cycles    =   2
     number of bfgs steps    =   1

     energy   old            =     -34.1707984794 Ry
     energy   new            =     -34.1778957910 Ry

     CASE: energy  _new < energy  _old

     new trust radius        =       0.0553907116 bohr
     new conv_thr            =       0.0000000071 Ry


ATOMIC_POSITIONS (angstrom)
H        0.104830301  -0.428498993  -0.818283795
H        0.149780062   0.901977735  -0.163010084
O       -0.007604363  -0.028459742   0.074868879



     Writing output data file pwscf.save
     Check: negative starting charge=   -0.016036
     NEW-OLD atomic charge density approx. for the potential
     Check: negative starting charge=   -0.016033

     negative rho (up, down):  7.319E-03 0.000E+00

     total cpu time spent up to now is        5.5 secs

     per-process dynamical memory:    45.8 Mb

     Self-consistent Calculation

     iteration #  1     ecut=    90.00 Ry     beta=0.70
     Davidson diagonalization with overlap
     ethr =  1.00E-06,  avg # of iterations = 16.0

     negative rho (up, down):  1.919E-03 0.000E+00

     total cpu time spent up to now is        5.9 secs

     total energy              =     -34.17697995 Ry
     Harris-Foulkes estimate   =     -34.17100741 Ry
     estimated scf accuracy    <       0.00147112 Ry

     iteration #  2     ecut=    90.00 Ry     beta=0.70
     Davidson diagonalization with overlap
     ethr =  1.84E-05,  avg # of iterations =  6.0

     negative rho (up, down):  1.091E-03 0.000E+00

     total cpu time spent up to now is        6.2 secs

     total energy              =     -34.18191385 Ry
     Harris-Foulkes estimate   =     -34.18182959 Ry
     estimated scf accuracy    <       0.00087837 Ry

     iteration #  3     ecut=    90.00 Ry     beta=0.70
     Davidson diagonalization with overlap
     ethr =  1.10E-05,  avg # of iterations =  5.0

     negative rho (up, down):  3.274E-04 0.000E+00

     total cpu time spent up to now is        6.4 secs

     total energy              =     -34.18219422 Ry
     Harris-Foulkes estimate   =     -34.18215377 Ry
     estimated scf accuracy    <       0.00005050 Ry

     iteration #  4     ecut=    90.00 Ry     beta=0.70
     Davidson diagonalization with overlap
     ethr =  6.31E-07,  avg # of iterations =  7.0

     negative rho (up, down):  1.496E-05 0.000E+00

     total cpu time spent up to now is        6.7 secs

     total energy              =     -34.18220944 Ry
     Harris-Foulkes estimate   =     -34.18220557 Ry
     estimated scf accuracy    <       0.00000078 Ry

     iteration #  5     ecut=    90.00 Ry     beta=0.70
     Davidson diagonalization with overlap
     ethr =  9.81E-09,  avg # of iterations =  4.0

     negative rho (up, down):  1.383E-07 0.000E+00

     total cpu time spent up to now is        6.9 secs

     total energy              =     -34.18220991 Ry
     Harris-Foulkes estimate   =     -34.18220979 Ry
     estimated scf accuracy    <       0.00000003 Ry

     iteration #  6     ecut=    90.00 Ry     beta=0.70
     Davidson diagonalization with overlap
     ethr =  3.95E-10,  avg # of iterations =  2.0

     total cpu time spent up to now is        7.1 secs

     End of self-consistent calculation

          k = 0.0000 0.0000 0.0000 (115313 PWs)   bands (ev):

   -25.2107 -12.5220  -9.4271  -7.1070  -0.9557   0.4205   0.7658   1.1175

     the Fermi energy is    -5.1244 ev

!    total energy              =     -34.18220997 Ry
     Harris-Foulkes estimate   =     -34.18220993 Ry
     estimated scf accuracy    <          2.4E-09 Ry

     The total energy is the sum of the following terms:

     one-electron contribution =     -63.73199275 Ry
     hartree contribution      =      33.27810772 Ry
     xc contribution           =      -8.35945727 Ry
     ewald contribution        =       4.63113233 Ry
     smearing contrib. (-TS)   =       0.00000000 Ry

     convergence has been achieved in   6 iterations

     Forces acting on atoms (Ry/au):

     atom    1 type  1   force =    -0.00355649   -0.01337210    0.00837260
     atom    2 type  1   force =     0.00072628    0.02390118    0.01035030
     atom    3 type  2   force =     0.00283021   -0.01052907   -0.01872290

     Total force =     0.037549     Total SCF correction =     0.000308

     number of scf cycles    =   3
     number of bfgs steps    =   2

     energy   old            =     -34.1778957910 Ry
     energy   new            =     -34.1822099683 Ry

     CASE: energy  _new < energy  _old

     new trust radius        =       0.0292088792 bohr
     new conv_thr            =       0.0000000024 Ry


ATOMIC_POSITIONS (angstrom)
H        0.103310023  -0.440524621  -0.819117746
H        0.149862110   0.915360091  -0.155276095
O       -0.006166133  -0.029816470   0.067968841



     Writing output data file pwscf.save
     Check: negative starting charge=   -0.016033
     NEW-OLD atomic charge density approx. for the potential
     Check: negative starting charge=   -0.016015

     negative rho (up, down):  2.197E-03 0.000E+00

     total cpu time spent up to now is        7.6 secs

     per-process dynamical memory:    45.8 Mb

     Self-consistent Calculation

     iteration #  1     ecut=    90.00 Ry     beta=0.70
     Davidson diagonalization with overlap
     ethr =  1.00E-06,  avg # of iterations = 15.0

     negative rho (up, down):  5.644E-04 0.000E+00

     total cpu time spent up to now is        8.0 secs

     total energy              =     -34.17903304 Ry
     Harris-Foulkes estimate   =     -34.17811014 Ry
     estimated scf accuracy    <       0.00009018 Ry

     iteration #  2     ecut=    90.00 Ry     beta=0.70
     Davidson diagonalization with overlap
     ethr =  1.13E-06,  avg # of iterations = 15.0

     negative rho (up, down):  2.501E-04 0.000E+00

     total cpu time spent up to now is        8.3 secs

     total energy              =     -34.18313180 Ry
     Harris-Foulkes estimate   =     -34.18313807 Ry
     estimated scf accuracy    <       0.00002601 Ry

     iteration #  3     ecut=    90.00 Ry     beta=0.70
     Davidson diagonalization with overlap
     ethr =  3.25E-07,  avg # of iterations =  2.0

     negative rho (up, down):  3.875E-05 0.000E+00

     total cpu time spent up to now is        8.5 secs

     total energy              =     -34.18313958 Ry
     Harris-Foulkes estimate   =     -34.18314204 Ry
     estimated scf accuracy    <       0.00000732 Ry

     iteration #  4     ecut=    90.00 Ry     beta=0.70
     Davidson diagonalization with overlap
     ethr =  9.15E-08,  avg # of iterations =  3.0

     negative rho (up, down):  4.196E-07 0.000E+00

     total cpu time spent up to now is        8.7 secs

     total energy              =     -34.18314039 Ry
     Harris-Foulkes estimate   =     -34.18314115 Ry
     estimated scf accuracy    <       0.00000011 Ry

     iteration #  5     ecut=    90.00 Ry     beta=0.70
     Davidson diagonalization with overlap
     ethr =  1.36E-09,  avg # of iterations =  2.0

     total cpu time spent up to now is        8.9 secs

     total energy              =     -34.18314040 Ry
     Harris-Foulkes estimate   =     -34.18314044 Ry
     estimated scf accuracy    <          4.2E-09 Ry

     iteration #  6     ecut=    90.00 Ry     beta=0.70
     Davidson diagonalization with overlap
     ethr =  5.31E-11,  avg # of iterations =  2.0

     total cpu time spent up to now is        9.1 secs

     End of self-consistent calculation

          k = 0.0000 0.0000 0.0000 (115313 PWs)   bands (ev):

   -25.1264 -12.5721  -9.3295  -7.0895  -0.9627   0.4194   0.7506   1.1176

     the Fermi energy is    -5.1033 ev

!    total energy              =     -34.18314038 Ry
     Harris-Foulkes estimate   =     -34.18314040 Ry
     estimated scf accuracy    <          2.2E-10 Ry

     The total energy is the sum of the following terms:

     one-electron contribution =     -63.61681130 Ry
     hartree contribution      =      33.22587120 Ry
     xc contribution           =      -8.35105558 Ry
     ewald contribution        =       4.55885529 Ry
     smearing contrib. (-TS)   =       0.00000000 Ry

     convergence has been achieved in   6 iterations

     Forces acting on atoms (Ry/au):

     atom    1 type  1   force =    -0.00214312   -0.00779628    0.00540757
     atom    2 type  1   force =    -0.00181338    0.00079946    0.00967919
     atom    3 type  2   force =     0.00395649    0.00699682   -0.01508676

     Total force =     0.022010     Total SCF correction =     0.000052

     number of scf cycles    =   4
     number of bfgs steps    =   3

     energy   old            =     -34.1822099683 Ry
     energy   new            =     -34.1831403774 Ry

     CASE: energy  _new < energy  _old

     new trust radius        =       0.0367764585 bohr
     new conv_thr            =       0.0000000009 Ry


ATOMIC_POSITIONS (angstrom)
H        0.100519350  -0.459772504  -0.818430786
H        0.148063311   0.926206261  -0.139296759
O       -0.001576661  -0.021414757   0.051302545



     Writing output data file pwscf.save
     Check: negative starting charge=   -0.016015
     NEW-OLD atomic charge density approx. for the potential
     Check: negative starting charge=   -0.015995

     negative rho (up, down):  6.430E-03 0.000E+00

     total cpu time spent up to now is        9.6 secs

     per-process dynamical memory:    45.8 Mb

     Self-consistent Calculation

     iteration #  1     ecut=    90.00 Ry     beta=0.70
     Davidson diagonalization with overlap
     c_bands:  1 eigenvalues not converged
     ethr =  1.00E-06,  avg # of iterations = 20.0

     negative rho (up, down):  1.681E-03 0.000E+00

     total cpu time spent up to now is       10.1 secs

     total energy              =     -34.17901619 Ry
     Harris-Foulkes estimate   =     -34.17257182 Ry
     estimated scf accuracy    <       0.00028528 Ry

     iteration #  2     ecut=    90.00 Ry     beta=0.70
     Davidson diagonalization with overlap
     ethr =  3.57E-06,  avg # of iterations = 14.0

     negative rho (up, down):  9.561E-04 0.000E+00

     total cpu time spent up to now is       10.6 secs

     total energy              =     -34.17944376 Ry
     Harris-Foulkes estimate   =     -34.17916521 Ry
     estimated scf accuracy    <       0.00019137 Ry

     iteration #  3     ecut=    90.00 Ry     beta=0.70
     Davidson diagonalization with overlap
     ethr =  2.39E-06,  avg # of iterations =  5.0

     negative rho (up, down):  6.588E-05 0.000E+00

     total cpu time spent up to now is       10.9 secs

     total energy              =     -34.18361077 Ry
     Harris-Foulkes estimate   =     -34.18356994 Ry
     estimated scf accuracy    <       0.00001007 Ry

     iteration #  4     ecut=    90.00 Ry     beta=0.70
     Davidson diagonalization with overlap
     c_bands:  1 eigenvalues not converged
     ethr =  1.26E-07,  avg # of iterations = 20.0

     negative rho (up, down):  9.787E-08 0.000E+00

     total cpu time spent up to now is       11.2 secs

     total energy              =     -34.18361164 Ry
     Harris-Foulkes estimate   =     -34.18361393 Ry
     estimated scf accuracy    <       0.00000013 Ry

     iteration #  5     ecut=    90.00 Ry     beta=0.70
     Davidson diagonalization with overlap
     ethr =  1.62E-09,  avg # of iterations =  5.0

     total cpu time spent up to now is       11.4 secs

     total energy              =     -34.18361161 Ry
     Harris-Foulkes estimate   =     -34.18361171 Ry
     estimated scf accuracy    <       0.00000001 Ry

     iteration #  6     ecut=    90.00 Ry     beta=0.70
     Davidson diagonalization with overlap
     ethr =  1.34E-10,  avg # of iterations =  2.0

     total cpu time spent up to now is       11.6 secs

     End of self-consistent calculation

          k = 0.0000 0.0000 0.0000 (115313 PWs)   bands (ev):

   -25.1105 -12.8044  -9.1436  -7.0797  -0.9389   0.4284   0.7519   1.1197

     the Fermi energy is    -5.0977 ev

!    total energy              =     -34.18361160 Ry
     Harris-Foulkes estimate   =     -34.18361161 Ry
     estimated scf accuracy    <          3.8E-10 Ry

     The total energy is the sum of the following terms:

     one-electron contribution =     -63.70870219 Ry
     hartree contribution      =      33.27562336 Ry
     xc contribution           =      -8.35928209 Ry
     ewald contribution        =       4.60874932 Ry
     smearing contrib. (-TS)   =       0.00000000 Ry

     convergence has been achieved in   6 iterations

     Forces acting on atoms (Ry/au):

     atom    1 type  1   force =     0.00050326    0.00082435   -0.00277677
     atom    2 type  1   force =     0.00093008    0.00455266   -0.00239368
     atom    3 type  2   force =    -0.00143334   -0.00537702    0.00517045

     Total force =     0.009678     Total SCF correction =     0.000031

     number of scf cycles    =   5
     number of bfgs steps    =   4

     energy   old            =     -34.1831403774 Ry
     energy   new            =     -34.1836116007 Ry

     CASE: energy  _new < energy  _old

     new trust radius        =       0.0071873726 bohr
     new conv_thr            =       0.0000000005 Ry


ATOMIC_POSITIONS (angstrom)
H        0.100932434  -0.457350067  -0.819164959
H        0.148440799   0.926003297  -0.141548342
O       -0.002367233  -0.023634231   0.054288301



     Writing output data file pwscf.save
     Check: negative starting charge=   -0.015995
     NEW-OLD atomic charge density approx. for the potential
     Check: negative starting charge=   -0.015995

     negative rho (up, down):  1.100E-03 0.000E+00

     total cpu time spent up to now is       12.2 secs

     per-process dynamical memory:    45.8 Mb

     Self-consistent Calculation

     iteration #  1     ecut=    90.00 Ry     beta=0.70
     Davidson diagonalization with overlap
     ethr =  1.00E-06,  avg # of iterations =  6.0

     negative rho (up, down):  2.736E-04 0.000E+00

     total cpu time spent up to now is       12.5 secs

     total energy              =     -34.18363329 Ry
     Harris-Foulkes estimate   =     -34.18359178 Ry
     estimated scf accuracy    <       0.00002101 Ry

     iteration #  2     ecut=    90.00 Ry     beta=0.70
     Davidson diagonalization with overlap
     ethr =  2.63E-07,  avg # of iterations =  4.0

     negative rho (up, down):  1.624E-04 0.000E+00

     total cpu time spent up to now is       12.7 secs

     total energy              =     -34.18363878 Ry
     Harris-Foulkes estimate   =     -34.18364845 Ry
     estimated scf accuracy    <       0.00002100 Ry

     iteration #  3     ecut=    90.00 Ry     beta=0.70
     Davidson diagonalization with overlap
     ethr =  2.62E-07,  avg # of iterations =  2.0

     negative rho (up, down):  1.147E-05 0.000E+00

     total cpu time spent up to now is       12.9 secs

     total energy              =     -34.18364674 Ry
     Harris-Foulkes estimate   =     -34.18364320 Ry
     estimated scf accuracy    <       0.00000022 Ry

     iteration #  4     ecut=    90.00 Ry     beta=0.70
     Davidson diagonalization with overlap
     ethr =  2.69E-09,  avg # of iterations =  3.0

     negative rho (up, down):  4.190E-07 0.000E+00

     total cpu time spent up to now is       13.1 secs

     total energy              =     -34.18364740 Ry
     Harris-Foulkes estimate   =     -34.18364686 Ry
     estimated scf accuracy    <       0.00000001 Ry

     iteration #  5     ecut=    90.00 Ry     beta=0.70
     Davidson diagonalization with overlap
     ethr =  1.27E-10,  avg # of iterations =  2.0

     total cpu time spent up to now is       13.3 secs

     End of self-consistent calculation

          k = 0.0000 0.0000 0.0000 (115313 PWs)   bands (ev):

   -25.0970 -12.7537  -9.1713  -7.0784  -0.9467   0.4260   0.7485   1.1190

     the Fermi energy is    -5.0949 ev

!    total energy              =     -34.18364755 Ry
     Harris-Foulkes estimate   =     -34.18364740 Ry
     estimated scf accuracy    <          4.3E-10 Ry

     The total energy is the sum of the following terms:

     one-electron contribution =     -63.65996982 Ry
     hartree contribution      =      33.25147406 Ry
     xc contribution           =      -8.35533931 Ry
     ewald contribution        =       4.58018752 Ry
     smearing contrib. (-TS)   =       0.00000000 Ry

     convergence has been achieved in   5 iterations

     Forces acting on atoms (Ry/au):

     atom    1 type  1   force =    -0.00002944    0.00015266   -0.00026124
     atom    2 type  1   force =    -0.00017057   -0.00044963    0.00034853
     atom    3 type  2   force =     0.00020001    0.00029697   -0.00008729

     Total force =     0.000762     Total SCF correction =     0.000416
     SCF correction compared to forces is large: reduce conv_thr to get better values

     bfgs converged in   6 scf cycles and   5 bfgs steps
     (criteria: energy <  1.0E-04, force <  1.0E-03)

     End of BFGS Geometry Optimization

     Final energy   =     -34.1836475485 Ry
Begin final coordinates

ATOMIC_POSITIONS (angstrom)
H        0.100932434  -0.457350067  -0.819164959
H        0.148440799   0.926003297  -0.141548342
O       -0.002367233  -0.023634231   0.054288301
End final coordinates



     Writing output data file pwscf.save
 
     init_run     :      0.62s CPU      0.66s WALL (       1 calls)
     electrons    :      8.81s CPU     10.32s WALL (       6 calls)
     update_pot   :      1.25s CPU      1.55s WALL (       5 calls)
     forces       :      0.40s CPU      0.41s WALL (       6 calls)

     Called by init_run:
     wfcinit      :      0.03s CPU      0.04s WALL (       1 calls)
     potinit      :      0.11s CPU      0.12s WALL (       1 calls)

     Called by electrons:
     c_bands      :      4.53s CPU      4.79s WALL (      37 calls)
     sum_band     :      0.75s CPU      0.78s WALL (      37 calls)
     v_of_rho     :      2.17s CPU      2.26s WALL (      43 calls)
     mix_rho      :      0.80s CPU      1.43s WALL (      37 calls)

     Called by c_bands:
     init_us_2    :      0.02s CPU      0.02s WALL (      75 calls)
     cegterg      :      4.51s CPU      4.75s WALL (      37 calls)

     Called by sum_band:

     Called by *egterg:
     h_psi        :      3.85s CPU      4.07s WALL (     306 calls)
     g_psi        :      0.04s CPU      0.04s WALL (     268 calls)
     cdiaghg      :      0.08s CPU      0.08s WALL (     300 calls)

     Called by h_psi:
     h_psi:pot    :      3.81s CPU      4.03s WALL (     306 calls)
     h_psi:calbec :      0.06s CPU      0.06s WALL (     306 calls)
     vloc_psi     :      3.73s CPU      3.95s WALL (     306 calls)
     add_vuspsi   :      0.03s CPU      0.03s WALL (     306 calls)

     General routines
     calbec       :      0.06s CPU      0.06s WALL (     330 calls)
     fft          :      1.55s CPU      1.75s WALL (     484 calls)
     fftw         :      3.65s CPU      3.88s WALL (    2832 calls)
     davcio       :      0.09s CPU      0.62s WALL (     253 calls)
 
     Parallel routines
     fft_scatter  :      1.86s CPU      2.25s WALL (    3316 calls)
 
     PWSCF        :    11.48s CPU        13.72s WALL

 
   This run was terminated on:   2:40:43  28Jul2018            

=------------------------------------------------------------------------------=
   JOB DONE.
=------------------------------------------------------------------------------=
