
     Program PWSCF v.6.0 (svn rev. 13079) starts on 28Jul2018 at  2:16: 0 

     This program is part of the open-source Quantum ESPRESSO suite
     for quantum simulation of materials; please cite
         "P. Giannozzi et al., J. Phys.:Condens. Matter 21 395502 (2009);
          URL http://www.quantum-espresso.org", 
     in publications or presentations arising from this work. More details at
     http://www.quantum-espresso.org/quote

     Parallel version (MPI), running on    28 processors
     R & G space division:  proc/nbgrp/npool/nimage =      28
     Reading input from ../QMCmins/relax-10.in

     Current dimensions of program PWSCF are:
     Max number of different atomic species (ntypx) = 10
     Max number of k-points (npk) =  40000
     Max angular momentum in pseudopotentials (lmaxx) =  3
     Message from routine iosys:
     pot_extrapolation='second-order' not available, using 'atomic'
     Message from routine iosys:
     wfc_extrapolation='second-order' not available, using 'atomic'

     Subspace diagonalization in iterative solution of the eigenvalue problem:
     a serial algorithm will be used

 
     Parallelization info
     --------------------
     sticks:   dense  smooth     PW     G-vecs:    dense   smooth      PW
     Min         408     408    102                32936    32936    4116
     Max         409     409    103                32943    32943    4121
     Sum       11449   11449   2869               922329   922329  115313
 


     bravais-lattice index     =            1
     lattice parameter (alat)  =      20.0000  a.u.
     unit-cell volume          =    8000.0000 (a.u.)^3
     number of atoms/cell      =            3
     number of atomic types    =            2
     number of electrons       =         8.00
     number of Kohn-Sham states=            8
     kinetic-energy cutoff     =      90.0000  Ry
     charge density cutoff     =     360.0000  Ry
     convergence threshold     =      1.0E-08
     mixing beta               =       0.7000
     number of iterations used =            8  plain     mixing
     Exchange-correlation      = BLYP ( 1  3  1  3 0 0)
     nstep                     =           50


     celldm(1)=  20.000000  celldm(2)=   0.000000  celldm(3)=   0.000000
     celldm(4)=   0.000000  celldm(5)=   0.000000  celldm(6)=   0.000000

     crystal axes: (cart. coord. in units of alat)
               a(1) = (   1.000000   0.000000   0.000000 )  
               a(2) = (   0.000000   1.000000   0.000000 )  
               a(3) = (   0.000000   0.000000   1.000000 )  

     reciprocal axes: (cart. coord. in units 2 pi/alat)
               b(1) = (  1.000000  0.000000  0.000000 )  
               b(2) = (  0.000000  1.000000  0.000000 )  
               b(3) = (  0.000000  0.000000  1.000000 )  


     PseudoPot. # 1 for  H read from file:
     ../H.blyp-hgh.UPF
     MD5 check sum: c576e69559cde411e611be972c763230
     Pseudo is Norm-conserving, Zval =  1.0
     Generated in analytical, separable form
     Using radial grid of  929 points,  0 beta functions with: 

     PseudoPot. # 2 for  O read from file:
     ../O.blyp-hgh.UPF
     MD5 check sum: d0b7156309aa9befef28faac7bc56342
     Pseudo is Norm-conserving, Zval =  6.0
     Generated in analytical, separable form
     Using radial grid of 1095 points,  1 beta functions with: 
                l(1) =   0

     atomic species   valence    mass     pseudopotential
        H              1.00     1.01000      H( 1.00)
        O              6.00    16.00000      O( 1.00)

     No symmetry found



   Cartesian axes

     site n.     atom                  positions (alat units)
         1           H   tau(   1) = (  -0.0239260  -0.0243451  -0.0717222  )
         2           H   tau(   2) = (   0.0394113   0.0668392  -0.0138958  )
         3           O   tau(   3) = (  -0.0009776  -0.0026825   0.0109826  )

     number of k points=     1  Marzari-Vanderbilt smearing, width (Ry)=  0.0250
                       cart. coord. in units 2pi/alat
        k(    1) = (   0.0000000   0.0000000   0.0000000), wk =   2.0000000

     Dense  grid:   922329 G-vectors     FFT dimensions: ( 125, 125, 125)

     Estimated max dynamical RAM per process >      31.67Mb

     Estimated total allocated dynamical RAM >     886.64Mb

     Initial potential from superposition of free atoms
     Check: negative starting charge=   -0.016097

     starting charge    7.99998, renormalised to    8.00000

     negative rho (up, down):  1.610E-02 0.000E+00
     Starting wfc are    6 randomized atomic wfcs +    2 random wfc

     total cpu time spent up to now is        1.0 secs

     per-process dynamical memory:    33.5 Mb

     Self-consistent Calculation

     iteration #  1     ecut=    90.00 Ry     beta=0.70
     Davidson diagonalization with overlap
     ethr =  1.00E-02,  avg # of iterations =  8.0

     negative rho (up, down):  4.712E-03 0.000E+00

     total cpu time spent up to now is        1.5 secs

     total energy              =     -33.99327435 Ry
     Harris-Foulkes estimate   =     -34.26398422 Ry
     estimated scf accuracy    <       0.40133334 Ry

     iteration #  2     ecut=    90.00 Ry     beta=0.70
     Davidson diagonalization with overlap
     ethr =  5.02E-03,  avg # of iterations =  2.0

     negative rho (up, down):  2.816E-03 0.000E+00

     total cpu time spent up to now is        1.8 secs

     total energy              =     -34.06741960 Ry
     Harris-Foulkes estimate   =     -34.24249949 Ry
     estimated scf accuracy    <       0.36232135 Ry

     iteration #  3     ecut=    90.00 Ry     beta=0.70
     Davidson diagonalization with overlap
     ethr =  4.53E-03,  avg # of iterations =  2.0

     negative rho (up, down):  1.596E-04 0.000E+00

     total cpu time spent up to now is        2.1 secs

     total energy              =     -34.15122020 Ry
     Harris-Foulkes estimate   =     -34.15234226 Ry
     estimated scf accuracy    <       0.00599707 Ry

     iteration #  4     ecut=    90.00 Ry     beta=0.70
     Davidson diagonalization with overlap
     ethr =  7.50E-05,  avg # of iterations =  7.0

     negative rho (up, down):  5.094E-05 0.000E+00

     total cpu time spent up to now is        2.5 secs

     total energy              =     -34.14885168 Ry
     Harris-Foulkes estimate   =     -34.14901203 Ry
     estimated scf accuracy    <       0.00036610 Ry

     iteration #  5     ecut=    90.00 Ry     beta=0.70
     Davidson diagonalization with overlap
     ethr =  4.58E-06,  avg # of iterations =  9.0

     total cpu time spent up to now is        2.8 secs

     total energy              =     -34.15297244 Ry
     Harris-Foulkes estimate   =     -34.15297251 Ry
     estimated scf accuracy    <       0.00000467 Ry

     iteration #  6     ecut=    90.00 Ry     beta=0.70
     Davidson diagonalization with overlap
     ethr =  5.83E-08,  avg # of iterations =  2.0

     negative rho (up, down):  4.626E-08 0.000E+00

     total cpu time spent up to now is        3.0 secs

     total energy              =     -34.15297296 Ry
     Harris-Foulkes estimate   =     -34.15297302 Ry
     estimated scf accuracy    <       0.00000250 Ry

     iteration #  7     ecut=    90.00 Ry     beta=0.70
     Davidson diagonalization with overlap
     ethr =  3.12E-08,  avg # of iterations =  2.0

     total cpu time spent up to now is        3.3 secs

     total energy              =     -34.15297319 Ry
     Harris-Foulkes estimate   =     -34.15297323 Ry
     estimated scf accuracy    <       0.00000001 Ry

     iteration #  8     ecut=    90.00 Ry     beta=0.70
     Davidson diagonalization with overlap
     ethr =  1.39E-10,  avg # of iterations =  3.0

     total cpu time spent up to now is        3.5 secs

     End of self-consistent calculation

          k = 0.0000 0.0000 0.0000 (115313 PWs)   bands (ev):

   -26.1511 -12.7919  -9.8199  -7.2664  -0.8260   0.4564   0.8940   1.1833

     the Fermi energy is    -5.3102 ev

!    total energy              =     -34.15297314 Ry
     Harris-Foulkes estimate   =     -34.15297319 Ry
     estimated scf accuracy    <          2.0E-09 Ry

     The total energy is the sum of the following terms:

     one-electron contribution =     -65.36164618 Ry
     hartree contribution      =      34.04658525 Ry
     xc contribution           =      -8.48647420 Ry
     ewald contribution        =       5.64856199 Ry
     smearing contrib. (-TS)   =       0.00000000 Ry

     convergence has been achieved in   8 iterations

     Forces acting on atoms (Ry/au):

     atom    1 type  1   force =    -0.05070902   -0.06572204   -0.08696451
     atom    2 type  1   force =     0.12826299    0.21039122   -0.02395795
     atom    3 type  2   force =    -0.07755397   -0.14466918    0.11092246

     Total force =     0.339103     Total SCF correction =     0.000092

     BFGS Geometry Optimization

     number of scf cycles    =   1
     number of bfgs steps    =   0

     energy   new            =     -34.1529731402 Ry

     new trust radius        =       0.2475678572 bohr
     new conv_thr            =       0.0000000100 Ry


ATOMIC_POSITIONS (angstrom)
H       -0.280056057  -0.292435604  -0.805094637
H        0.484984853   0.818730238  -0.159745001
O       -0.051385795  -0.104945634   0.174932638



     Writing output data file pwscf.save
     Check: negative starting charge=   -0.016097
     NEW-OLD atomic charge density approx. for the potential
     Check: negative starting charge=   -0.015991

     negative rho (up, down):  2.723E-02 0.000E+00

     total cpu time spent up to now is        4.4 secs

     per-process dynamical memory:    45.8 Mb

     Self-consistent Calculation

     iteration #  1     ecut=    90.00 Ry     beta=0.70
     Davidson diagonalization with overlap
     c_bands:  1 eigenvalues not converged
     ethr =  1.00E-06,  avg # of iterations = 20.0

     negative rho (up, down):  6.940E-03 0.000E+00

     total cpu time spent up to now is        5.2 secs

     total energy              =     -34.11215732 Ry
     Harris-Foulkes estimate   =     -34.15130020 Ry
     estimated scf accuracy    <       0.04880291 Ry

     iteration #  2     ecut=    90.00 Ry     beta=0.70
     Davidson diagonalization with overlap
     ethr =  6.10E-04,  avg # of iterations =  4.0

     negative rho (up, down):  4.450E-03 0.000E+00

     total cpu time spent up to now is        5.4 secs

     total energy              =     -34.12927175 Ry
     Harris-Foulkes estimate   =     -34.14976641 Ry
     estimated scf accuracy    <       0.05110358 Ry

     iteration #  3     ecut=    90.00 Ry     beta=0.70
     Davidson diagonalization with overlap
     ethr =  6.10E-04,  avg # of iterations =  2.0

     negative rho (up, down):  1.345E-03 0.000E+00

     total cpu time spent up to now is        5.8 secs

     total energy              =     -34.14477460 Ry
     Harris-Foulkes estimate   =     -34.14097157 Ry
     estimated scf accuracy    <       0.00134018 Ry

     iteration #  4     ecut=    90.00 Ry     beta=0.70
     Davidson diagonalization with overlap
     ethr =  1.68E-05,  avg # of iterations = 15.0

     negative rho (up, down):  1.270E-04 0.000E+00

     total cpu time spent up to now is        6.3 secs

     total energy              =     -34.14929760 Ry
     Harris-Foulkes estimate   =     -34.14911056 Ry
     estimated scf accuracy    <       0.00002621 Ry

     iteration #  5     ecut=    90.00 Ry     beta=0.70
     Davidson diagonalization with overlap
     c_bands:  1 eigenvalues not converged
     ethr =  3.28E-07,  avg # of iterations = 20.0

     negative rho (up, down):  1.948E-06 0.000E+00

     total cpu time spent up to now is        6.8 secs

     total energy              =     -34.14930637 Ry
     Harris-Foulkes estimate   =     -34.14930489 Ry
     estimated scf accuracy    <       0.00000139 Ry

     iteration #  6     ecut=    90.00 Ry     beta=0.70
     Davidson diagonalization with overlap
     ethr =  1.74E-08,  avg # of iterations =  4.0

     negative rho (up, down):  1.859E-08 0.000E+00

     total cpu time spent up to now is        7.1 secs

     total energy              =     -34.14930672 Ry
     Harris-Foulkes estimate   =     -34.14930662 Ry
     estimated scf accuracy    <       0.00000009 Ry

     iteration #  7     ecut=    90.00 Ry     beta=0.70
     Davidson diagonalization with overlap
     ethr =  1.11E-09,  avg # of iterations =  2.0

     total cpu time spent up to now is        7.3 secs

     End of self-consistent calculation

          k = 0.0000 0.0000 0.0000 (115313 PWs)   bands (ev):

   -24.4965 -11.3042  -9.8017  -7.0088  -1.3577   0.2802   0.5258   1.1039

     the Fermi energy is    -4.9560 ev

!    total energy              =     -34.14930683 Ry
     Harris-Foulkes estimate   =     -34.14930674 Ry
     estimated scf accuracy    <          2.4E-09 Ry

     The total energy is the sum of the following terms:

     one-electron contribution =     -61.81894282 Ry
     hartree contribution      =      32.34567936 Ry
     xc contribution           =      -8.21088670 Ry
     ewald contribution        =       3.53484332 Ry
     smearing contrib. (-TS)   =       0.00000000 Ry

     convergence has been achieved in   7 iterations

     Forces acting on atoms (Ry/au):

     atom    1 type  1   force =    -0.00541470   -0.01827639    0.06160411
     atom    2 type  1   force =    -0.06312163   -0.11336216    0.07397725
     atom    3 type  2   force =     0.06853633    0.13163855   -0.13558137

     Total force =     0.258601     Total SCF correction =     0.000049

     number of scf cycles    =   2
     number of bfgs steps    =   1

     energy   old            =     -34.1529731402 Ry
     energy   new            =     -34.1493068285 Ry

     CASE: energy  _new > energy  _old

     new trust radius        =       0.1199592145 bohr
     new conv_thr            =       0.0000000100 Ry


ATOMIC_POSITIONS (angstrom)
H       -0.266224465  -0.274509002  -0.781373854
H        0.449999333   0.761343099  -0.153210136
O       -0.030231868  -0.065485097   0.144676990



     Writing output data file pwscf.save
     Check: negative starting charge=   -0.015991
     NEW-OLD atomic charge density approx. for the potential
     Check: negative starting charge=   -0.016053

     negative rho (up, down):  1.860E-02 0.000E+00

     total cpu time spent up to now is        8.2 secs

     per-process dynamical memory:    45.8 Mb

     Self-consistent Calculation

     iteration #  1     ecut=    90.00 Ry     beta=0.70
     Davidson diagonalization with overlap
     c_bands:  1 eigenvalues not converged
     ethr =  1.00E-06,  avg # of iterations = 20.0

     negative rho (up, down):  4.939E-03 0.000E+00

     total cpu time spent up to now is        8.9 secs

     total energy              =     -34.16021832 Ry
     Harris-Foulkes estimate   =     -34.15140148 Ry
     estimated scf accuracy    <       0.01288034 Ry

     iteration #  2     ecut=    90.00 Ry     beta=0.70
     Davidson diagonalization with overlap
     ethr =  1.61E-04,  avg # of iterations =  3.0

     negative rho (up, down):  3.101E-03 0.000E+00

     total cpu time spent up to now is        9.3 secs

     total energy              =     -34.16554268 Ry
     Harris-Foulkes estimate   =     -34.16971836 Ry
     estimated scf accuracy    <       0.01461319 Ry

     iteration #  3     ecut=    90.00 Ry     beta=0.70
     Davidson diagonalization with overlap
     ethr =  1.61E-04,  avg # of iterations =  3.0

     negative rho (up, down):  7.173E-04 0.000E+00

     total cpu time spent up to now is        9.6 secs

     total energy              =     -34.17060982 Ry
     Harris-Foulkes estimate   =     -34.16854752 Ry
     estimated scf accuracy    <       0.00009369 Ry

     iteration #  4     ecut=    90.00 Ry     beta=0.70
     Davidson diagonalization with overlap
     ethr =  1.17E-06,  avg # of iterations = 20.0

     negative rho (up, down):  9.221E-05 0.000E+00

     total cpu time spent up to now is       10.2 secs

     total energy              =     -34.17475497 Ry
     Harris-Foulkes estimate   =     -34.17473588 Ry
     estimated scf accuracy    <       0.00000276 Ry

     iteration #  5     ecut=    90.00 Ry     beta=0.70
     Davidson diagonalization with overlap
     ethr =  3.45E-08,  avg # of iterations = 12.0

     negative rho (up, down):  3.023E-07 0.000E+00

     total cpu time spent up to now is       10.5 secs

     total energy              =     -34.17475447 Ry
     Harris-Foulkes estimate   =     -34.17475590 Ry
     estimated scf accuracy    <       0.00000016 Ry

     iteration #  6     ecut=    90.00 Ry     beta=0.70
     Davidson diagonalization with overlap
     ethr =  1.95E-09,  avg # of iterations =  4.0

     total cpu time spent up to now is       10.6 secs

     End of self-consistent calculation

          k = 0.0000 0.0000 0.0000 (115313 PWs)   bands (ev):

   -25.2522 -12.0149  -9.8190  -7.1266  -1.0236   0.3946   0.7577   1.1200

     the Fermi energy is    -5.1329 ev

!    total energy              =     -34.17475423 Ry
     Harris-Foulkes estimate   =     -34.17475455 Ry
     estimated scf accuracy    <          5.1E-09 Ry

     The total energy is the sum of the following terms:

     one-electron contribution =     -63.53604479 Ry
     hartree contribution      =      33.17191150 Ry
     xc contribution           =      -8.34097944 Ry
     ewald contribution        =       4.53035849 Ry
     smearing contrib. (-TS)   =       0.00000000 Ry

     convergence has been achieved in   6 iterations

     Forces acting on atoms (Ry/au):

     atom    1 type  1   force =    -0.02423650   -0.03878613   -0.00600973
     atom    2 type  1   force =    -0.00026738   -0.00979282    0.04528216
     atom    3 type  2   force =     0.02450388    0.04857895   -0.03927243

     Total force =     0.093686     Total SCF correction =     0.000353

     number of scf cycles    =   3
     number of bfgs steps    =   1

     energy   old            =     -34.1529731402 Ry
     energy   new            =     -34.1747542307 Ry

     CASE: energy  _new < energy  _old

     new trust radius        =       0.0518680126 bohr
     new conv_thr            =       0.0000000049 Ry


ATOMIC_POSITIONS (angstrom)
H       -0.280575659  -0.296637983  -0.788970536
H        0.456833855   0.768077301  -0.132840513
O       -0.022715196  -0.050090318   0.131904048



     Writing output data file pwscf.save
     Check: negative starting charge=   -0.016053
     NEW-OLD atomic charge density approx. for the potential
     Check: negative starting charge=   -0.016018

     negative rho (up, down):  7.270E-03 0.000E+00

     total cpu time spent up to now is       11.2 secs

     per-process dynamical memory:    45.8 Mb

     Self-consistent Calculation

     iteration #  1     ecut=    90.00 Ry     beta=0.70
     Davidson diagonalization with overlap
     c_bands:  1 eigenvalues not converged
     ethr =  1.00E-06,  avg # of iterations = 20.0

     negative rho (up, down):  1.911E-03 0.000E+00

     total cpu time spent up to now is       12.1 secs

     total energy              =     -34.17513987 Ry
     Harris-Foulkes estimate   =     -34.16758147 Ry
     estimated scf accuracy    <       0.00035876 Ry

     iteration #  2     ecut=    90.00 Ry     beta=0.70
     Davidson diagonalization with overlap
     ethr =  4.48E-06,  avg # of iterations = 15.0

     negative rho (up, down):  8.527E-04 0.000E+00

     total cpu time spent up to now is       12.5 secs

     total energy              =     -34.17577746 Ry
     Harris-Foulkes estimate   =     -34.17525404 Ry
     estimated scf accuracy    <       0.00010791 Ry

     iteration #  3     ecut=    90.00 Ry     beta=0.70
     Davidson diagonalization with overlap
     c_bands:  1 eigenvalues not converged
     ethr =  1.35E-06,  avg # of iterations = 20.0

     negative rho (up, down):  1.541E-04 0.000E+00

     total cpu time spent up to now is       12.8 secs

     total energy              =     -34.17991176 Ry
     Harris-Foulkes estimate   =     -34.17989624 Ry
     estimated scf accuracy    <       0.00002843 Ry

     iteration #  4     ecut=    90.00 Ry     beta=0.70
     Davidson diagonalization with overlap
     c_bands:  1 eigenvalues not converged
     ethr =  3.55E-07,  avg # of iterations = 20.0

     negative rho (up, down):  4.278E-06 0.000E+00

     total cpu time spent up to now is       13.1 secs

     total energy              =     -34.17991674 Ry
     Harris-Foulkes estimate   =     -34.17991863 Ry
     estimated scf accuracy    <       0.00000049 Ry

     iteration #  5     ecut=    90.00 Ry     beta=0.70
     Davidson diagonalization with overlap
     ethr =  6.07E-09,  avg # of iterations = 10.0

     total cpu time spent up to now is       13.4 secs

     total energy              =     -34.17991661 Ry
     Harris-Foulkes estimate   =     -34.17991692 Ry
     estimated scf accuracy    <       0.00000001 Ry

     iteration #  6     ecut=    90.00 Ry     beta=0.70
     Davidson diagonalization with overlap
     ethr =  1.44E-10,  avg # of iterations =  2.0

     total cpu time spent up to now is       13.5 secs

     End of self-consistent calculation

          k = 0.0000 0.0000 0.0000 (115313 PWs)   bands (ev):

   -25.2045 -12.2716  -9.6056  -7.1122  -0.9889   0.4080   0.7547   1.1229

     the Fermi energy is    -5.1188 ev

!    total energy              =     -34.17991659 Ry
     Harris-Foulkes estimate   =     -34.17991662 Ry
     estimated scf accuracy    <          5.1E-10 Ry

     The total energy is the sum of the following terms:

     one-electron contribution =     -63.59378480 Ry
     hartree contribution      =      33.20636353 Ry
     xc contribution           =      -8.34731038 Ry
     ewald contribution        =       4.55481506 Ry
     smearing contrib. (-TS)   =       0.00000000 Ry

     convergence has been achieved in   6 iterations

     Forces acting on atoms (Ry/au):

     atom    1 type  1   force =    -0.01160118   -0.02156349    0.01188033
     atom    2 type  1   force =     0.00768080    0.00690050    0.02529305
     atom    3 type  2   force =     0.00392038    0.01466299   -0.03717338

     Total force =     0.055671     Total SCF correction =     0.000023

     number of scf cycles    =   4
     number of bfgs steps    =   2

     energy   old            =     -34.1747542307 Ry
     energy   new            =     -34.1799165880 Ry

     CASE: energy  _new < energy  _old

     new trust radius        =       0.0570548138 bohr
     new conv_thr            =       0.0000000037 Ry


ATOMIC_POSITIONS (angstrom)
H       -0.295234316  -0.321402277  -0.786096874
H        0.468858786   0.782303326  -0.109079524
O       -0.020081470  -0.039552048   0.105269398



     Writing output data file pwscf.save
     Check: negative starting charge=   -0.016018
     NEW-OLD atomic charge density approx. for the potential
     Check: negative starting charge=   -0.015995

     negative rho (up, down):  9.758E-03 0.000E+00

     total cpu time spent up to now is       14.1 secs

     per-process dynamical memory:    45.8 Mb

     Self-consistent Calculation

     iteration #  1     ecut=    90.00 Ry     beta=0.70
     Davidson diagonalization with overlap
     c_bands:  1 eigenvalues not converged
     ethr =  1.00E-06,  avg # of iterations = 20.0

     negative rho (up, down):  2.564E-03 0.000E+00

     total cpu time spent up to now is       14.6 secs

     total energy              =     -34.17734081 Ry
     Harris-Foulkes estimate   =     -34.16790604 Ry
     estimated scf accuracy    <       0.00067967 Ry

     iteration #  2     ecut=    90.00 Ry     beta=0.70
     Davidson diagonalization with overlap
     c_bands:  1 eigenvalues not converged
     ethr =  8.50E-06,  avg # of iterations = 20.0

     negative rho (up, down):  1.467E-03 0.000E+00

     total cpu time spent up to now is       15.0 secs

     total energy              =     -34.17864124 Ry
     Harris-Foulkes estimate   =     -34.17769458 Ry
     estimated scf accuracy    <       0.00046077 Ry

     iteration #  3     ecut=    90.00 Ry     beta=0.70
     Davidson diagonalization with overlap
     ethr =  5.76E-06,  avg # of iterations =  5.0

     negative rho (up, down):  1.246E-04 0.000E+00

     total cpu time spent up to now is       15.4 secs

     total energy              =     -34.17901805 Ry
     Harris-Foulkes estimate   =     -34.17875867 Ry
     estimated scf accuracy    <       0.00002434 Ry

     iteration #  4     ecut=    90.00 Ry     beta=0.70
     Davidson diagonalization with overlap
     c_bands:  1 eigenvalues not converged
     ethr =  3.04E-07,  avg # of iterations = 20.0

     negative rho (up, down):  3.904E-06 0.000E+00

     total cpu time spent up to now is       15.7 secs

     total energy              =     -34.18310092 Ry
     Harris-Foulkes estimate   =     -34.18310354 Ry
     estimated scf accuracy    <       0.00000028 Ry

     iteration #  5     ecut=    90.00 Ry     beta=0.70
     Davidson diagonalization with overlap
     ethr =  3.55E-09,  avg # of iterations = 11.0

     total cpu time spent up to now is       16.0 secs

     total energy              =     -34.18310049 Ry
     Harris-Foulkes estimate   =     -34.18310106 Ry
     estimated scf accuracy    <       0.00000001 Ry

     iteration #  6     ecut=    90.00 Ry     beta=0.70
     Davidson diagonalization with overlap
     ethr =  1.80E-10,  avg # of iterations =  2.0

     total cpu time spent up to now is       16.1 secs

     End of self-consistent calculation

          k = 0.0000 0.0000 0.0000 (115313 PWs)   bands (ev):

   -25.1913 -12.6422  -9.3259  -7.1000  -0.9425   0.4255   0.7590   1.1276

     the Fermi energy is    -5.1120 ev

!    total energy              =     -34.18310049 Ry
     Harris-Foulkes estimate   =     -34.18310050 Ry
     estimated scf accuracy    <          5.5E-10 Ry

     The total energy is the sum of the following terms:

     one-electron contribution =     -63.76215920 Ry
     hartree contribution      =      33.29557074 Ry
     xc contribution           =      -8.36244700 Ry
     ewald contribution        =       4.64593498 Ry
     smearing contrib. (-TS)   =       0.00000000 Ry

     convergence has been achieved in   6 iterations

     Forces acting on atoms (Ry/au):

     atom    1 type  1   force =    -0.00837656   -0.01224593   -0.01070339
     atom    2 type  1   force =     0.00455211    0.00510780    0.00796571
     atom    3 type  2   force =     0.00382444    0.00713813    0.00273768

     Total force =     0.022760     Total SCF correction =     0.000065

     number of scf cycles    =   5
     number of bfgs steps    =   3

     energy   old            =     -34.1799165880 Ry
     energy   new            =     -34.1831004895 Ry

     CASE: energy  _new < energy  _old

     new trust radius        =       0.0410710852 bohr
     new conv_thr            =       0.0000000012 Ry


ATOMIC_POSITIONS (angstrom)
H       -0.306396062  -0.338992872  -0.792289453
H        0.476736345   0.791566915  -0.094976581
O       -0.016797283  -0.031225043   0.097359034



     Writing output data file pwscf.save
     Check: negative starting charge=   -0.015995
     NEW-OLD atomic charge density approx. for the potential
     Check: negative starting charge=   -0.015987

     negative rho (up, down):  3.886E-03 0.000E+00

     total cpu time spent up to now is       16.7 secs

     per-process dynamical memory:    45.8 Mb

     Self-consistent Calculation

     iteration #  1     ecut=    90.00 Ry     beta=0.70
     Davidson diagonalization with overlap
     c_bands:  1 eigenvalues not converged
     ethr =  1.00E-06,  avg # of iterations = 20.0

     negative rho (up, down):  1.009E-03 0.000E+00

     total cpu time spent up to now is       17.1 secs

     total energy              =     -34.17945188 Ry
     Harris-Foulkes estimate   =     -34.17638693 Ry
     estimated scf accuracy    <       0.00013966 Ry

     iteration #  2     ecut=    90.00 Ry     beta=0.70
     Davidson diagonalization with overlap
     ethr =  1.75E-06,  avg # of iterations = 15.0

     negative rho (up, down):  2.471E-04 0.000E+00

     total cpu time spent up to now is       17.5 secs

     total energy              =     -34.18359769 Ry
     Harris-Foulkes estimate   =     -34.18355664 Ry
     estimated scf accuracy    <       0.00001355 Ry

     iteration #  3     ecut=    90.00 Ry     beta=0.70
     Davidson diagonalization with overlap
     c_bands:  1 eigenvalues not converged
     ethr =  1.69E-07,  avg # of iterations = 20.0

     negative rho (up, down):  4.483E-05 0.000E+00

     total cpu time spent up to now is       17.8 secs

     total energy              =     -34.18360018 Ry
     Harris-Foulkes estimate   =     -34.18360419 Ry
     estimated scf accuracy    <       0.00000814 Ry

     iteration #  4     ecut=    90.00 Ry     beta=0.70
     Davidson diagonalization with overlap
     ethr =  1.02E-07,  avg # of iterations = 11.0

     negative rho (up, down):  5.130E-07 0.000E+00

     total cpu time spent up to now is       18.0 secs

     total energy              =     -34.18360124 Ry
     Harris-Foulkes estimate   =     -34.18360227 Ry
     estimated scf accuracy    <       0.00000033 Ry

     iteration #  5     ecut=    90.00 Ry     beta=0.70
     Davidson diagonalization with overlap
     ethr =  4.17E-09,  avg # of iterations =  2.0

     total cpu time spent up to now is       18.2 secs

     total energy              =     -34.18360122 Ry
     Harris-Foulkes estimate   =     -34.18360133 Ry
     estimated scf accuracy    <          4.3E-09 Ry

     iteration #  6     ecut=    90.00 Ry     beta=0.70
     Davidson diagonalization with overlap
     ethr =  5.39E-11,  avg # of iterations =  3.0

     total cpu time spent up to now is       18.3 secs

     End of self-consistent calculation

          k = 0.0000 0.0000 0.0000 (115313 PWs)   bands (ev):

   -25.0896 -12.7447  -9.1716  -7.0771  -0.9478   0.4252   0.7415   1.1305

     the Fermi energy is    -5.0844 ev

!    total energy              =     -34.18360121 Ry
     Harris-Foulkes estimate   =     -34.18360122 Ry
     estimated scf accuracy    <          6.0E-10 Ry

     The total energy is the sum of the following terms:

     one-electron contribution =     -63.64243856 Ry
     hartree contribution      =      33.24304925 Ry
     xc contribution           =      -8.35394544 Ry
     ewald contribution        =       4.56973355 Ry
     smearing contrib. (-TS)   =       0.00000000 Ry

     convergence has been achieved in   6 iterations

     Forces acting on atoms (Ry/au):

     atom    1 type  1   force =     0.00250777    0.00236902    0.00695090
     atom    2 type  1   force =     0.00254643    0.00377959   -0.00089333
     atom    3 type  2   force =    -0.00505420   -0.00614861   -0.00605757

     Total force =     0.013484     Total SCF correction =     0.000055

     number of scf cycles    =   6
     number of bfgs steps    =   4

     energy   old            =     -34.1831004895 Ry
     energy   new            =     -34.1836012086 Ry

     CASE: energy  _new < energy  _old

     new trust radius        =       0.0050345862 bohr
     new conv_thr            =       0.0000000005 Ry


ATOMIC_POSITIONS (angstrom)
H       -0.305725255  -0.338451837  -0.790489088
H        0.477398863   0.792369212  -0.094901952
O       -0.018130608  -0.032568375   0.095484040



     Writing output data file pwscf.save
     Check: negative starting charge=   -0.015987
     NEW-OLD atomic charge density approx. for the potential
     Check: negative starting charge=   -0.015989

     negative rho (up, down):  7.458E-04 0.000E+00

     total cpu time spent up to now is       18.9 secs

     per-process dynamical memory:    45.8 Mb

     Self-consistent Calculation

     iteration #  1     ecut=    90.00 Ry     beta=0.70
     Davidson diagonalization with overlap
     ethr =  1.00E-06,  avg # of iterations =  5.0

     negative rho (up, down):  1.811E-04 0.000E+00

     total cpu time spent up to now is       19.2 secs

     total energy              =     -34.18363787 Ry
     Harris-Foulkes estimate   =     -34.18363099 Ry
     estimated scf accuracy    <       0.00001090 Ry

     iteration #  2     ecut=    90.00 Ry     beta=0.70
     Davidson diagonalization with overlap
     ethr =  1.36E-07,  avg # of iterations =  3.0

     negative rho (up, down):  7.784E-05 0.000E+00

     total cpu time spent up to now is       19.4 secs

     total energy              =     -34.18364099 Ry
     Harris-Foulkes estimate   =     -34.18364210 Ry
     estimated scf accuracy    <       0.00000308 Ry

     iteration #  3     ecut=    90.00 Ry     beta=0.70
     Davidson diagonalization with overlap
     ethr =  3.85E-08,  avg # of iterations =  2.0

     negative rho (up, down):  2.171E-05 0.000E+00

     total cpu time spent up to now is       19.6 secs

     total energy              =     -34.18364177 Ry
     Harris-Foulkes estimate   =     -34.18364212 Ry
     estimated scf accuracy    <       0.00000060 Ry

     iteration #  4     ecut=    90.00 Ry     beta=0.70
     Davidson diagonalization with overlap
     ethr =  7.44E-09,  avg # of iterations =  2.0

     negative rho (up, down):  5.365E-08 0.000E+00

     total cpu time spent up to now is       19.8 secs

     total energy              =     -34.18364189 Ry
     Harris-Foulkes estimate   =     -34.18364192 Ry
     estimated scf accuracy    <       0.00000001 Ry

     iteration #  5     ecut=    90.00 Ry     beta=0.70
     Davidson diagonalization with overlap
     ethr =  1.49E-10,  avg # of iterations =  2.0

     total cpu time spent up to now is       20.0 secs

     total energy              =     -34.18364179 Ry
     Harris-Foulkes estimate   =     -34.18364190 Ry
     estimated scf accuracy    <          5.4E-10 Ry

     iteration #  6     ecut=    90.00 Ry     beta=0.70
     Davidson diagonalization with overlap
     ethr =  6.70E-12,  avg # of iterations =  2.0

     total cpu time spent up to now is       20.2 secs

     End of self-consistent calculation

          k = 0.0000 0.0000 0.0000 (115313 PWs)   bands (ev):

   -25.0988 -12.7587  -9.1685  -7.0786  -0.9444   0.4264   0.7437   1.1306

     the Fermi energy is    -5.0866 ev

!    total energy              =     -34.18364178 Ry
     Harris-Foulkes estimate   =     -34.18364179 Ry
     estimated scf accuracy    <          7.1E-11 Ry

     The total energy is the sum of the following terms:

     one-electron contribution =     -63.66558008 Ry
     hartree contribution      =      33.25427129 Ry
     xc contribution           =      -8.35577725 Ry
     ewald contribution        =       4.58344426 Ry
     smearing contrib. (-TS)   =       0.00000000 Ry

     convergence has been achieved in   6 iterations

     Forces acting on atoms (Ry/au):

     atom    1 type  1   force =     0.00011397   -0.00015162   -0.00071613
     atom    2 type  1   force =     0.00007246   -0.00034726   -0.00009638
     atom    3 type  2   force =    -0.00018643    0.00049888    0.00081251

     Total force =     0.001276     Total SCF correction =     0.000047

     bfgs converged in   7 scf cycles and   5 bfgs steps
     (criteria: energy <  1.0E-04, force <  1.0E-03)

     End of BFGS Geometry Optimization

     Final energy   =     -34.1836417808 Ry
Begin final coordinates

ATOMIC_POSITIONS (angstrom)
H       -0.305725255  -0.338451837  -0.790489088
H        0.477398863   0.792369212  -0.094901952
O       -0.018130608  -0.032568375   0.095484040
End final coordinates



     Writing output data file pwscf.save
 
     init_run     :      0.63s CPU      0.79s WALL (       1 calls)
     electrons    :     14.26s CPU     16.37s WALL (       7 calls)
     update_pot   :      1.61s CPU      2.00s WALL (       6 calls)
     forces       :      0.51s CPU      0.54s WALL (       7 calls)

     Called by init_run:
     wfcinit      :      0.03s CPU      0.08s WALL (       1 calls)
     potinit      :      0.18s CPU      0.19s WALL (       1 calls)

     Called by electrons:
     c_bands      :      7.75s CPU      8.00s WALL (      45 calls)
     sum_band     :      1.19s CPU      1.29s WALL (      45 calls)
     v_of_rho     :      3.29s CPU      3.38s WALL (      52 calls)
     mix_rho      :      1.12s CPU      1.95s WALL (      45 calls)

     Called by c_bands:
     init_us_2    :      0.02s CPU      0.03s WALL (      91 calls)
     cegterg      :      7.67s CPU      7.84s WALL (      45 calls)

     Called by sum_band:

     Called by *egterg:
     h_psi        :      6.15s CPU      6.29s WALL (     462 calls)
     g_psi        :      0.05s CPU      0.05s WALL (     416 calls)
     cdiaghg      :      0.17s CPU      0.18s WALL (     455 calls)

     Called by h_psi:
     h_psi:pot    :      6.10s CPU      6.24s WALL (     462 calls)
     h_psi:calbec :      0.54s CPU      0.58s WALL (     462 calls)
     vloc_psi     :      5.52s CPU      5.63s WALL (     462 calls)
     add_vuspsi   :      0.03s CPU      0.04s WALL (     462 calls)

     General routines
     calbec       :      0.54s CPU      0.58s WALL (     490 calls)
     fft          :      2.84s CPU      2.98s WALL (     585 calls)
     fftw         :      5.43s CPU      5.59s WALL (    3752 calls)
     davcio       :      0.12s CPU      0.79s WALL (     318 calls)
 
     Parallel routines
     fft_scatter  :      3.93s CPU      4.20s WALL (    4337 calls)
 
     PWSCF        :    17.54s CPU        20.75s WALL

 
   This run was terminated on:   2:16:21  28Jul2018            

=------------------------------------------------------------------------------=
   JOB DONE.
=------------------------------------------------------------------------------=
