
     Program PWSCF v.6.0 (svn rev. 13079) starts on 28Jul2018 at  2:37: 8 

     This program is part of the open-source Quantum ESPRESSO suite
     for quantum simulation of materials; please cite
         "P. Giannozzi et al., J. Phys.:Condens. Matter 21 395502 (2009);
          URL http://www.quantum-espresso.org", 
     in publications or presentations arising from this work. More details at
     http://www.quantum-espresso.org/quote

     Parallel version (MPI), running on    28 processors
     R & G space division:  proc/nbgrp/npool/nimage =      28
     Reading input from ../QMCmins/scf-60.in
Warning: card &IONS ignored
Warning: card     POT_EXTRAPOLATION='SECOND-ORDER' ignored
Warning: card     WFC_EXTRAPOLATION='SECOND-ORDER' ignored
Warning: card     ION_TEMPERATURE = 'ANDERSEN' ignored
Warning: card / ignored

     Current dimensions of program PWSCF are:
     Max number of different atomic species (ntypx) = 10
     Max number of k-points (npk) =  40000
     Max angular momentum in pseudopotentials (lmaxx) =  3

     Subspace diagonalization in iterative solution of the eigenvalue problem:
     a serial algorithm will be used

 
     Parallelization info
     --------------------
     sticks:   dense  smooth     PW     G-vecs:    dense   smooth      PW
     Min         408     408    102                32936    32936    4116
     Max         409     409    103                32943    32943    4121
     Sum       11449   11449   2869               922329   922329  115313
 


     bravais-lattice index     =            1
     lattice parameter (alat)  =      20.0000  a.u.
     unit-cell volume          =    8000.0000 (a.u.)^3
     number of atoms/cell      =            3
     number of atomic types    =            2
     number of electrons       =         8.00
     number of Kohn-Sham states=            8
     kinetic-energy cutoff     =      90.0000  Ry
     charge density cutoff     =     360.0000  Ry
     convergence threshold     =      1.0E-08
     mixing beta               =       0.7000
     number of iterations used =            8  plain     mixing
     Exchange-correlation      = BLYP ( 1  3  1  3 0 0)

     celldm(1)=  20.000000  celldm(2)=   0.000000  celldm(3)=   0.000000
     celldm(4)=   0.000000  celldm(5)=   0.000000  celldm(6)=   0.000000

     crystal axes: (cart. coord. in units of alat)
               a(1) = (   1.000000   0.000000   0.000000 )  
               a(2) = (   0.000000   1.000000   0.000000 )  
               a(3) = (   0.000000   0.000000   1.000000 )  

     reciprocal axes: (cart. coord. in units 2 pi/alat)
               b(1) = (  1.000000  0.000000  0.000000 )  
               b(2) = (  0.000000  1.000000  0.000000 )  
               b(3) = (  0.000000  0.000000  1.000000 )  


     PseudoPot. # 1 for  H read from file:
     ../H.blyp-hgh.UPF
     MD5 check sum: c576e69559cde411e611be972c763230
     Pseudo is Norm-conserving, Zval =  1.0
     Generated in analytical, separable form
     Using radial grid of  929 points,  0 beta functions with: 

     PseudoPot. # 2 for  O read from file:
     ../O.blyp-hgh.UPF
     MD5 check sum: d0b7156309aa9befef28faac7bc56342
     Pseudo is Norm-conserving, Zval =  6.0
     Generated in analytical, separable form
     Using radial grid of 1095 points,  1 beta functions with: 
                l(1) =   0

     atomic species   valence    mass     pseudopotential
        H              1.00     1.01000      H( 1.00)
        O              6.00    16.00000      O( 1.00)

     No symmetry found



   Cartesian axes

     site n.     atom                  positions (alat units)
         1           H   tau(   1) = (   0.0390401   0.0682852   0.0259948  )
         2           H   tau(   2) = (   0.0362107  -0.0800647   0.0287750  )
         3           O   tau(   3) = (  -0.0101203  -0.0065516  -0.0000033  )

     number of k points=     1  Marzari-Vanderbilt smearing, width (Ry)=  0.0250
                       cart. coord. in units 2pi/alat
        k(    1) = (   0.0000000   0.0000000   0.0000000), wk =   2.0000000

     Dense  grid:   922329 G-vectors     FFT dimensions: ( 125, 125, 125)

     Estimated max dynamical RAM per process >      31.67Mb

     Estimated total allocated dynamical RAM >     886.64Mb

     Initial potential from superposition of free atoms
     Check: negative starting charge=   -0.015973

     starting charge    7.99998, renormalised to    8.00000

     negative rho (up, down):  1.597E-02 0.000E+00
     Starting wfc are    6 randomized atomic wfcs +    2 random wfc

     total cpu time spent up to now is        0.7 secs

     per-process dynamical memory:    33.5 Mb

     Self-consistent Calculation

     iteration #  1     ecut=    90.00 Ry     beta=0.70
     Davidson diagonalization with overlap
     ethr =  1.00E-02,  avg # of iterations =  8.0

     negative rho (up, down):  4.643E-03 0.000E+00

     total cpu time spent up to now is        1.0 secs

     total energy              =     -34.02988582 Ry
     Harris-Foulkes estimate   =     -34.27228835 Ry
     estimated scf accuracy    <       0.36407617 Ry

     iteration #  2     ecut=    90.00 Ry     beta=0.70
     Davidson diagonalization with overlap
     ethr =  4.55E-03,  avg # of iterations =  2.0

     negative rho (up, down):  2.763E-03 0.000E+00

     total cpu time spent up to now is        1.2 secs

     total energy              =     -34.08974179 Ry
     Harris-Foulkes estimate   =     -34.28026545 Ry
     estimated scf accuracy    <       0.41069317 Ry

     iteration #  3     ecut=    90.00 Ry     beta=0.70
     Davidson diagonalization with overlap
     ethr =  4.55E-03,  avg # of iterations =  2.0

     negative rho (up, down):  2.160E-04 0.000E+00

     total cpu time spent up to now is        1.4 secs

     total energy              =     -34.18110269 Ry
     Harris-Foulkes estimate   =     -34.18196743 Ry
     estimated scf accuracy    <       0.00581026 Ry

     iteration #  4     ecut=    90.00 Ry     beta=0.70
     Davidson diagonalization with overlap
     ethr =  7.26E-05,  avg # of iterations =  7.0

     negative rho (up, down):  1.878E-06 0.000E+00

     total cpu time spent up to now is        1.6 secs

     total energy              =     -34.18274535 Ry
     Harris-Foulkes estimate   =     -34.18288883 Ry
     estimated scf accuracy    <       0.00037980 Ry

     iteration #  5     ecut=    90.00 Ry     beta=0.70
     Davidson diagonalization with overlap
     ethr =  4.75E-06,  avg # of iterations = 11.0

     negative rho (up, down):  1.863E-06 0.000E+00

     total cpu time spent up to now is        1.9 secs

     total energy              =     -34.18276635 Ry
     Harris-Foulkes estimate   =     -34.18277327 Ry
     estimated scf accuracy    <       0.00002680 Ry

     iteration #  6     ecut=    90.00 Ry     beta=0.70
     Davidson diagonalization with overlap
     ethr =  3.35E-07,  avg # of iterations =  2.0

     negative rho (up, down):  1.009E-07 0.000E+00

     total cpu time spent up to now is        2.1 secs

     total energy              =     -34.18276877 Ry
     Harris-Foulkes estimate   =     -34.18276879 Ry
     estimated scf accuracy    <       0.00000077 Ry

     iteration #  7     ecut=    90.00 Ry     beta=0.70
     Davidson diagonalization with overlap
     ethr =  9.59E-09,  avg # of iterations =  2.0

     total cpu time spent up to now is        2.3 secs

     total energy              =     -34.18276850 Ry
     Harris-Foulkes estimate   =     -34.18276894 Ry
     estimated scf accuracy    <       0.00000005 Ry

     iteration #  8     ecut=    90.00 Ry     beta=0.70
     Davidson diagonalization with overlap
     ethr =  6.23E-10,  avg # of iterations =  2.0

     total cpu time spent up to now is        2.5 secs

     End of self-consistent calculation

          k = 0.0000 0.0000 0.0000 (115313 PWs)   bands (ev):

   -25.0768 -12.9395  -9.0123  -7.0679  -0.9348   0.4308   0.7633   1.1193

     the Fermi energy is    -5.0896 ev

!    total energy              =     -34.18276843 Ry
     Harris-Foulkes estimate   =     -34.18276851 Ry
     estimated scf accuracy    <          5.6E-09 Ry

     The total energy is the sum of the following terms:

     one-electron contribution =     -63.71605530 Ry
     hartree contribution      =      33.28315295 Ry
     xc contribution           =      -8.36045736 Ry
     ewald contribution        =       4.61059129 Ry
     smearing contrib. (-TS)   =       0.00000000 Ry

     convergence has been achieved in   8 iterations

     Writing output data file pwscf.save
 
     init_run     :      0.51s CPU      0.56s WALL (       1 calls)
     electrons    :      1.58s CPU      1.92s WALL (       1 calls)

     Called by init_run:
     wfcinit      :      0.03s CPU      0.04s WALL (       1 calls)
     potinit      :      0.11s CPU      0.12s WALL (       1 calls)

     Called by electrons:
     c_bands      :      0.71s CPU      0.73s WALL (       8 calls)
     sum_band     :      0.16s CPU      0.17s WALL (       8 calls)
     v_of_rho     :      0.46s CPU      0.47s WALL (       9 calls)
     mix_rho      :      0.20s CPU      0.36s WALL (       8 calls)

     Called by c_bands:
     init_us_2    :      0.00s CPU      0.01s WALL (      17 calls)
     cegterg      :      0.71s CPU      0.72s WALL (       8 calls)

     Called by sum_band:

     Called by *egterg:
     h_psi        :      0.63s CPU      0.64s WALL (      45 calls)
     g_psi        :      0.01s CPU      0.01s WALL (      36 calls)
     cdiaghg      :      0.01s CPU      0.01s WALL (      44 calls)

     Called by h_psi:
     h_psi:pot    :      0.63s CPU      0.63s WALL (      45 calls)
     h_psi:calbec :      0.01s CPU      0.01s WALL (      45 calls)
     vloc_psi     :      0.62s CPU      0.62s WALL (      45 calls)
     add_vuspsi   :      0.00s CPU      0.00s WALL (      45 calls)

     General routines
     calbec       :      0.01s CPU      0.01s WALL (      45 calls)
     fft          :      0.31s CPU      0.32s WALL (      98 calls)
     fftw         :      0.62s CPU      0.63s WALL (     490 calls)
     davcio       :      0.03s CPU      0.16s WALL (      70 calls)
 
     Parallel routines
     fft_scatter  :      0.34s CPU      0.35s WALL (     588 calls)
 
     PWSCF        :     2.34s CPU         2.89s WALL

 
   This run was terminated on:   2:37:11  28Jul2018            

=------------------------------------------------------------------------------=
   JOB DONE.
=------------------------------------------------------------------------------=
