
     Program PWSCF v.6.0 (svn rev. 13079) starts on 28Jul2018 at  2:51:18 

     This program is part of the open-source Quantum ESPRESSO suite
     for quantum simulation of materials; please cite
         "P. Giannozzi et al., J. Phys.:Condens. Matter 21 395502 (2009);
          URL http://www.quantum-espresso.org", 
     in publications or presentations arising from this work. More details at
     http://www.quantum-espresso.org/quote

     Parallel version (MPI), running on    28 processors
     R & G space division:  proc/nbgrp/npool/nimage =      28
     Reading input from ../QMCmins/scf-96.in
Warning: card &IONS ignored
Warning: card     POT_EXTRAPOLATION='SECOND-ORDER' ignored
Warning: card     WFC_EXTRAPOLATION='SECOND-ORDER' ignored
Warning: card     ION_TEMPERATURE = 'ANDERSEN' ignored
Warning: card / ignored

     Current dimensions of program PWSCF are:
     Max number of different atomic species (ntypx) = 10
     Max number of k-points (npk) =  40000
     Max angular momentum in pseudopotentials (lmaxx) =  3

     Subspace diagonalization in iterative solution of the eigenvalue problem:
     a serial algorithm will be used

 
     Parallelization info
     --------------------
     sticks:   dense  smooth     PW     G-vecs:    dense   smooth      PW
     Min         408     408    102                32936    32936    4116
     Max         409     409    103                32943    32943    4121
     Sum       11449   11449   2869               922329   922329  115313
 


     bravais-lattice index     =            1
     lattice parameter (alat)  =      20.0000  a.u.
     unit-cell volume          =    8000.0000 (a.u.)^3
     number of atoms/cell      =            3
     number of atomic types    =            2
     number of electrons       =         8.00
     number of Kohn-Sham states=            8
     kinetic-energy cutoff     =      90.0000  Ry
     charge density cutoff     =     360.0000  Ry
     convergence threshold     =      1.0E-08
     mixing beta               =       0.7000
     number of iterations used =            8  plain     mixing
     Exchange-correlation      = BLYP ( 1  3  1  3 0 0)

     celldm(1)=  20.000000  celldm(2)=   0.000000  celldm(3)=   0.000000
     celldm(4)=   0.000000  celldm(5)=   0.000000  celldm(6)=   0.000000

     crystal axes: (cart. coord. in units of alat)
               a(1) = (   1.000000   0.000000   0.000000 )  
               a(2) = (   0.000000   1.000000   0.000000 )  
               a(3) = (   0.000000   0.000000   1.000000 )  

     reciprocal axes: (cart. coord. in units 2 pi/alat)
               b(1) = (  1.000000  0.000000  0.000000 )  
               b(2) = (  0.000000  1.000000  0.000000 )  
               b(3) = (  0.000000  0.000000  1.000000 )  


     PseudoPot. # 1 for  H read from file:
     ../H.blyp-hgh.UPF
     MD5 check sum: c576e69559cde411e611be972c763230
     Pseudo is Norm-conserving, Zval =  1.0
     Generated in analytical, separable form
     Using radial grid of  929 points,  0 beta functions with: 

     PseudoPot. # 2 for  O read from file:
     ../O.blyp-hgh.UPF
     MD5 check sum: d0b7156309aa9befef28faac7bc56342
     Pseudo is Norm-conserving, Zval =  6.0
     Generated in analytical, separable form
     Using radial grid of 1095 points,  1 beta functions with: 
                l(1) =   0

     atomic species   valence    mass     pseudopotential
        H              1.00     1.01000      H( 1.00)
        O              6.00    16.00000      O( 1.00)

     No symmetry found



   Cartesian axes

     site n.     atom                  positions (alat units)
         1           H   tau(   1) = (   0.0813972  -0.0118073   0.0089726  )
         2           H   tau(   2) = (  -0.0345021  -0.0636771  -0.0659873  )
         3           O   tau(   3) = (  -0.0097650  -0.0046483  -0.0005341  )

     number of k points=     1  Marzari-Vanderbilt smearing, width (Ry)=  0.0250
                       cart. coord. in units 2pi/alat
        k(    1) = (   0.0000000   0.0000000   0.0000000), wk =   2.0000000

     Dense  grid:   922329 G-vectors     FFT dimensions: ( 125, 125, 125)

     Estimated max dynamical RAM per process >      31.67Mb

     Estimated total allocated dynamical RAM >     886.64Mb

     Initial potential from superposition of free atoms
     Check: negative starting charge=   -0.015979

     starting charge    7.99998, renormalised to    8.00000

     negative rho (up, down):  1.598E-02 0.000E+00
     Starting wfc are    6 randomized atomic wfcs +    2 random wfc

     total cpu time spent up to now is        0.8 secs

     per-process dynamical memory:    33.5 Mb

     Self-consistent Calculation

     iteration #  1     ecut=    90.00 Ry     beta=0.70
     Davidson diagonalization with overlap
     ethr =  1.00E-02,  avg # of iterations =  8.0

     negative rho (up, down):  4.662E-03 0.000E+00

     total cpu time spent up to now is        1.1 secs

     total energy              =     -34.03549310 Ry
     Harris-Foulkes estimate   =     -34.27480439 Ry
     estimated scf accuracy    <       0.36005470 Ry

     iteration #  2     ecut=    90.00 Ry     beta=0.70
     Davidson diagonalization with overlap
     ethr =  4.50E-03,  avg # of iterations =  2.0

     negative rho (up, down):  2.768E-03 0.000E+00

     total cpu time spent up to now is        1.3 secs

     total energy              =     -34.09409034 Ry
     Harris-Foulkes estimate   =     -34.27376923 Ry
     estimated scf accuracy    <       0.38349018 Ry

     iteration #  3     ecut=    90.00 Ry     beta=0.70
     Davidson diagonalization with overlap
     ethr =  4.50E-03,  avg # of iterations =  2.0

     negative rho (up, down):  1.991E-04 0.000E+00

     total cpu time spent up to now is        1.5 secs

     total energy              =     -34.18102200 Ry
     Harris-Foulkes estimate   =     -34.18204227 Ry
     estimated scf accuracy    <       0.00607511 Ry

     iteration #  4     ecut=    90.00 Ry     beta=0.70
     Davidson diagonalization with overlap
     ethr =  7.59E-05,  avg # of iterations =  7.0

     negative rho (up, down):  1.297E-06 0.000E+00

     total cpu time spent up to now is        1.8 secs

     total energy              =     -34.18276906 Ry
     Harris-Foulkes estimate   =     -34.18291764 Ry
     estimated scf accuracy    <       0.00039325 Ry

     iteration #  5     ecut=    90.00 Ry     beta=0.70
     Davidson diagonalization with overlap
     ethr =  4.92E-06,  avg # of iterations = 16.0

     negative rho (up, down):  2.833E-07 0.000E+00

     total cpu time spent up to now is        2.1 secs

     total energy              =     -34.18279201 Ry
     Harris-Foulkes estimate   =     -34.18279977 Ry
     estimated scf accuracy    <       0.00002951 Ry

     iteration #  6     ecut=    90.00 Ry     beta=0.70
     Davidson diagonalization with overlap
     ethr =  3.69E-07,  avg # of iterations =  4.0

     negative rho (up, down):  1.514E-07 0.000E+00

     total cpu time spent up to now is        2.3 secs

     total energy              =     -34.18279500 Ry
     Harris-Foulkes estimate   =     -34.18279468 Ry
     estimated scf accuracy    <       0.00000174 Ry

     iteration #  7     ecut=    90.00 Ry     beta=0.70
     Davidson diagonalization with overlap
     ethr =  2.17E-08,  avg # of iterations =  2.0

     total cpu time spent up to now is        2.5 secs

     total energy              =     -34.18279497 Ry
     Harris-Foulkes estimate   =     -34.18279531 Ry
     estimated scf accuracy    <       0.00000008 Ry

     iteration #  8     ecut=    90.00 Ry     beta=0.70
     Davidson diagonalization with overlap
     ethr =  9.56E-10,  avg # of iterations =  2.0

     total cpu time spent up to now is        2.6 secs

     End of self-consistent calculation

          k = 0.0000 0.0000 0.0000 (115313 PWs)   bands (ev):

   -25.1468 -13.0087  -9.0193  -7.0805  -0.9106   0.4386   0.7553   1.1245

     the Fermi energy is    -5.1032 ev

!    total energy              =     -34.18279483 Ry
     Harris-Foulkes estimate   =     -34.18279498 Ry
     estimated scf accuracy    <          5.0E-09 Ry

     The total energy is the sum of the following terms:

     one-electron contribution =     -63.87380103 Ry
     hartree contribution      =      33.35875648 Ry
     xc contribution           =      -8.37277848 Ry
     ewald contribution        =       4.70502821 Ry
     smearing contrib. (-TS)   =       0.00000000 Ry

     convergence has been achieved in   8 iterations

     Writing output data file pwscf.save
 
     init_run     :      0.57s CPU      0.70s WALL (       1 calls)
     electrons    :      1.63s CPU      1.95s WALL (       1 calls)

     Called by init_run:
     wfcinit      :      0.02s CPU      0.04s WALL (       1 calls)
     potinit      :      0.17s CPU      0.27s WALL (       1 calls)

     Called by electrons:
     c_bands      :      0.73s CPU      0.74s WALL (       8 calls)
     sum_band     :      0.17s CPU      0.17s WALL (       8 calls)
     v_of_rho     :      0.45s CPU      0.47s WALL (       9 calls)
     mix_rho      :      0.16s CPU      0.36s WALL (       8 calls)

     Called by c_bands:
     init_us_2    :      0.00s CPU      0.01s WALL (      17 calls)
     cegterg      :      0.73s CPU      0.73s WALL (       8 calls)

     Called by sum_band:

     Called by *egterg:
     h_psi        :      0.64s CPU      0.65s WALL (      52 calls)
     g_psi        :      0.01s CPU      0.01s WALL (      43 calls)
     cdiaghg      :      0.01s CPU      0.01s WALL (      51 calls)

     Called by h_psi:
     h_psi:pot    :      0.64s CPU      0.64s WALL (      52 calls)
     h_psi:calbec :      0.01s CPU      0.01s WALL (      52 calls)
     vloc_psi     :      0.63s CPU      0.63s WALL (      52 calls)
     add_vuspsi   :      0.00s CPU      0.00s WALL (      52 calls)

     General routines
     calbec       :      0.01s CPU      0.01s WALL (      52 calls)
     fft          :      0.36s CPU      0.40s WALL (      98 calls)
     fftw         :      0.63s CPU      0.63s WALL (     498 calls)
     davcio       :      0.02s CPU      0.20s WALL (      70 calls)
 
     Parallel routines
     fft_scatter  :      0.39s CPU      0.43s WALL (     596 calls)
 
     PWSCF        :     2.39s CPU         3.02s WALL

 
   This run was terminated on:   2:51:21  28Jul2018            

=------------------------------------------------------------------------------=
   JOB DONE.
=------------------------------------------------------------------------------=
