
     Program PWSCF v.6.0 (svn rev. 13079) starts on 28Jul2018 at  2:33:24 

     This program is part of the open-source Quantum ESPRESSO suite
     for quantum simulation of materials; please cite
         "P. Giannozzi et al., J. Phys.:Condens. Matter 21 395502 (2009);
          URL http://www.quantum-espresso.org", 
     in publications or presentations arising from this work. More details at
     http://www.quantum-espresso.org/quote

     Parallel version (MPI), running on    28 processors
     R & G space division:  proc/nbgrp/npool/nimage =      28
     Reading input from ../QMCmins/scf-51.in
Warning: card &IONS ignored
Warning: card     POT_EXTRAPOLATION='SECOND-ORDER' ignored
Warning: card     WFC_EXTRAPOLATION='SECOND-ORDER' ignored
Warning: card     ION_TEMPERATURE = 'ANDERSEN' ignored
Warning: card / ignored

     Current dimensions of program PWSCF are:
     Max number of different atomic species (ntypx) = 10
     Max number of k-points (npk) =  40000
     Max angular momentum in pseudopotentials (lmaxx) =  3

     Subspace diagonalization in iterative solution of the eigenvalue problem:
     a serial algorithm will be used

 
     Parallelization info
     --------------------
     sticks:   dense  smooth     PW     G-vecs:    dense   smooth      PW
     Min         408     408    102                32936    32936    4116
     Max         409     409    103                32943    32943    4121
     Sum       11449   11449   2869               922329   922329  115313
 


     bravais-lattice index     =            1
     lattice parameter (alat)  =      20.0000  a.u.
     unit-cell volume          =    8000.0000 (a.u.)^3
     number of atoms/cell      =            3
     number of atomic types    =            2
     number of electrons       =         8.00
     number of Kohn-Sham states=            8
     kinetic-energy cutoff     =      90.0000  Ry
     charge density cutoff     =     360.0000  Ry
     convergence threshold     =      1.0E-08
     mixing beta               =       0.7000
     number of iterations used =            8  plain     mixing
     Exchange-correlation      = BLYP ( 1  3  1  3 0 0)

     celldm(1)=  20.000000  celldm(2)=   0.000000  celldm(3)=   0.000000
     celldm(4)=   0.000000  celldm(5)=   0.000000  celldm(6)=   0.000000

     crystal axes: (cart. coord. in units of alat)
               a(1) = (   1.000000   0.000000   0.000000 )  
               a(2) = (   0.000000   1.000000   0.000000 )  
               a(3) = (   0.000000   0.000000   1.000000 )  

     reciprocal axes: (cart. coord. in units 2 pi/alat)
               b(1) = (  1.000000  0.000000  0.000000 )  
               b(2) = (  0.000000  1.000000  0.000000 )  
               b(3) = (  0.000000  0.000000  1.000000 )  


     PseudoPot. # 1 for  H read from file:
     ../H.blyp-hgh.UPF
     MD5 check sum: c576e69559cde411e611be972c763230
     Pseudo is Norm-conserving, Zval =  1.0
     Generated in analytical, separable form
     Using radial grid of  929 points,  0 beta functions with: 

     PseudoPot. # 2 for  O read from file:
     ../O.blyp-hgh.UPF
     MD5 check sum: d0b7156309aa9befef28faac7bc56342
     Pseudo is Norm-conserving, Zval =  6.0
     Generated in analytical, separable form
     Using radial grid of 1095 points,  1 beta functions with: 
                l(1) =   0

     atomic species   valence    mass     pseudopotential
        H              1.00     1.01000      H( 1.00)
        O              6.00    16.00000      O( 1.00)

     No symmetry found



   Cartesian axes

     site n.     atom                  positions (alat units)
         1           H   tau(   1) = (  -0.0508026   0.0614684   0.0439624  )
         2           H   tau(   2) = (   0.0501724  -0.0353864   0.0664202  )
         3           O   tau(   3) = (  -0.0015616  -0.0032245   0.0002460  )

     number of k points=     1  Marzari-Vanderbilt smearing, width (Ry)=  0.0250
                       cart. coord. in units 2pi/alat
        k(    1) = (   0.0000000   0.0000000   0.0000000), wk =   2.0000000

     Dense  grid:   922329 G-vectors     FFT dimensions: ( 125, 125, 125)

     Estimated max dynamical RAM per process >      31.67Mb

     Estimated total allocated dynamical RAM >     886.64Mb

     Initial potential from superposition of free atoms
     Check: negative starting charge=   -0.016017

     starting charge    7.99998, renormalised to    8.00000

     negative rho (up, down):  1.602E-02 0.000E+00
     Starting wfc are    6 randomized atomic wfcs +    2 random wfc

     total cpu time spent up to now is        0.7 secs

     per-process dynamical memory:    33.5 Mb

     Self-consistent Calculation

     iteration #  1     ecut=    90.00 Ry     beta=0.70
     Davidson diagonalization with overlap
     ethr =  1.00E-02,  avg # of iterations =  8.0

     negative rho (up, down):  4.676E-03 0.000E+00

     total cpu time spent up to now is        1.1 secs

     total energy              =     -34.03439707 Ry
     Harris-Foulkes estimate   =     -34.27470079 Ry
     estimated scf accuracy    <       0.36135724 Ry

     iteration #  2     ecut=    90.00 Ry     beta=0.70
     Davidson diagonalization with overlap
     ethr =  4.52E-03,  avg # of iterations =  2.0

     negative rho (up, down):  2.845E-03 0.000E+00

     total cpu time spent up to now is        1.3 secs

     total energy              =     -34.09425373 Ry
     Harris-Foulkes estimate   =     -34.27199644 Ry
     estimated scf accuracy    <       0.37837609 Ry

     iteration #  3     ecut=    90.00 Ry     beta=0.70
     Davidson diagonalization with overlap
     ethr =  4.52E-03,  avg # of iterations =  2.0

     negative rho (up, down):  1.755E-04 0.000E+00

     total cpu time spent up to now is        1.5 secs

     total energy              =     -34.18006352 Ry
     Harris-Foulkes estimate   =     -34.18093761 Ry
     estimated scf accuracy    <       0.00587963 Ry

     iteration #  4     ecut=    90.00 Ry     beta=0.70
     Davidson diagonalization with overlap
     ethr =  7.35E-05,  avg # of iterations =  6.0

     negative rho (up, down):  6.434E-06 0.000E+00

     total cpu time spent up to now is        1.8 secs

     total energy              =     -34.18172441 Ry
     Harris-Foulkes estimate   =     -34.18185339 Ry
     estimated scf accuracy    <       0.00034312 Ry

     iteration #  5     ecut=    90.00 Ry     beta=0.70
     Davidson diagonalization with overlap
     ethr =  4.29E-06,  avg # of iterations = 11.0

     total cpu time spent up to now is        2.0 secs

     total energy              =     -34.18174554 Ry
     Harris-Foulkes estimate   =     -34.18175176 Ry
     estimated scf accuracy    <       0.00002480 Ry

     iteration #  6     ecut=    90.00 Ry     beta=0.70
     Davidson diagonalization with overlap
     ethr =  3.10E-07,  avg # of iterations =  2.0

     negative rho (up, down):  1.086E-07 0.000E+00

     total cpu time spent up to now is        2.2 secs

     total energy              =     -34.18174837 Ry
     Harris-Foulkes estimate   =     -34.18174809 Ry
     estimated scf accuracy    <       0.00000224 Ry

     iteration #  7     ecut=    90.00 Ry     beta=0.70
     Davidson diagonalization with overlap
     ethr =  2.80E-08,  avg # of iterations =  2.0

     total cpu time spent up to now is        2.5 secs

     total energy              =     -34.18174850 Ry
     Harris-Foulkes estimate   =     -34.18174870 Ry
     estimated scf accuracy    <       0.00000007 Ry

     iteration #  8     ecut=    90.00 Ry     beta=0.70
     Davidson diagonalization with overlap
     ethr =  8.65E-10,  avg # of iterations =  2.0

     total cpu time spent up to now is        2.7 secs

     End of self-consistent calculation

          k = 0.0000 0.0000 0.0000 (115313 PWs)   bands (ev):

   -25.3108 -12.8337  -9.2722  -7.1172  -0.9047   0.4378   0.7894   1.1518

     the Fermi energy is    -5.1237 ev

!    total energy              =     -34.18174836 Ry
     Harris-Foulkes estimate   =     -34.18174852 Ry
     estimated scf accuracy    <          3.2E-09 Ry

     The total energy is the sum of the following terms:

     one-electron contribution =     -64.05550237 Ry
     hartree contribution      =      33.43765112 Ry
     xc contribution           =      -8.38589329 Ry
     ewald contribution        =       4.82199619 Ry
     smearing contrib. (-TS)   =       0.00000000 Ry

     convergence has been achieved in   8 iterations

     Writing output data file pwscf.save
 
     init_run     :      0.51s CPU      0.55s WALL (       1 calls)
     electrons    :      1.71s CPU      2.12s WALL (       1 calls)

     Called by init_run:
     wfcinit      :      0.03s CPU      0.04s WALL (       1 calls)
     potinit      :      0.11s CPU      0.12s WALL (       1 calls)

     Called by electrons:
     c_bands      :      0.70s CPU      0.77s WALL (       8 calls)
     sum_band     :      0.16s CPU      0.18s WALL (       8 calls)
     v_of_rho     :      0.46s CPU      0.47s WALL (       9 calls)
     mix_rho      :      0.21s CPU      0.37s WALL (       8 calls)

     Called by c_bands:
     init_us_2    :      0.00s CPU      0.01s WALL (      17 calls)
     cegterg      :      0.69s CPU      0.76s WALL (       8 calls)

     Called by sum_band:

     Called by *egterg:
     h_psi        :      0.62s CPU      0.67s WALL (      44 calls)
     g_psi        :      0.01s CPU      0.01s WALL (      35 calls)
     cdiaghg      :      0.01s CPU      0.01s WALL (      43 calls)

     Called by h_psi:
     h_psi:pot    :      0.62s CPU      0.67s WALL (      44 calls)
     h_psi:calbec :      0.01s CPU      0.01s WALL (      44 calls)
     vloc_psi     :      0.60s CPU      0.65s WALL (      44 calls)
     add_vuspsi   :      0.00s CPU      0.00s WALL (      44 calls)

     General routines
     calbec       :      0.01s CPU      0.01s WALL (      44 calls)
     fft          :      0.30s CPU      0.32s WALL (      98 calls)
     fftw         :      0.61s CPU      0.67s WALL (     486 calls)
     davcio       :      0.02s CPU      0.15s WALL (      70 calls)
 
     Parallel routines
     fft_scatter  :      0.33s CPU      0.40s WALL (     584 calls)
 
     PWSCF        :     2.41s CPU         3.05s WALL

 
   This run was terminated on:   2:33:27  28Jul2018            

=------------------------------------------------------------------------------=
   JOB DONE.
=------------------------------------------------------------------------------=
