
     Program PWSCF v.6.2 (svn rev. 14038) starts on 18May2018 at 14:40:27 

     This program is part of the open-source Quantum ESPRESSO suite
     for quantum simulation of materials; please cite
         "P. Giannozzi et al., J. Phys.:Condens. Matter 21 395502 (2009);
         "P. Giannozzi et al., J. Phys.:Condens. Matter 29 465901 (2017);
          URL http://www.quantum-espresso.org", 
     in publications or presentations arising from this work. More details at
     http://www.quantum-espresso.org/quote

     Parallel version (MPI), running on    28 processors

     MPI processes distributed on     1 nodes
     R & G space division:  proc/nbgrp/npool/nimage =      28
     Reading input from ../ecut2-200/12500.in
Warning: card &IONS ignored
Warning: card     POT_EXTRAPOLATION='SECOND-ORDER' ignored
Warning: card     WFC_EXTRAPOLATION='SECOND-ORDER' ignored
Warning: card     ION_TEMPERATURE = 'ANDERSEN' ignored
Warning: card / ignored

     Current dimensions of program PWSCF are:
     Max number of different atomic species (ntypx) = 10
     Max number of k-points (npk) =  40000
     Max angular momentum in pseudopotentials (lmaxx) =  3
               file H.pbe-kjpaw_psl.1.0.0.UPF: wavefunction(s)  1S renormalized
               file O.pbe-n-kjpaw_psl.1.0.0.UPF: wavefunction(s)  2S 2P renormalized

     Subspace diagonalization in iterative solution of the eigenvalue problem:
     a serial algorithm will be used

 
     Parallelization info
     --------------------
     sticks:   dense  smooth     PW     G-vecs:    dense   smooth      PW
     Min         909     909    227               109161   109161   13653
     Max         911     911    228               109164   109164   13656
     Sum       25477   25477   6369              3056521  3056521  382323
 


     bravais-lattice index     =            1
     lattice parameter (alat)  =      20.0000  a.u.
     unit-cell volume          =    8000.0000 (a.u.)^3
     number of atoms/cell      =            3
     number of atomic types    =            2
     number of electrons       =         8.00
     number of Kohn-Sham states=            8
     kinetic-energy cutoff     =     200.0000  Ry
     charge density cutoff     =     800.0000  Ry
     convergence threshold     =      1.0E-08
     mixing beta               =       0.7000
     number of iterations used =            8  plain     mixing
     Exchange-correlation      = SLA PW PBX PBC ( 1  4  3  4 0 0)

     celldm(1)=  20.000000  celldm(2)=   0.000000  celldm(3)=   0.000000
     celldm(4)=   0.000000  celldm(5)=   0.000000  celldm(6)=   0.000000

     crystal axes: (cart. coord. in units of alat)
               a(1) = (   1.000000   0.000000   0.000000 )  
               a(2) = (   0.000000   1.000000   0.000000 )  
               a(3) = (   0.000000   0.000000   1.000000 )  

     reciprocal axes: (cart. coord. in units 2 pi/alat)
               b(1) = (  1.000000  0.000000  0.000000 )  
               b(2) = (  0.000000  1.000000  0.000000 )  
               b(3) = (  0.000000  0.000000  1.000000 )  


     PseudoPot. # 1 for H  read from file:
     ../pslibrary/pbe/PSEUDOPOTENTIALS/H.pbe-kjpaw_psl.1.0.0.UPF
     MD5 check sum: e77ef4e89cfa2d6a63e4c80bb1a147aa
     Pseudo is Projector augmented-wave, Zval =  1.0
     Generated using "atomic" code by A. Dal Corso v.6.2 svn rev. 14038
     Shape of augmentation charge: PSQ
     Using radial grid of  929 points,  2 beta functions with: 
                l(1) =   0
                l(2) =   0
     Q(r) pseudized with 0 coefficients 


     PseudoPot. # 2 for O  read from file:
     ../pslibrary/pbe/PSEUDOPOTENTIALS/O.pbe-n-kjpaw_psl.1.0.0.UPF
     MD5 check sum: bb09017f9a02654af35f7312a94eda3e
     Pseudo is Projector augmented-wave + core cor, Zval =  6.0
     Generated using "atomic" code by A. Dal Corso v.6.2 svn rev. 14038
     Shape of augmentation charge: PSQ
     Using radial grid of 1095 points,  4 beta functions with: 
                l(1) =   0
                l(2) =   0
                l(3) =   1
                l(4) =   1
     Q(r) pseudized with 0 coefficients 


     atomic species   valence    mass     pseudopotential
        H              1.00     1.01000     H ( 1.00)
        O              6.00    16.00000     O ( 1.00)

     No symmetry found



   Cartesian axes

     site n.     atom                  positions (alat units)
         1           O   tau(   1) = (  -0.0053013  -0.0008756   0.0138451  )
         2           H   tau(   2) = (   0.0274939   0.0911008  -0.1218591  )
         3           H   tau(   3) = (   0.0564873  -0.0772293  -0.0091041  )

     number of k points=     1  Marzari-Vanderbilt smearing, width (Ry)=  0.0250
                       cart. coord. in units 2pi/alat
        k(    1) = (   0.0000000   0.0000000   0.0000000), wk =   2.0000000

     Dense  grid:  3056521 G-vectors     FFT dimensions: ( 192, 192, 192)

     Estimated max dynamical RAM per process >     123.03 MB

     Estimated total dynamical RAM >       3.36 GB

     Initial potential from superposition of free atoms
     Check: negative starting charge=   -0.000114

     starting charge    7.99998, renormalised to    8.00000

     negative rho (up, down):  1.142E-04 0.000E+00
     Starting wfc are    6 randomized atomic wfcs +    2 random wfc
     Checking if some PAW data can be deallocated... 

     total cpu time spent up to now is        3.7 secs

     Self-consistent Calculation

     iteration #  1     ecut=   200.00 Ry     beta= 0.70
     Davidson diagonalization with overlap
     ethr =  1.00E-02,  avg # of iterations =  7.0

     negative rho (up, down):  1.536E-04 0.000E+00

     total cpu time spent up to now is        6.0 secs

     total energy              =     -43.36910859 Ry
     Harris-Foulkes estimate   =     -43.88920326 Ry
     estimated scf accuracy    <       0.68400584 Ry

     iteration #  2     ecut=   200.00 Ry     beta= 0.70
     Davidson diagonalization with overlap
     ethr =  8.55E-03,  avg # of iterations =  4.0

     negative rho (up, down):  3.662E-05 0.000E+00

     total cpu time spent up to now is        7.9 secs

     total energy              =     -43.29342285 Ry
     Harris-Foulkes estimate   =     -44.46553352 Ry
     estimated scf accuracy    <       3.71309852 Ry

     iteration #  3     ecut=   200.00 Ry     beta= 0.70
     Davidson diagonalization with overlap
     ethr =  8.55E-03,  avg # of iterations =  4.0

     negative rho (up, down):  1.878E-05 0.000E+00

     total cpu time spent up to now is        9.8 secs

     total energy              =     -43.60723512 Ry
     Harris-Foulkes estimate   =     -43.62560820 Ry
     estimated scf accuracy    <       0.14170780 Ry

     iteration #  4     ecut=   200.00 Ry     beta= 0.70
     Davidson diagonalization with overlap
     ethr =  1.77E-03,  avg # of iterations =  4.0

     negative rho (up, down):  3.758E-05 0.000E+00

     total cpu time spent up to now is       11.7 secs

     total energy              =     -43.74926989 Ry
     Harris-Foulkes estimate   =     -43.75311410 Ry
     estimated scf accuracy    <       0.02465095 Ry

     iteration #  5     ecut=   200.00 Ry     beta= 0.70
     Davidson diagonalization with overlap
     ethr =  3.08E-04,  avg # of iterations =  1.0

     negative rho (up, down):  4.499E-05 0.000E+00

     total cpu time spent up to now is       13.5 secs

     total energy              =     -43.74828330 Ry
     Harris-Foulkes estimate   =     -43.75044548 Ry
     estimated scf accuracy    <       0.01783000 Ry

     iteration #  6     ecut=   200.00 Ry     beta= 0.70
     Davidson diagonalization with overlap
     ethr =  2.23E-04,  avg # of iterations =  1.0

     negative rho (up, down):  5.459E-05 0.000E+00

     total cpu time spent up to now is       15.4 secs

     total energy              =     -43.74730722 Ry
     Harris-Foulkes estimate   =     -43.74855178 Ry
     estimated scf accuracy    <       0.01075315 Ry

     iteration #  7     ecut=   200.00 Ry     beta= 0.70
     Davidson diagonalization with overlap
     ethr =  1.34E-04,  avg # of iterations =  1.0

     negative rho (up, down):  6.026E-05 0.000E+00

     total cpu time spent up to now is       17.2 secs

     total energy              =     -43.74747088 Ry
     Harris-Foulkes estimate   =     -43.74769111 Ry
     estimated scf accuracy    <       0.00532038 Ry

     iteration #  8     ecut=   200.00 Ry     beta= 0.70
     Davidson diagonalization with overlap
     ethr =  6.65E-05,  avg # of iterations =  7.0

     negative rho (up, down):  6.740E-05 0.000E+00

     total cpu time spent up to now is       19.5 secs

     total energy              =     -43.74746929 Ry
     Harris-Foulkes estimate   =     -43.74759868 Ry
     estimated scf accuracy    <       0.00379239 Ry

     iteration #  9     ecut=   200.00 Ry     beta= 0.70
     Davidson diagonalization with overlap
     ethr =  4.74E-05,  avg # of iterations =  1.0

     negative rho (up, down):  8.530E-05 0.000E+00

     total cpu time spent up to now is       21.4 secs

     total energy              =     -43.74735597 Ry
     Harris-Foulkes estimate   =     -43.74755639 Ry
     estimated scf accuracy    <       0.00258567 Ry

     iteration # 10     ecut=   200.00 Ry     beta= 0.70
     Davidson diagonalization with overlap
     ethr =  3.23E-05,  avg # of iterations =  1.0

     negative rho (up, down):  9.889E-05 0.000E+00

     total cpu time spent up to now is       23.3 secs

     total energy              =     -43.74727761 Ry
     Harris-Foulkes estimate   =     -43.74740717 Ry
     estimated scf accuracy    <       0.00154172 Ry

     iteration # 11     ecut=   200.00 Ry     beta= 0.70
     Davidson diagonalization with overlap
     ethr =  1.93E-05,  avg # of iterations =  2.0

     negative rho (up, down):  1.004E-04 0.000E+00

     total cpu time spent up to now is       25.2 secs

     total energy              =     -43.74730946 Ry
     Harris-Foulkes estimate   =     -43.74733541 Ry
     estimated scf accuracy    <       0.00072689 Ry

     iteration # 12     ecut=   200.00 Ry     beta= 0.70
     Davidson diagonalization with overlap
     ethr =  9.09E-06,  avg # of iterations =  4.0

     negative rho (up, down):  1.463E-04 0.000E+00

     total cpu time spent up to now is       27.2 secs

     total energy              =     -43.74719562 Ry
     Harris-Foulkes estimate   =     -43.74732886 Ry
     estimated scf accuracy    <       0.00052630 Ry

     iteration # 13     ecut=   200.00 Ry     beta= 0.70
     Davidson diagonalization with overlap
     ethr =  6.58E-06,  avg # of iterations =  1.0

     negative rho (up, down):  1.454E-04 0.000E+00

     total cpu time spent up to now is       29.0 secs

     total energy              =     -43.74721498 Ry
     Harris-Foulkes estimate   =     -43.74722865 Ry
     estimated scf accuracy    <       0.00005938 Ry

     iteration # 14     ecut=   200.00 Ry     beta= 0.70
     Davidson diagonalization with overlap
     ethr =  7.42E-07,  avg # of iterations =  8.0

     negative rho (up, down):  1.436E-04 0.000E+00

     total cpu time spent up to now is       31.4 secs

     total energy              =     -43.74724382 Ry
     Harris-Foulkes estimate   =     -43.74724145 Ry
     estimated scf accuracy    <       0.00000785 Ry

     iteration # 15     ecut=   200.00 Ry     beta= 0.70
     Davidson diagonalization with overlap
     ethr =  9.81E-08,  avg # of iterations =  3.0

     negative rho (up, down):  1.422E-04 0.000E+00

     total cpu time spent up to now is       33.4 secs

     total energy              =     -43.74725406 Ry
     Harris-Foulkes estimate   =     -43.74724587 Ry
     estimated scf accuracy    <       0.00002436 Ry

     iteration # 16     ecut=   200.00 Ry     beta= 0.70
     Davidson diagonalization with overlap
     ethr =  9.81E-08,  avg # of iterations =  3.0

     negative rho (up, down):  1.405E-04 0.000E+00

     total cpu time spent up to now is       35.4 secs

     total energy              =     -43.74725226 Ry
     Harris-Foulkes estimate   =     -43.74725772 Ry
     estimated scf accuracy    <       0.00007726 Ry

     iteration # 17     ecut=   200.00 Ry     beta= 0.70
     Davidson diagonalization with overlap
     ethr =  9.81E-08,  avg # of iterations =  1.0

     negative rho (up, down):  1.407E-04 0.000E+00

     total cpu time spent up to now is       37.3 secs

     total energy              =     -43.74724816 Ry
     Harris-Foulkes estimate   =     -43.74725244 Ry
     estimated scf accuracy    <       0.00006105 Ry

     iteration # 18     ecut=   200.00 Ry     beta= 0.70
     Davidson diagonalization with overlap
     ethr =  9.81E-08,  avg # of iterations =  2.0

     negative rho (up, down):  1.404E-04 0.000E+00

     total cpu time spent up to now is       39.2 secs

     total energy              =     -43.74724900 Ry
     Harris-Foulkes estimate   =     -43.74724863 Ry
     estimated scf accuracy    <       0.00004240 Ry

     iteration # 19     ecut=   200.00 Ry     beta= 0.70
     Davidson diagonalization with overlap
     ethr =  9.81E-08,  avg # of iterations =  1.0

     negative rho (up, down):  1.437E-04 0.000E+00

     total cpu time spent up to now is       41.1 secs

     total energy              =     -43.74723626 Ry
     Harris-Foulkes estimate   =     -43.74724905 Ry
     estimated scf accuracy    <       0.00004362 Ry

     iteration # 20     ecut=   200.00 Ry     beta= 0.70
     Davidson diagonalization with overlap
     ethr =  9.81E-08,  avg # of iterations =  3.0

     negative rho (up, down):  1.446E-04 0.000E+00

     total cpu time spent up to now is       43.2 secs

     total energy              =     -43.74723864 Ry
     Harris-Foulkes estimate   =     -43.74724025 Ry
     estimated scf accuracy    <       0.00000266 Ry

     iteration # 21     ecut=   200.00 Ry     beta= 0.70
     Davidson diagonalization with overlap
     ethr =  3.33E-08,  avg # of iterations =  4.0

     negative rho (up, down):  1.435E-04 0.000E+00

     total cpu time spent up to now is       45.2 secs

     total energy              =     -43.74723946 Ry
     Harris-Foulkes estimate   =     -43.74723985 Ry
     estimated scf accuracy    <       0.00000206 Ry

     iteration # 22     ecut=   200.00 Ry     beta= 0.70
     Davidson diagonalization with overlap
     ethr =  2.57E-08,  avg # of iterations =  1.0

     negative rho (up, down):  1.431E-04 0.000E+00

     total cpu time spent up to now is       47.1 secs

     total energy              =     -43.74723924 Ry
     Harris-Foulkes estimate   =     -43.74723953 Ry
     estimated scf accuracy    <       0.00000087 Ry

     iteration # 23     ecut=   200.00 Ry     beta= 0.70
     Davidson diagonalization with overlap
     ethr =  1.09E-08,  avg # of iterations =  3.0

     negative rho (up, down):  1.430E-04 0.000E+00

     total cpu time spent up to now is       49.1 secs

     total energy              =     -43.74723941 Ry
     Harris-Foulkes estimate   =     -43.74723943 Ry
     estimated scf accuracy    <       0.00000003 Ry

     iteration # 24     ecut=   200.00 Ry     beta= 0.70
     Davidson diagonalization with overlap
     ethr =  4.27E-10,  avg # of iterations =  4.0

     negative rho (up, down):  1.432E-04 0.000E+00

     total cpu time spent up to now is       50.8 secs

     End of self-consistent calculation

          k = 0.0000 0.0000 0.0000 (382323 PWs)   bands (ev):

   -23.2173 -10.3618  -8.7129  -6.7089  -4.7832  -0.5581   0.2205   0.8821

     the Fermi energy is    -6.3956 ev

!    total energy              =     -43.74723944 Ry
     Harris-Foulkes estimate   =     -43.74723945 Ry
     estimated scf accuracy    <          9.5E-09 Ry

     total all-electron energy =      -152.594121 Ry

     The total energy is the sum of the following terms:

     one-electron contribution =     -57.10579900 Ry
     hartree contribution      =      30.33488774 Ry
     xc contribution           =      -8.38753727 Ry
     ewald contribution        =       1.00271754 Ry
     one-center paw contrib.   =      -9.59558592 Ry
     smearing contrib. (-TS)   =       0.00407747 Ry

     convergence has been achieved in  24 iterations

     Writing output data file pwscf.save
 
     init_run     :      2.81s CPU      2.99s WALL (       1 calls)
     electrons    :     41.49s CPU     48.26s WALL (       1 calls)

     Called by init_run:
     wfcinit      :      0.33s CPU      0.37s WALL (       1 calls)
     potinit      :      0.47s CPU      0.50s WALL (       1 calls)

     Called by electrons:
     c_bands      :     16.27s CPU     16.43s WALL (      24 calls)
     sum_band     :     10.24s CPU     11.19s WALL (      24 calls)
     v_of_rho     :      7.35s CPU      7.65s WALL (      25 calls)
     newd         :      3.52s CPU      4.33s WALL (      25 calls)
     PAW_pot      :      0.27s CPU      0.29s WALL (      25 calls)
     mix_rho      :      3.87s CPU      7.31s WALL (      24 calls)

     Called by c_bands:
     init_us_2    :      0.23s CPU      0.25s WALL (      49 calls)
     cegterg      :     16.04s CPU     16.18s WALL (      24 calls)

     Called by sum_band:
     sum_band:bec :      0.00s CPU      0.00s WALL (      24 calls)
     addusdens    :      5.19s CPU      6.03s WALL (      24 calls)

     Called by *egterg:
     h_psi        :     15.43s CPU     15.56s WALL (      96 calls)
     s_psi        :      0.10s CPU      0.10s WALL (      96 calls)
     g_psi        :      0.03s CPU      0.03s WALL (      71 calls)
     cdiaghg      :      0.02s CPU      0.02s WALL (      95 calls)

     Called by h_psi:
     h_psi:pot    :     15.35s CPU     15.47s WALL (      96 calls)
     h_psi:calbec :      0.14s CPU      0.14s WALL (      96 calls)
     vloc_psi     :     15.11s CPU     15.23s WALL (      96 calls)
     add_vuspsi   :      0.09s CPU      0.09s WALL (      96 calls)

     General routines
     calbec       :      0.18s CPU      0.18s WALL (     120 calls)
     fft          :      7.64s CPU      8.09s WALL (     324 calls)
     fftw         :     15.90s CPU     16.03s WALL (    1118 calls)
     davcio       :      0.43s CPU      3.68s WALL (     387 calls)
 
     Parallel routines
     fft_scatt_xy :      4.07s CPU      4.08s WALL (    1442 calls)
     fft_scatt_yz :      5.28s CPU      5.78s WALL (    1442 calls)
 
     PWSCF        :    45.27s CPU        52.91s WALL

 
   This run was terminated on:  14:41:20  18May2018            

=------------------------------------------------------------------------------=
   JOB DONE.
=------------------------------------------------------------------------------=
