
     Program PWSCF v.6.2 (svn rev. 14038) starts on 18May2018 at 14:46:44 

     This program is part of the open-source Quantum ESPRESSO suite
     for quantum simulation of materials; please cite
         "P. Giannozzi et al., J. Phys.:Condens. Matter 21 395502 (2009);
         "P. Giannozzi et al., J. Phys.:Condens. Matter 29 465901 (2017);
          URL http://www.quantum-espresso.org", 
     in publications or presentations arising from this work. More details at
     http://www.quantum-espresso.org/quote

     Parallel version (MPI), running on    28 processors

     MPI processes distributed on     1 nodes
     R & G space division:  proc/nbgrp/npool/nimage =      28
     Reading input from ../ecut2-200/16000.in
Warning: card &IONS ignored
Warning: card     POT_EXTRAPOLATION='SECOND-ORDER' ignored
Warning: card     WFC_EXTRAPOLATION='SECOND-ORDER' ignored
Warning: card     ION_TEMPERATURE = 'ANDERSEN' ignored
Warning: card / ignored

     Current dimensions of program PWSCF are:
     Max number of different atomic species (ntypx) = 10
     Max number of k-points (npk) =  40000
     Max angular momentum in pseudopotentials (lmaxx) =  3
               file H.pbe-kjpaw_psl.1.0.0.UPF: wavefunction(s)  1S renormalized
               file O.pbe-n-kjpaw_psl.1.0.0.UPF: wavefunction(s)  2S 2P renormalized

     Subspace diagonalization in iterative solution of the eigenvalue problem:
     a serial algorithm will be used

 
     Parallelization info
     --------------------
     sticks:   dense  smooth     PW     G-vecs:    dense   smooth      PW
     Min         909     909    227               109161   109161   13653
     Max         911     911    228               109164   109164   13656
     Sum       25477   25477   6369              3056521  3056521  382323
 


     bravais-lattice index     =            1
     lattice parameter (alat)  =      20.0000  a.u.
     unit-cell volume          =    8000.0000 (a.u.)^3
     number of atoms/cell      =            3
     number of atomic types    =            2
     number of electrons       =         8.00
     number of Kohn-Sham states=            8
     kinetic-energy cutoff     =     200.0000  Ry
     charge density cutoff     =     800.0000  Ry
     convergence threshold     =      1.0E-08
     mixing beta               =       0.7000
     number of iterations used =            8  plain     mixing
     Exchange-correlation      = SLA PW PBX PBC ( 1  4  3  4 0 0)

     celldm(1)=  20.000000  celldm(2)=   0.000000  celldm(3)=   0.000000
     celldm(4)=   0.000000  celldm(5)=   0.000000  celldm(6)=   0.000000

     crystal axes: (cart. coord. in units of alat)
               a(1) = (   1.000000   0.000000   0.000000 )  
               a(2) = (   0.000000   1.000000   0.000000 )  
               a(3) = (   0.000000   0.000000   1.000000 )  

     reciprocal axes: (cart. coord. in units 2 pi/alat)
               b(1) = (  1.000000  0.000000  0.000000 )  
               b(2) = (  0.000000  1.000000  0.000000 )  
               b(3) = (  0.000000  0.000000  1.000000 )  


     PseudoPot. # 1 for H  read from file:
     ../pslibrary/pbe/PSEUDOPOTENTIALS/H.pbe-kjpaw_psl.1.0.0.UPF
     MD5 check sum: e77ef4e89cfa2d6a63e4c80bb1a147aa
     Pseudo is Projector augmented-wave, Zval =  1.0
     Generated using "atomic" code by A. Dal Corso v.6.2 svn rev. 14038
     Shape of augmentation charge: PSQ
     Using radial grid of  929 points,  2 beta functions with: 
                l(1) =   0
                l(2) =   0
     Q(r) pseudized with 0 coefficients 


     PseudoPot. # 2 for O  read from file:
     ../pslibrary/pbe/PSEUDOPOTENTIALS/O.pbe-n-kjpaw_psl.1.0.0.UPF
     MD5 check sum: bb09017f9a02654af35f7312a94eda3e
     Pseudo is Projector augmented-wave + core cor, Zval =  6.0
     Generated using "atomic" code by A. Dal Corso v.6.2 svn rev. 14038
     Shape of augmentation charge: PSQ
     Using radial grid of 1095 points,  4 beta functions with: 
                l(1) =   0
                l(2) =   0
                l(3) =   1
                l(4) =   1
     Q(r) pseudized with 0 coefficients 


     atomic species   valence    mass     pseudopotential
        H              1.00     1.01000     H ( 1.00)
        O              6.00    16.00000     O ( 1.00)

     No symmetry found



   Cartesian axes

     site n.     atom                  positions (alat units)
         1           O   tau(   1) = (  -0.0040208  -0.0097288   0.0055931  )
         2           H   tau(   2) = (  -0.0252565   0.1165225   0.0567062  )
         3           H   tau(   3) = (   0.0889514   0.0375970  -0.0569466  )

     number of k points=     1  Marzari-Vanderbilt smearing, width (Ry)=  0.0250
                       cart. coord. in units 2pi/alat
        k(    1) = (   0.0000000   0.0000000   0.0000000), wk =   2.0000000

     Dense  grid:  3056521 G-vectors     FFT dimensions: ( 192, 192, 192)

     Estimated max dynamical RAM per process >     123.03 MB

     Estimated total dynamical RAM >       3.36 GB

     Initial potential from superposition of free atoms
     Check: negative starting charge=   -0.000117

     starting charge    7.99998, renormalised to    8.00000

     negative rho (up, down):  1.165E-04 0.000E+00
     Starting wfc are    6 randomized atomic wfcs +    2 random wfc
     Checking if some PAW data can be deallocated... 

     total cpu time spent up to now is        5.2 secs

     Self-consistent Calculation

     iteration #  1     ecut=   200.00 Ry     beta= 0.70
     Davidson diagonalization with overlap
     ethr =  1.00E-02,  avg # of iterations =  7.0

     negative rho (up, down):  1.443E-04 0.000E+00

     total cpu time spent up to now is        7.5 secs

     total energy              =     -43.55142301 Ry
     Harris-Foulkes estimate   =     -43.88341333 Ry
     estimated scf accuracy    <       0.44332309 Ry

     iteration #  2     ecut=   200.00 Ry     beta= 0.70
     Davidson diagonalization with overlap
     ethr =  5.54E-03,  avg # of iterations =  3.0

     negative rho (up, down):  6.209E-05 0.000E+00

     total cpu time spent up to now is        9.3 secs

     total energy              =     -43.45824081 Ry
     Harris-Foulkes estimate   =     -44.16134656 Ry
     estimated scf accuracy    <       2.13486720 Ry

     iteration #  3     ecut=   200.00 Ry     beta= 0.70
     Davidson diagonalization with overlap
     ethr =  5.54E-03,  avg # of iterations =  3.0

     negative rho (up, down):  1.621E-05 0.000E+00

     total cpu time spent up to now is       11.1 secs

     total energy              =     -43.70453122 Ry
     Harris-Foulkes estimate   =     -43.71591576 Ry
     estimated scf accuracy    <       0.04432145 Ry

     iteration #  4     ecut=   200.00 Ry     beta= 0.70
     Davidson diagonalization with overlap
     ethr =  5.54E-04,  avg # of iterations =  4.0

     negative rho (up, down):  2.525E-05 0.000E+00

     total cpu time spent up to now is       13.6 secs

     total energy              =     -43.78476561 Ry
     Harris-Foulkes estimate   =     -43.79297283 Ry
     estimated scf accuracy    <       0.04238860 Ry

     iteration #  5     ecut=   200.00 Ry     beta= 0.70
     Davidson diagonalization with overlap
     ethr =  5.30E-04,  avg # of iterations =  1.0

     negative rho (up, down):  3.348E-05 0.000E+00

     total cpu time spent up to now is       15.3 secs

     total energy              =     -43.78377729 Ry
     Harris-Foulkes estimate   =     -43.78592473 Ry
     estimated scf accuracy    <       0.01540214 Ry

     iteration #  6     ecut=   200.00 Ry     beta= 0.70
     Davidson diagonalization with overlap
     ethr =  1.93E-04,  avg # of iterations =  1.0

     negative rho (up, down):  3.859E-05 0.000E+00

     total cpu time spent up to now is       17.1 secs

     total energy              =     -43.78359221 Ry
     Harris-Foulkes estimate   =     -43.78420896 Ry
     estimated scf accuracy    <       0.00772639 Ry

     iteration #  7     ecut=   200.00 Ry     beta= 0.70
     Davidson diagonalization with overlap
     ethr =  9.66E-05,  avg # of iterations =  8.0

     negative rho (up, down):  5.619E-05 0.000E+00

     total cpu time spent up to now is       19.2 secs

     total energy              =     -43.78720442 Ry
     Harris-Foulkes estimate   =     -43.78803948 Ry
     estimated scf accuracy    <       0.00419301 Ry

     iteration #  8     ecut=   200.00 Ry     beta= 0.70
     Davidson diagonalization with overlap
     ethr =  5.24E-05,  avg # of iterations =  2.0

     negative rho (up, down):  7.857E-05 0.000E+00

     total cpu time spent up to now is       21.0 secs

     total energy              =     -43.78777093 Ry
     Harris-Foulkes estimate   =     -43.78784103 Ry
     estimated scf accuracy    <       0.00050347 Ry

     iteration #  9     ecut=   200.00 Ry     beta= 0.70
     Davidson diagonalization with overlap
     ethr =  6.29E-06,  avg # of iterations =  6.0

     negative rho (up, down):  1.124E-04 0.000E+00

     total cpu time spent up to now is       23.3 secs

     total energy              =     -43.78783093 Ry
     Harris-Foulkes estimate   =     -43.78785705 Ry
     estimated scf accuracy    <       0.00010860 Ry

     iteration # 10     ecut=   200.00 Ry     beta= 0.70
     Davidson diagonalization with overlap
     ethr =  1.36E-06,  avg # of iterations =  6.0

     negative rho (up, down):  1.226E-04 0.000E+00

     total cpu time spent up to now is       25.5 secs

     total energy              =     -43.78785904 Ry
     Harris-Foulkes estimate   =     -43.78785825 Ry
     estimated scf accuracy    <       0.00000474 Ry

     iteration # 11     ecut=   200.00 Ry     beta= 0.70
     Davidson diagonalization with overlap
     ethr =  5.92E-08,  avg # of iterations =  4.0

     negative rho (up, down):  1.422E-04 0.000E+00

     total cpu time spent up to now is       27.4 secs

     total energy              =     -43.78786025 Ry
     Harris-Foulkes estimate   =     -43.78786117 Ry
     estimated scf accuracy    <       0.00000627 Ry

     iteration # 12     ecut=   200.00 Ry     beta= 0.70
     Davidson diagonalization with overlap
     ethr =  5.92E-08,  avg # of iterations =  1.0

     negative rho (up, down):  1.460E-04 0.000E+00

     total cpu time spent up to now is       29.4 secs

     total energy              =     -43.78785966 Ry
     Harris-Foulkes estimate   =     -43.78786043 Ry
     estimated scf accuracy    <       0.00000232 Ry

     iteration # 13     ecut=   200.00 Ry     beta= 0.70
     Davidson diagonalization with overlap
     ethr =  2.90E-08,  avg # of iterations =  2.0

     negative rho (up, down):  1.442E-04 0.000E+00

     total cpu time spent up to now is       31.3 secs

     total energy              =     -43.78785998 Ry
     Harris-Foulkes estimate   =     -43.78785997 Ry
     estimated scf accuracy    <       0.00000013 Ry

     iteration # 14     ecut=   200.00 Ry     beta= 0.70
     Davidson diagonalization with overlap
     ethr =  1.61E-09,  avg # of iterations =  3.0

     negative rho (up, down):  1.451E-04 0.000E+00

     total cpu time spent up to now is       33.4 secs

     total energy              =     -43.78785999 Ry
     Harris-Foulkes estimate   =     -43.78786009 Ry
     estimated scf accuracy    <       0.00000031 Ry

     iteration # 15     ecut=   200.00 Ry     beta= 0.70
     Davidson diagonalization with overlap
     ethr =  1.61E-09,  avg # of iterations =  1.0

     negative rho (up, down):  1.440E-04 0.000E+00

     total cpu time spent up to now is       35.2 secs

     total energy              =     -43.78786001 Ry
     Harris-Foulkes estimate   =     -43.78786001 Ry
     estimated scf accuracy    <       0.00000005 Ry

     iteration # 16     ecut=   200.00 Ry     beta= 0.70
     Davidson diagonalization with overlap
     ethr =  6.01E-10,  avg # of iterations =  3.0

     negative rho (up, down):  1.441E-04 0.000E+00

     total cpu time spent up to now is       36.9 secs

     End of self-consistent calculation

          k = 0.0000 0.0000 0.0000 (382323 PWs)   bands (ev):

   -22.6667  -9.8389  -9.3744  -6.6840  -3.1880  -1.5218  -0.0071   0.8952

     the Fermi energy is    -4.6551 ev

!    total energy              =     -43.78786002 Ry
     Harris-Foulkes estimate   =     -43.78786002 Ry
     estimated scf accuracy    <          2.7E-09 Ry

     total all-electron energy =      -152.634741 Ry

     The total energy is the sum of the following terms:

     one-electron contribution =     -56.90210297 Ry
     hartree contribution      =      30.23284641 Ry
     xc contribution           =      -8.33415094 Ry
     ewald contribution        =       0.81244550 Ry
     one-center paw contrib.   =      -9.59689802 Ry
     smearing contrib. (-TS)   =      -0.00000000 Ry

     convergence has been achieved in  16 iterations

     Writing output data file pwscf.save
 
     init_run     :      2.87s CPU      3.04s WALL (       1 calls)
     electrons    :     27.95s CPU     31.94s WALL (       1 calls)

     Called by init_run:
     wfcinit      :      0.34s CPU      0.37s WALL (       1 calls)
     potinit      :      0.47s CPU      0.50s WALL (       1 calls)

     Called by electrons:
     c_bands      :     11.44s CPU     12.15s WALL (      16 calls)
     sum_band     :      6.80s CPU      7.52s WALL (      16 calls)
     v_of_rho     :      4.93s CPU      5.14s WALL (      17 calls)
     newd         :      2.38s CPU      2.91s WALL (      17 calls)
     PAW_pot      :      0.15s CPU      0.16s WALL (      17 calls)
     mix_rho      :      2.37s CPU      3.98s WALL (      16 calls)

     Called by c_bands:
     init_us_2    :      0.16s CPU      0.17s WALL (      33 calls)
     cegterg      :     11.28s CPU     11.53s WALL (      16 calls)

     Called by sum_band:
     sum_band:bec :      0.00s CPU      0.00s WALL (      16 calls)
     addusdens    :      3.45s CPU      4.01s WALL (      16 calls)

     Called by *egterg:
     h_psi        :     10.93s CPU     11.16s WALL (      72 calls)
     s_psi        :      0.07s CPU      0.08s WALL (      72 calls)
     g_psi        :      0.02s CPU      0.02s WALL (      55 calls)
     cdiaghg      :      0.02s CPU      0.02s WALL (      71 calls)

     Called by h_psi:
     h_psi:pot    :     10.87s CPU     11.10s WALL (      72 calls)
     h_psi:calbec :      0.11s CPU      0.15s WALL (      72 calls)
     vloc_psi     :     10.69s CPU     10.88s WALL (      72 calls)
     add_vuspsi   :      0.07s CPU      0.07s WALL (      72 calls)

     General routines
     calbec       :      0.14s CPU      0.18s WALL (      88 calls)
     fft          :      5.10s CPU      5.43s WALL (     220 calls)
     fftw         :     11.04s CPU     11.28s WALL (     784 calls)
     davcio       :      0.23s CPU      1.71s WALL (     227 calls)
 
     Parallel routines
     fft_scatt_xy :      2.83s CPU      2.84s WALL (    1004 calls)
     fft_scatt_yz :      3.54s CPU      4.04s WALL (    1004 calls)
 
     PWSCF        :    32.51s CPU        37.65s WALL

 
   This run was terminated on:  14:47:22  18May2018            

=------------------------------------------------------------------------------=
   JOB DONE.
=------------------------------------------------------------------------------=
