
     Program PWSCF v.6.2 (svn rev. 14038) starts on 18May2018 at 14:18:22 

     This program is part of the open-source Quantum ESPRESSO suite
     for quantum simulation of materials; please cite
         "P. Giannozzi et al., J. Phys.:Condens. Matter 21 395502 (2009);
         "P. Giannozzi et al., J. Phys.:Condens. Matter 29 465901 (2017);
          URL http://www.quantum-espresso.org", 
     in publications or presentations arising from this work. More details at
     http://www.quantum-espresso.org/quote

     Parallel version (MPI), running on    28 processors

     MPI processes distributed on     1 nodes
     R & G space division:  proc/nbgrp/npool/nimage =      28
     Reading input from ../ecut2-200/500.in
Warning: card &IONS ignored
Warning: card     POT_EXTRAPOLATION='SECOND-ORDER' ignored
Warning: card     WFC_EXTRAPOLATION='SECOND-ORDER' ignored
Warning: card     ION_TEMPERATURE = 'ANDERSEN' ignored
Warning: card / ignored

     Current dimensions of program PWSCF are:
     Max number of different atomic species (ntypx) = 10
     Max number of k-points (npk) =  40000
     Max angular momentum in pseudopotentials (lmaxx) =  3
               file H.pbe-kjpaw_psl.1.0.0.UPF: wavefunction(s)  1S renormalized
               file O.pbe-n-kjpaw_psl.1.0.0.UPF: wavefunction(s)  2S 2P renormalized

     Subspace diagonalization in iterative solution of the eigenvalue problem:
     a serial algorithm will be used

 
     Parallelization info
     --------------------
     sticks:   dense  smooth     PW     G-vecs:    dense   smooth      PW
     Min         909     909    227               109161   109161   13653
     Max         911     911    228               109164   109164   13656
     Sum       25477   25477   6369              3056521  3056521  382323
 


     bravais-lattice index     =            1
     lattice parameter (alat)  =      20.0000  a.u.
     unit-cell volume          =    8000.0000 (a.u.)^3
     number of atoms/cell      =            3
     number of atomic types    =            2
     number of electrons       =         8.00
     number of Kohn-Sham states=            8
     kinetic-energy cutoff     =     200.0000  Ry
     charge density cutoff     =     800.0000  Ry
     convergence threshold     =      1.0E-08
     mixing beta               =       0.7000
     number of iterations used =            8  plain     mixing
     Exchange-correlation      = SLA PW PBX PBC ( 1  4  3  4 0 0)

     celldm(1)=  20.000000  celldm(2)=   0.000000  celldm(3)=   0.000000
     celldm(4)=   0.000000  celldm(5)=   0.000000  celldm(6)=   0.000000

     crystal axes: (cart. coord. in units of alat)
               a(1) = (   1.000000   0.000000   0.000000 )  
               a(2) = (   0.000000   1.000000   0.000000 )  
               a(3) = (   0.000000   0.000000   1.000000 )  

     reciprocal axes: (cart. coord. in units 2 pi/alat)
               b(1) = (  1.000000  0.000000  0.000000 )  
               b(2) = (  0.000000  1.000000  0.000000 )  
               b(3) = (  0.000000  0.000000  1.000000 )  


     PseudoPot. # 1 for H  read from file:
     ../pslibrary/pbe/PSEUDOPOTENTIALS/H.pbe-kjpaw_psl.1.0.0.UPF
     MD5 check sum: e77ef4e89cfa2d6a63e4c80bb1a147aa
     Pseudo is Projector augmented-wave, Zval =  1.0
     Generated using "atomic" code by A. Dal Corso v.6.2 svn rev. 14038
     Shape of augmentation charge: PSQ
     Using radial grid of  929 points,  2 beta functions with: 
                l(1) =   0
                l(2) =   0
     Q(r) pseudized with 0 coefficients 


     PseudoPot. # 2 for O  read from file:
     ../pslibrary/pbe/PSEUDOPOTENTIALS/O.pbe-n-kjpaw_psl.1.0.0.UPF
     MD5 check sum: bb09017f9a02654af35f7312a94eda3e
     Pseudo is Projector augmented-wave + core cor, Zval =  6.0
     Generated using "atomic" code by A. Dal Corso v.6.2 svn rev. 14038
     Shape of augmentation charge: PSQ
     Using radial grid of 1095 points,  4 beta functions with: 
                l(1) =   0
                l(2) =   0
                l(3) =   1
                l(4) =   1
     Q(r) pseudized with 0 coefficients 


     atomic species   valence    mass     pseudopotential
        H              1.00     1.01000     H ( 1.00)
        O              6.00    16.00000     O ( 1.00)

     No symmetry found



   Cartesian axes

     site n.     atom                  positions (alat units)
         1           O   tau(   1) = (   0.0000003  -0.0056091  -0.0005185  )
         2           H   tau(   2) = (  -0.0736509   0.0684522   0.0117589  )
         3           H   tau(   3) = (   0.0736459   0.0204041   0.0848195  )

     number of k points=     1  Marzari-Vanderbilt smearing, width (Ry)=  0.0250
                       cart. coord. in units 2pi/alat
        k(    1) = (   0.0000000   0.0000000   0.0000000), wk =   2.0000000

     Dense  grid:  3056521 G-vectors     FFT dimensions: ( 192, 192, 192)

     Estimated max dynamical RAM per process >     123.03 MB

     Estimated total dynamical RAM >       3.36 GB

     Initial potential from superposition of free atoms
     Check: negative starting charge=   -0.000119

     starting charge    7.99998, renormalised to    8.00000

     negative rho (up, down):  1.194E-04 0.000E+00
     Starting wfc are    6 randomized atomic wfcs +    2 random wfc
     Checking if some PAW data can be deallocated... 

     total cpu time spent up to now is        3.9 secs

     Self-consistent Calculation

     iteration #  1     ecut=   200.00 Ry     beta= 0.70
     Davidson diagonalization with overlap
     ethr =  1.00E-02,  avg # of iterations =  7.0

     negative rho (up, down):  1.493E-04 0.000E+00

     total cpu time spent up to now is        6.3 secs

     total energy              =     -43.75460702 Ry
     Harris-Foulkes estimate   =     -44.05891792 Ry
     estimated scf accuracy    <       0.41073946 Ry

     iteration #  2     ecut=   200.00 Ry     beta= 0.70
     Davidson diagonalization with overlap
     ethr =  5.13E-03,  avg # of iterations =  3.0

     negative rho (up, down):  7.239E-05 0.000E+00

     total cpu time spent up to now is        8.2 secs

     total energy              =     -43.76215021 Ry
     Harris-Foulkes estimate   =     -44.13387862 Ry
     estimated scf accuracy    <       0.90329223 Ry

     iteration #  3     ecut=   200.00 Ry     beta= 0.70
     Davidson diagonalization with overlap
     ethr =  5.13E-03,  avg # of iterations =  1.0

     negative rho (up, down):  1.896E-06 0.000E+00

     total cpu time spent up to now is        9.8 secs

     total energy              =     -43.86358218 Ry
     Harris-Foulkes estimate   =     -43.88282671 Ry
     estimated scf accuracy    <       0.05418373 Ry

     iteration #  4     ecut=   200.00 Ry     beta= 0.70
     Davidson diagonalization with overlap
     ethr =  6.77E-04,  avg # of iterations =  3.0

     negative rho (up, down):  4.329E-06 0.000E+00

     total cpu time spent up to now is       11.8 secs

     total energy              =     -43.94893356 Ry
     Harris-Foulkes estimate   =     -43.96578065 Ry
     estimated scf accuracy    <       0.07159445 Ry

     iteration #  5     ecut=   200.00 Ry     beta= 0.70
     Davidson diagonalization with overlap
     ethr =  6.77E-04,  avg # of iterations =  1.0

     negative rho (up, down):  9.246E-06 0.000E+00

     total cpu time spent up to now is       13.6 secs

     total energy              =     -43.94440936 Ry
     Harris-Foulkes estimate   =     -43.95085466 Ry
     estimated scf accuracy    <       0.02873012 Ry

     iteration #  6     ecut=   200.00 Ry     beta= 0.70
     Davidson diagonalization with overlap
     ethr =  3.59E-04,  avg # of iterations =  2.0

     negative rho (up, down):  1.052E-05 0.000E+00

     total cpu time spent up to now is       15.4 secs

     total energy              =     -43.94830237 Ry
     Harris-Foulkes estimate   =     -43.94834736 Ry
     estimated scf accuracy    <       0.00243385 Ry

     iteration #  7     ecut=   200.00 Ry     beta= 0.70
     Davidson diagonalization with overlap
     ethr =  3.04E-05,  avg # of iterations =  8.0

     negative rho (up, down):  1.014E-05 0.000E+00

     total cpu time spent up to now is       17.7 secs

     total energy              =     -43.94847811 Ry
     Harris-Foulkes estimate   =     -43.94846127 Ry
     estimated scf accuracy    <       0.00215974 Ry

     iteration #  8     ecut=   200.00 Ry     beta= 0.70
     Davidson diagonalization with overlap
     ethr =  2.70E-05,  avg # of iterations =  1.0

     negative rho (up, down):  1.976E-05 0.000E+00

     total cpu time spent up to now is       19.5 secs

     total energy              =     -43.94820867 Ry
     Harris-Foulkes estimate   =     -43.94849837 Ry
     estimated scf accuracy    <       0.00208470 Ry

     iteration #  9     ecut=   200.00 Ry     beta= 0.70
     Davidson diagonalization with overlap
     ethr =  2.61E-05,  avg # of iterations =  1.0

     negative rho (up, down):  1.361E-04 0.000E+00

     total cpu time spent up to now is       21.4 secs

     total energy              =     -43.94764708 Ry
     Harris-Foulkes estimate   =     -43.94824012 Ry
     estimated scf accuracy    <       0.00123747 Ry

     iteration # 10     ecut=   200.00 Ry     beta= 0.70
     Davidson diagonalization with overlap
     ethr =  1.55E-05,  avg # of iterations =  3.0

     negative rho (up, down):  1.515E-04 0.000E+00

     total cpu time spent up to now is       23.4 secs

     total energy              =     -43.94794013 Ry
     Harris-Foulkes estimate   =     -43.94793698 Ry
     estimated scf accuracy    <       0.00008752 Ry

     iteration # 11     ecut=   200.00 Ry     beta= 0.70
     Davidson diagonalization with overlap
     ethr =  1.09E-06,  avg # of iterations = 10.0

     negative rho (up, down):  1.461E-04 0.000E+00

     total cpu time spent up to now is       25.9 secs

     total energy              =     -43.94808015 Ry
     Harris-Foulkes estimate   =     -43.94812514 Ry
     estimated scf accuracy    <       0.00042290 Ry

     iteration # 12     ecut=   200.00 Ry     beta= 0.70
     Davidson diagonalization with overlap
     ethr =  1.09E-06,  avg # of iterations =  1.0

     negative rho (up, down):  1.538E-04 0.000E+00

     total cpu time spent up to now is       27.8 secs

     total energy              =     -43.94802805 Ry
     Harris-Foulkes estimate   =     -43.94808285 Ry
     estimated scf accuracy    <       0.00028159 Ry

     iteration # 13     ecut=   200.00 Ry     beta= 0.70
     Davidson diagonalization with overlap
     ethr =  1.09E-06,  avg # of iterations =  1.0

     negative rho (up, down):  1.543E-04 0.000E+00

     total cpu time spent up to now is       29.6 secs

     total energy              =     -43.94803586 Ry
     Harris-Foulkes estimate   =     -43.94803656 Ry
     estimated scf accuracy    <       0.00010089 Ry

     iteration # 14     ecut=   200.00 Ry     beta= 0.70
     Davidson diagonalization with overlap
     ethr =  1.09E-06,  avg # of iterations =  1.0

     negative rho (up, down):  1.544E-04 0.000E+00

     total cpu time spent up to now is       31.4 secs

     total energy              =     -43.94803940 Ry
     Harris-Foulkes estimate   =     -43.94803976 Ry
     estimated scf accuracy    <       0.00009342 Ry

     iteration # 15     ecut=   200.00 Ry     beta= 0.70
     Davidson diagonalization with overlap
     ethr =  1.09E-06,  avg # of iterations =  1.0

     negative rho (up, down):  1.723E-04 0.000E+00

     total cpu time spent up to now is       33.3 secs

     total energy              =     -43.94801234 Ry
     Harris-Foulkes estimate   =     -43.94804260 Ry
     estimated scf accuracy    <       0.00007002 Ry

     iteration # 16     ecut=   200.00 Ry     beta= 0.70
     Davidson diagonalization with overlap
     ethr =  8.75E-07,  avg # of iterations =  3.0

     negative rho (up, down):  1.508E-04 0.000E+00

     total cpu time spent up to now is       35.5 secs

     total energy              =     -43.94803345 Ry
     Harris-Foulkes estimate   =     -43.94815784 Ry
     estimated scf accuracy    <       0.00043849 Ry

     iteration # 17     ecut=   200.00 Ry     beta= 0.70
     Davidson diagonalization with overlap
     ethr =  8.75E-07,  avg # of iterations =  3.0

     negative rho (up, down):  1.583E-04 0.000E+00

     total cpu time spent up to now is       37.4 secs

     total energy              =     -43.94804605 Ry
     Harris-Foulkes estimate   =     -43.94805502 Ry
     estimated scf accuracy    <       0.00009735 Ry

     iteration # 18     ecut=   200.00 Ry     beta= 0.70
     Davidson diagonalization with overlap
     ethr =  8.75E-07,  avg # of iterations =  3.0

     negative rho (up, down):  1.587E-04 0.000E+00

     total cpu time spent up to now is       39.4 secs

     total energy              =     -43.94806032 Ry
     Harris-Foulkes estimate   =     -43.94805924 Ry
     estimated scf accuracy    <       0.00002950 Ry

     iteration # 19     ecut=   200.00 Ry     beta= 0.70
     Davidson diagonalization with overlap
     ethr =  3.69E-07,  avg # of iterations =  1.0

     negative rho (up, down):  1.583E-04 0.000E+00

     total cpu time spent up to now is       41.2 secs

     total energy              =     -43.94806519 Ry
     Harris-Foulkes estimate   =     -43.94806036 Ry
     estimated scf accuracy    <       0.00003209 Ry

     iteration # 20     ecut=   200.00 Ry     beta= 0.70
     Davidson diagonalization with overlap
     ethr =  3.69E-07,  avg # of iterations =  1.0

     negative rho (up, down):  1.583E-04 0.000E+00

     total cpu time spent up to now is       43.3 secs

     total energy              =     -43.94806567 Ry
     Harris-Foulkes estimate   =     -43.94806549 Ry
     estimated scf accuracy    <       0.00004677 Ry

     iteration # 21     ecut=   200.00 Ry     beta= 0.70
     Davidson diagonalization with overlap
     ethr =  3.69E-07,  avg # of iterations =  1.0

     negative rho (up, down):  1.583E-04 0.000E+00

     total cpu time spent up to now is       45.2 secs

     total energy              =     -43.94806595 Ry
     Harris-Foulkes estimate   =     -43.94806573 Ry
     estimated scf accuracy    <       0.00004741 Ry

     iteration # 22     ecut=   200.00 Ry     beta= 0.70
     Davidson diagonalization with overlap
     ethr =  3.69E-07,  avg # of iterations =  1.0

     negative rho (up, down):  1.573E-04 0.000E+00

     total cpu time spent up to now is       47.0 secs

     total energy              =     -43.94805103 Ry
     Harris-Foulkes estimate   =     -43.94806598 Ry
     estimated scf accuracy    <       0.00004949 Ry

     iteration # 23     ecut=   200.00 Ry     beta= 0.70
     Davidson diagonalization with overlap
     ethr =  3.69E-07,  avg # of iterations =  1.0

     negative rho (up, down):  1.550E-04 0.000E+00

     total cpu time spent up to now is       48.8 secs

     total energy              =     -43.94804697 Ry
     Harris-Foulkes estimate   =     -43.94805330 Ry
     estimated scf accuracy    <       0.00001314 Ry

     iteration # 24     ecut=   200.00 Ry     beta= 0.70
     Davidson diagonalization with overlap
     ethr =  1.64E-07,  avg # of iterations =  3.0

     negative rho (up, down):  1.547E-04 0.000E+00

     total cpu time spent up to now is       50.9 secs

     total energy              =     -43.94805299 Ry
     Harris-Foulkes estimate   =     -43.94805436 Ry
     estimated scf accuracy    <       0.00000624 Ry

     iteration # 25     ecut=   200.00 Ry     beta= 0.70
     Davidson diagonalization with overlap
     ethr =  7.80E-08,  avg # of iterations =  1.0

     negative rho (up, down):  1.548E-04 0.000E+00

     total cpu time spent up to now is       52.7 secs

     total energy              =     -43.94805254 Ry
     Harris-Foulkes estimate   =     -43.94805315 Ry
     estimated scf accuracy    <       0.00000269 Ry

     iteration # 26     ecut=   200.00 Ry     beta= 0.70
     Davidson diagonalization with overlap
     ethr =  3.37E-08,  avg # of iterations =  2.0

     negative rho (up, down):  1.554E-04 0.000E+00

     total cpu time spent up to now is       54.7 secs

     total energy              =     -43.94805302 Ry
     Harris-Foulkes estimate   =     -43.94805299 Ry
     estimated scf accuracy    <       0.00000028 Ry

     iteration # 27     ecut=   200.00 Ry     beta= 0.70
     Davidson diagonalization with overlap
     ethr =  3.50E-09,  avg # of iterations =  1.0

     negative rho (up, down):  1.558E-04 0.000E+00

     total cpu time spent up to now is       56.6 secs

     total energy              =     -43.94805304 Ry
     Harris-Foulkes estimate   =     -43.94805303 Ry
     estimated scf accuracy    <       0.00000031 Ry

     iteration # 28     ecut=   200.00 Ry     beta= 0.70
     Davidson diagonalization with overlap
     ethr =  3.50E-09,  avg # of iterations =  1.0

     negative rho (up, down):  1.559E-04 0.000E+00

     total cpu time spent up to now is       58.4 secs

     total energy              =     -43.94805299 Ry
     Harris-Foulkes estimate   =     -43.94805304 Ry
     estimated scf accuracy    <       0.00000033 Ry

     iteration # 29     ecut=   200.00 Ry     beta= 0.70
     Davidson diagonalization with overlap
     ethr =  3.50E-09,  avg # of iterations =  1.0

     negative rho (up, down):  1.560E-04 0.000E+00

     total cpu time spent up to now is       60.2 secs

     total energy              =     -43.94805296 Ry
     Harris-Foulkes estimate   =     -43.94805300 Ry
     estimated scf accuracy    <       0.00000024 Ry

     iteration # 30     ecut=   200.00 Ry     beta= 0.70
     Davidson diagonalization with overlap
     ethr =  2.97E-09,  avg # of iterations =  1.0

     negative rho (up, down):  1.559E-04 0.000E+00

     total cpu time spent up to now is       62.1 secs

     total energy              =     -43.94805292 Ry
     Harris-Foulkes estimate   =     -43.94805298 Ry
     estimated scf accuracy    <       0.00000013 Ry

     iteration # 31     ecut=   200.00 Ry     beta= 0.70
     Davidson diagonalization with overlap
     ethr =  1.57E-09,  avg # of iterations =  3.0

     negative rho (up, down):  1.557E-04 0.000E+00

     total cpu time spent up to now is       64.0 secs

     total energy              =     -43.94805294 Ry
     Harris-Foulkes estimate   =     -43.94805296 Ry
     estimated scf accuracy    <       0.00000006 Ry

     iteration # 32     ecut=   200.00 Ry     beta= 0.70
     Davidson diagonalization with overlap
     ethr =  7.30E-10,  avg # of iterations =  1.0

     negative rho (up, down):  1.555E-04 0.000E+00

     total cpu time spent up to now is       66.0 secs

     total energy              =     -43.94805296 Ry
     Harris-Foulkes estimate   =     -43.94805295 Ry
     estimated scf accuracy    <       0.00000002 Ry

     iteration # 33     ecut=   200.00 Ry     beta= 0.70
     Davidson diagonalization with overlap
     ethr =  2.07E-10,  avg # of iterations =  3.0

     negative rho (up, down):  1.556E-04 0.000E+00

     total cpu time spent up to now is       68.0 secs

     total energy              =     -43.94805296 Ry
     Harris-Foulkes estimate   =     -43.94805298 Ry
     estimated scf accuracy    <       0.00000012 Ry

     iteration # 34     ecut=   200.00 Ry     beta= 0.70
     Davidson diagonalization with overlap
     ethr =  2.07E-10,  avg # of iterations =  1.0

     negative rho (up, down):  1.558E-04 0.000E+00

     total cpu time spent up to now is       69.9 secs

     total energy              =     -43.94805292 Ry
     Harris-Foulkes estimate   =     -43.94805296 Ry
     estimated scf accuracy    <       0.00000006 Ry

     iteration # 35     ecut=   200.00 Ry     beta= 0.70
     Davidson diagonalization with overlap
     ethr =  2.07E-10,  avg # of iterations =  3.0

     negative rho (up, down):  1.557E-04 0.000E+00

     total cpu time spent up to now is       72.0 secs

     total energy              =     -43.94805294 Ry
     Harris-Foulkes estimate   =     -43.94805296 Ry
     estimated scf accuracy    <       0.00000007 Ry

     iteration # 36     ecut=   200.00 Ry     beta= 0.70
     Davidson diagonalization with overlap
     ethr =  2.07E-10,  avg # of iterations =  3.0

     negative rho (up, down):  1.557E-04 0.000E+00

     total cpu time spent up to now is       73.6 secs

     End of self-consistent calculation

          k = 0.0000 0.0000 0.0000 (382323 PWs)   bands (ev):

   -23.5271 -11.3175  -9.0742  -6.7999  -1.8319  -0.1433   0.1785   0.9488

     the Fermi energy is    -4.8300 ev

!    total energy              =     -43.94805294 Ry
     Harris-Foulkes estimate   =     -43.94805295 Ry
     estimated scf accuracy    <          7.4E-09 Ry

     total all-electron energy =      -152.794934 Ry

     The total energy is the sum of the following terms:

     one-electron contribution =     -60.00390606 Ry
     hartree contribution      =      31.76341172 Ry
     xc contribution           =      -8.54922618 Ry
     ewald contribution        =       2.43276677 Ry
     one-center paw contrib.   =      -9.59109919 Ry
     smearing contrib. (-TS)   =       0.00000000 Ry

     convergence has been achieved in  36 iterations

     Writing output data file pwscf.save
 
     init_run     :      2.80s CPU      3.00s WALL (       1 calls)
     electrons    :     61.86s CPU     69.83s WALL (       1 calls)

     Called by init_run:
     wfcinit      :      0.32s CPU      0.36s WALL (       1 calls)
     potinit      :      0.47s CPU      0.51s WALL (       1 calls)

     Called by electrons:
     c_bands      :     24.08s CPU     24.30s WALL (      36 calls)
     sum_band     :     15.38s CPU     16.81s WALL (      36 calls)
     v_of_rho     :     10.82s CPU     11.24s WALL (      37 calls)
     newd         :      5.09s CPU      6.28s WALL (      37 calls)
     PAW_pot      :      0.33s CPU      0.36s WALL (      37 calls)
     mix_rho      :      6.11s CPU     10.40s WALL (      36 calls)

     Called by c_bands:
     init_us_2    :      0.36s CPU      0.37s WALL (      73 calls)
     cegterg      :     23.73s CPU     23.94s WALL (      36 calls)

     Called by sum_band:
     sum_band:bec :      0.00s CPU      0.00s WALL (      36 calls)
     addusdens    :      7.83s CPU      9.09s WALL (      36 calls)

     Called by *egterg:
     h_psi        :     22.75s CPU     22.94s WALL (     119 calls)
     s_psi        :      0.14s CPU      0.15s WALL (     119 calls)
     g_psi        :      0.05s CPU      0.05s WALL (      82 calls)
     cdiaghg      :      0.03s CPU      0.03s WALL (     118 calls)

     Called by h_psi:
     h_psi:pot    :     22.63s CPU     22.81s WALL (     119 calls)
     h_psi:calbec :      0.18s CPU      0.19s WALL (     119 calls)
     vloc_psi     :     22.32s CPU     22.50s WALL (     119 calls)
     add_vuspsi   :      0.13s CPU      0.13s WALL (     119 calls)

     General routines
     calbec       :      0.27s CPU      0.27s WALL (     155 calls)
     fft          :     11.43s CPU     12.08s WALL (     480 calls)
     fftw         :     23.41s CPU     23.61s WALL (    1668 calls)
     davcio       :      0.65s CPU      4.62s WALL (     627 calls)
 
     Parallel routines
     fft_scatt_xy :      6.04s CPU      6.07s WALL (    2148 calls)
     fft_scatt_yz :      8.09s CPU      8.79s WALL (    2148 calls)
 
     PWSCF        :  1m 5.48s CPU     1m14.21s WALL

 
   This run was terminated on:  14:19:36  18May2018            

=------------------------------------------------------------------------------=
   JOB DONE.
=------------------------------------------------------------------------------=
