
     Program PWSCF v.6.2 (svn rev. 14038) starts on 18May2018 at 14:28: 1 

     This program is part of the open-source Quantum ESPRESSO suite
     for quantum simulation of materials; please cite
         "P. Giannozzi et al., J. Phys.:Condens. Matter 21 395502 (2009);
         "P. Giannozzi et al., J. Phys.:Condens. Matter 29 465901 (2017);
          URL http://www.quantum-espresso.org", 
     in publications or presentations arising from this work. More details at
     http://www.quantum-espresso.org/quote

     Parallel version (MPI), running on    28 processors

     MPI processes distributed on     1 nodes
     R & G space division:  proc/nbgrp/npool/nimage =      28
     Reading input from ../ecut2-200/5500.in
Warning: card &IONS ignored
Warning: card     POT_EXTRAPOLATION='SECOND-ORDER' ignored
Warning: card     WFC_EXTRAPOLATION='SECOND-ORDER' ignored
Warning: card     ION_TEMPERATURE = 'ANDERSEN' ignored
Warning: card / ignored

     Current dimensions of program PWSCF are:
     Max number of different atomic species (ntypx) = 10
     Max number of k-points (npk) =  40000
     Max angular momentum in pseudopotentials (lmaxx) =  3
               file H.pbe-kjpaw_psl.1.0.0.UPF: wavefunction(s)  1S renormalized
               file O.pbe-n-kjpaw_psl.1.0.0.UPF: wavefunction(s)  2S 2P renormalized

     Subspace diagonalization in iterative solution of the eigenvalue problem:
     a serial algorithm will be used

 
     Parallelization info
     --------------------
     sticks:   dense  smooth     PW     G-vecs:    dense   smooth      PW
     Min         909     909    227               109161   109161   13653
     Max         911     911    228               109164   109164   13656
     Sum       25477   25477   6369              3056521  3056521  382323
 


     bravais-lattice index     =            1
     lattice parameter (alat)  =      20.0000  a.u.
     unit-cell volume          =    8000.0000 (a.u.)^3
     number of atoms/cell      =            3
     number of atomic types    =            2
     number of electrons       =         8.00
     number of Kohn-Sham states=            8
     kinetic-energy cutoff     =     200.0000  Ry
     charge density cutoff     =     800.0000  Ry
     convergence threshold     =      1.0E-08
     mixing beta               =       0.7000
     number of iterations used =            8  plain     mixing
     Exchange-correlation      = SLA PW PBX PBC ( 1  4  3  4 0 0)

     celldm(1)=  20.000000  celldm(2)=   0.000000  celldm(3)=   0.000000
     celldm(4)=   0.000000  celldm(5)=   0.000000  celldm(6)=   0.000000

     crystal axes: (cart. coord. in units of alat)
               a(1) = (   1.000000   0.000000   0.000000 )  
               a(2) = (   0.000000   1.000000   0.000000 )  
               a(3) = (   0.000000   0.000000   1.000000 )  

     reciprocal axes: (cart. coord. in units 2 pi/alat)
               b(1) = (  1.000000  0.000000  0.000000 )  
               b(2) = (  0.000000  1.000000  0.000000 )  
               b(3) = (  0.000000  0.000000  1.000000 )  


     PseudoPot. # 1 for H  read from file:
     ../pslibrary/pbe/PSEUDOPOTENTIALS/H.pbe-kjpaw_psl.1.0.0.UPF
     MD5 check sum: e77ef4e89cfa2d6a63e4c80bb1a147aa
     Pseudo is Projector augmented-wave, Zval =  1.0
     Generated using "atomic" code by A. Dal Corso v.6.2 svn rev. 14038
     Shape of augmentation charge: PSQ
     Using radial grid of  929 points,  2 beta functions with: 
                l(1) =   0
                l(2) =   0
     Q(r) pseudized with 0 coefficients 


     PseudoPot. # 2 for O  read from file:
     ../pslibrary/pbe/PSEUDOPOTENTIALS/O.pbe-n-kjpaw_psl.1.0.0.UPF
     MD5 check sum: bb09017f9a02654af35f7312a94eda3e
     Pseudo is Projector augmented-wave + core cor, Zval =  6.0
     Generated using "atomic" code by A. Dal Corso v.6.2 svn rev. 14038
     Shape of augmentation charge: PSQ
     Using radial grid of 1095 points,  4 beta functions with: 
                l(1) =   0
                l(2) =   0
                l(3) =   1
                l(4) =   1
     Q(r) pseudized with 0 coefficients 


     atomic species   valence    mass     pseudopotential
        H              1.00     1.01000     H ( 1.00)
        O              6.00    16.00000     O ( 1.00)

     No symmetry found



   Cartesian axes

     site n.     atom                  positions (alat units)
         1           O   tau(   1) = (   0.0025643   0.0006510   0.0125866  )
         2           H   tau(   2) = (   0.0351142  -0.0521297  -0.1032954  )
         3           H   tau(   3) = (  -0.0757367   0.0418167  -0.0077318  )

     number of k points=     1  Marzari-Vanderbilt smearing, width (Ry)=  0.0250
                       cart. coord. in units 2pi/alat
        k(    1) = (   0.0000000   0.0000000   0.0000000), wk =   2.0000000

     Dense  grid:  3056521 G-vectors     FFT dimensions: ( 192, 192, 192)

     Estimated max dynamical RAM per process >     123.03 MB

     Estimated total dynamical RAM >       3.36 GB

     Initial potential from superposition of free atoms
     Check: negative starting charge=   -0.000119

     starting charge    7.99998, renormalised to    8.00000

     negative rho (up, down):  1.187E-04 0.000E+00
     Starting wfc are    6 randomized atomic wfcs +    2 random wfc
     Checking if some PAW data can be deallocated... 

     total cpu time spent up to now is        3.8 secs

     Self-consistent Calculation

     iteration #  1     ecut=   200.00 Ry     beta= 0.70
     Davidson diagonalization with overlap
     ethr =  1.00E-02,  avg # of iterations =  6.0

     negative rho (up, down):  1.601E-04 0.000E+00

     total cpu time spent up to now is        6.2 secs

     total energy              =     -43.65197670 Ry
     Harris-Foulkes estimate   =     -44.03789348 Ry
     estimated scf accuracy    <       0.51464168 Ry

     iteration #  2     ecut=   200.00 Ry     beta= 0.70
     Davidson diagonalization with overlap
     ethr =  6.43E-03,  avg # of iterations =  3.0

     negative rho (up, down):  9.689E-05 0.000E+00

     total cpu time spent up to now is        8.1 secs

     total energy              =     -43.63706494 Ry
     Harris-Foulkes estimate   =     -44.18120129 Ry
     estimated scf accuracy    <       1.41851712 Ry

     iteration #  3     ecut=   200.00 Ry     beta= 0.70
     Davidson diagonalization with overlap
     ethr =  6.43E-03,  avg # of iterations =  1.0

     negative rho (up, down):  1.747E-05 0.000E+00

     total cpu time spent up to now is        9.8 secs

     total energy              =     -43.79593852 Ry
     Harris-Foulkes estimate   =     -43.81397686 Ry
     estimated scf accuracy    <       0.07972209 Ry

     iteration #  4     ecut=   200.00 Ry     beta= 0.70
     Davidson diagonalization with overlap
     ethr =  9.97E-04,  avg # of iterations =  4.0

     negative rho (up, down):  2.170E-05 0.000E+00

     total cpu time spent up to now is       11.9 secs

     total energy              =     -43.90189188 Ry
     Harris-Foulkes estimate   =     -43.91292912 Ry
     estimated scf accuracy    <       0.04320146 Ry

     iteration #  5     ecut=   200.00 Ry     beta= 0.70
     Davidson diagonalization with overlap
     ethr =  5.40E-04,  avg # of iterations =  1.0

     negative rho (up, down):  2.692E-05 0.000E+00

     total cpu time spent up to now is       13.7 secs

     total energy              =     -43.90141546 Ry
     Harris-Foulkes estimate   =     -43.90332526 Ry
     estimated scf accuracy    <       0.01418766 Ry

     iteration #  6     ecut=   200.00 Ry     beta= 0.70
     Davidson diagonalization with overlap
     ethr =  1.77E-04,  avg # of iterations =  1.0

     negative rho (up, down):  3.033E-05 0.000E+00

     total cpu time spent up to now is       17.8 secs

     total energy              =     -43.90104079 Ry
     Harris-Foulkes estimate   =     -43.90176301 Ry
     estimated scf accuracy    <       0.00945639 Ry

     iteration #  7     ecut=   200.00 Ry     beta= 0.70
     Davidson diagonalization with overlap
     ethr =  1.18E-04,  avg # of iterations =  1.0

     negative rho (up, down):  3.177E-05 0.000E+00

     total cpu time spent up to now is       19.6 secs

     total energy              =     -43.90118298 Ry
     Harris-Foulkes estimate   =     -43.90134307 Ry
     estimated scf accuracy    <       0.00605147 Ry

     iteration #  8     ecut=   200.00 Ry     beta= 0.70
     Davidson diagonalization with overlap
     ethr =  7.56E-05,  avg # of iterations =  6.0

     negative rho (up, down):  3.557E-05 0.000E+00

     total cpu time spent up to now is       21.6 secs

     total energy              =     -43.90224506 Ry
     Harris-Foulkes estimate   =     -43.90224056 Ry
     estimated scf accuracy    <       0.00193178 Ry

     iteration #  9     ecut=   200.00 Ry     beta= 0.70
     Davidson diagonalization with overlap
     ethr =  2.41E-05,  avg # of iterations =  5.0

     negative rho (up, down):  3.819E-05 0.000E+00

     total cpu time spent up to now is       23.6 secs

     total energy              =     -43.90230925 Ry
     Harris-Foulkes estimate   =     -43.90232545 Ry
     estimated scf accuracy    <       0.00177757 Ry

     iteration # 10     ecut=   200.00 Ry     beta= 0.70
     Davidson diagonalization with overlap
     ethr =  2.22E-05,  avg # of iterations =  1.0

     negative rho (up, down):  4.829E-05 0.000E+00

     total cpu time spent up to now is       25.5 secs

     total energy              =     -43.90238257 Ry
     Harris-Foulkes estimate   =     -43.90231874 Ry
     estimated scf accuracy    <       0.00166482 Ry

     iteration # 11     ecut=   200.00 Ry     beta= 0.70
     Davidson diagonalization with overlap
     ethr =  2.08E-05,  avg # of iterations =  1.0

     negative rho (up, down):  2.266E-04 0.000E+00

     total cpu time spent up to now is       27.3 secs

     total energy              =     -43.90233590 Ry
     Harris-Foulkes estimate   =     -43.90238783 Ry
     estimated scf accuracy    <       0.00185018 Ry

     iteration # 12     ecut=   200.00 Ry     beta= 0.70
     Davidson diagonalization with overlap
     ethr =  2.08E-05,  avg # of iterations =  1.0

     negative rho (up, down):  1.931E-04 0.000E+00

     total cpu time spent up to now is       29.2 secs

     total energy              =     -43.90220036 Ry
     Harris-Foulkes estimate   =     -43.90235779 Ry
     estimated scf accuracy    <       0.00157191 Ry

     iteration # 13     ecut=   200.00 Ry     beta= 0.70
     Davidson diagonalization with overlap
     ethr =  1.96E-05,  avg # of iterations =  1.0

     negative rho (up, down):  1.883E-04 0.000E+00

     total cpu time spent up to now is       31.0 secs

     total energy              =     -43.90213278 Ry
     Harris-Foulkes estimate   =     -43.90220671 Ry
     estimated scf accuracy    <       0.00115813 Ry

     iteration # 14     ecut=   200.00 Ry     beta= 0.70
     Davidson diagonalization with overlap
     ethr =  1.45E-05,  avg # of iterations =  1.0

     negative rho (up, down):  1.880E-04 0.000E+00

     total cpu time spent up to now is       32.9 secs

     total energy              =     -43.90213070 Ry
     Harris-Foulkes estimate   =     -43.90213827 Ry
     estimated scf accuracy    <       0.00093419 Ry

     iteration # 15     ecut=   200.00 Ry     beta= 0.70
     Davidson diagonalization with overlap
     ethr =  1.17E-05,  avg # of iterations =  1.0

     negative rho (up, down):  1.872E-04 0.000E+00

     total cpu time spent up to now is       34.8 secs

     total energy              =     -43.90212348 Ry
     Harris-Foulkes estimate   =     -43.90213169 Ry
     estimated scf accuracy    <       0.00091107 Ry

     iteration # 16     ecut=   200.00 Ry     beta= 0.70
     Davidson diagonalization with overlap
     ethr =  1.14E-05,  avg # of iterations =  1.0

     negative rho (up, down):  1.742E-04 0.000E+00

     total cpu time spent up to now is       36.7 secs

     total energy              =     -43.90179410 Ry
     Harris-Foulkes estimate   =     -43.90212452 Ry
     estimated scf accuracy    <       0.00086116 Ry

     iteration # 17     ecut=   200.00 Ry     beta= 0.70
     Davidson diagonalization with overlap
     ethr =  1.08E-05,  avg # of iterations =  8.0

     negative rho (up, down):  1.782E-04 0.000E+00

     total cpu time spent up to now is       40.9 secs

     total energy              =     -43.89747969 Ry
     Harris-Foulkes estimate   =     -43.89844775 Ry
     estimated scf accuracy    <       0.00188309 Ry

     iteration # 18     ecut=   200.00 Ry     beta= 0.70
     Davidson diagonalization with overlap
     ethr =  1.08E-05,  avg # of iterations =  3.0

     negative rho (up, down):  1.617E-04 0.000E+00

     total cpu time spent up to now is       42.9 secs

     total energy              =     -43.90187763 Ry
     Harris-Foulkes estimate   =     -43.90192423 Ry
     estimated scf accuracy    <       0.00009568 Ry

     iteration # 19     ecut=   200.00 Ry     beta= 0.70
     Davidson diagonalization with overlap
     ethr =  1.20E-06,  avg # of iterations = 17.0

     negative rho (up, down):  1.588E-04 0.000E+00

     total cpu time spent up to now is       45.7 secs

     total energy              =     -43.90192903 Ry
     Harris-Foulkes estimate   =     -43.90192923 Ry
     estimated scf accuracy    <       0.00000337 Ry

     iteration # 20     ecut=   200.00 Ry     beta= 0.70
     Davidson diagonalization with overlap
     ethr =  4.21E-08,  avg # of iterations =  5.0

     negative rho (up, down):  1.580E-04 0.000E+00

     total cpu time spent up to now is       47.8 secs

     total energy              =     -43.90193027 Ry
     Harris-Foulkes estimate   =     -43.90193064 Ry
     estimated scf accuracy    <       0.00000235 Ry

     iteration # 21     ecut=   200.00 Ry     beta= 0.70
     Davidson diagonalization with overlap
     ethr =  2.94E-08,  avg # of iterations =  1.0

     negative rho (up, down):  1.578E-04 0.000E+00

     total cpu time spent up to now is       49.6 secs

     total energy              =     -43.90193005 Ry
     Harris-Foulkes estimate   =     -43.90193032 Ry
     estimated scf accuracy    <       0.00000107 Ry

     iteration # 22     ecut=   200.00 Ry     beta= 0.70
     Davidson diagonalization with overlap
     ethr =  1.34E-08,  avg # of iterations =  2.0

     negative rho (up, down):  1.578E-04 0.000E+00

     total cpu time spent up to now is       51.5 secs

     total energy              =     -43.90193015 Ry
     Harris-Foulkes estimate   =     -43.90193017 Ry
     estimated scf accuracy    <       0.00000015 Ry

     iteration # 23     ecut=   200.00 Ry     beta= 0.70
     Davidson diagonalization with overlap
     ethr =  1.90E-09,  avg # of iterations =  4.0

     negative rho (up, down):  1.578E-04 0.000E+00

     total cpu time spent up to now is       53.6 secs

     total energy              =     -43.90193020 Ry
     Harris-Foulkes estimate   =     -43.90193021 Ry
     estimated scf accuracy    <       0.00000006 Ry

     iteration # 24     ecut=   200.00 Ry     beta= 0.70
     Davidson diagonalization with overlap
     ethr =  7.38E-10,  avg # of iterations =  1.0

     negative rho (up, down):  1.577E-04 0.000E+00

     total cpu time spent up to now is       55.5 secs

     total energy              =     -43.90193019 Ry
     Harris-Foulkes estimate   =     -43.90193020 Ry
     estimated scf accuracy    <       0.00000002 Ry

     iteration # 25     ecut=   200.00 Ry     beta= 0.70
     Davidson diagonalization with overlap
     ethr =  2.81E-10,  avg # of iterations =  2.0

     negative rho (up, down):  1.577E-04 0.000E+00

     total cpu time spent up to now is       57.1 secs

     End of self-consistent calculation

          k = 0.0000 0.0000 0.0000 (382323 PWs)   bands (ev):

   -24.0456 -11.3330  -9.0264  -6.8410  -2.7441  -0.2216   0.4560   0.9391

     the Fermi energy is    -4.9670 ev

!    total energy              =     -43.90193019 Ry
     Harris-Foulkes estimate   =     -43.90193019 Ry
     estimated scf accuracy    <          1.7E-09 Ry

     total all-electron energy =      -152.748812 Ry

     The total energy is the sum of the following terms:

     one-electron contribution =     -60.35350336 Ry
     hartree contribution      =      31.92704552 Ry
     xc contribution           =      -8.59349578 Ry
     ewald contribution        =       2.70945129 Ry
     one-center paw contrib.   =      -9.59142786 Ry
     smearing contrib. (-TS)   =       0.00000000 Ry

     convergence has been achieved in  25 iterations

     Writing output data file pwscf.save
 
     init_run     :      2.86s CPU      3.07s WALL (       1 calls)
     electrons    :     43.07s CPU     53.50s WALL (       1 calls)

     Called by init_run:
     wfcinit      :      0.37s CPU      0.43s WALL (       1 calls)
     potinit      :      0.46s CPU      0.49s WALL (       1 calls)

     Called by electrons:
     c_bands      :     17.46s CPU     17.69s WALL (      25 calls)
     sum_band     :     10.76s CPU     11.72s WALL (      25 calls)
     v_of_rho     :      7.58s CPU      7.91s WALL (      26 calls)
     newd         :      3.56s CPU      4.40s WALL (      26 calls)
     PAW_pot      :      0.23s CPU      0.28s WALL (      26 calls)
     mix_rho      :      3.53s CPU      7.23s WALL (      25 calls)

     Called by c_bands:
     init_us_2    :      0.24s CPU      0.25s WALL (      51 calls)
     cegterg      :     17.22s CPU     17.44s WALL (      25 calls)

     Called by sum_band:
     sum_band:bec :      0.00s CPU      0.00s WALL (      25 calls)
     addusdens    :      5.43s CPU      6.27s WALL (      25 calls)

     Called by *egterg:
     h_psi        :     16.56s CPU     16.76s WALL (     104 calls)
     s_psi        :      0.11s CPU      0.11s WALL (     104 calls)
     g_psi        :      0.04s CPU      0.04s WALL (      78 calls)
     cdiaghg      :      0.02s CPU      0.03s WALL (     103 calls)

     Called by h_psi:
     h_psi:pot    :     16.47s CPU     16.67s WALL (     104 calls)
     h_psi:calbec :      0.13s CPU      0.13s WALL (     104 calls)
     vloc_psi     :     16.24s CPU     16.44s WALL (     104 calls)
     add_vuspsi   :      0.10s CPU      0.10s WALL (     104 calls)

     General routines
     calbec       :      0.17s CPU      0.17s WALL (     129 calls)
     fft          :      7.83s CPU      8.35s WALL (     337 calls)
     fftw         :     16.96s CPU     17.14s WALL (    1206 calls)
     davcio       :      0.38s CPU      3.80s WALL (     407 calls)
 
     Parallel routines
     fft_scatt_xy :      4.18s CPU      4.21s WALL (    1543 calls)
     fft_scatt_yz :      5.89s CPU      6.45s WALL (    1543 calls)
 
     PWSCF        :    47.00s CPU        58.30s WALL

 
   This run was terminated on:  14:29: 0  18May2018            

=------------------------------------------------------------------------------=
   JOB DONE.
=------------------------------------------------------------------------------=
