
     Program PWSCF v.6.2 (svn rev. 14038) starts on 18May2018 at 14:31:48 

     This program is part of the open-source Quantum ESPRESSO suite
     for quantum simulation of materials; please cite
         "P. Giannozzi et al., J. Phys.:Condens. Matter 21 395502 (2009);
         "P. Giannozzi et al., J. Phys.:Condens. Matter 29 465901 (2017);
          URL http://www.quantum-espresso.org", 
     in publications or presentations arising from this work. More details at
     http://www.quantum-espresso.org/quote

     Parallel version (MPI), running on    28 processors

     MPI processes distributed on     1 nodes
     R & G space division:  proc/nbgrp/npool/nimage =      28
     Reading input from ../ecut2-200/7500.in
Warning: card &IONS ignored
Warning: card     POT_EXTRAPOLATION='SECOND-ORDER' ignored
Warning: card     WFC_EXTRAPOLATION='SECOND-ORDER' ignored
Warning: card     ION_TEMPERATURE = 'ANDERSEN' ignored
Warning: card / ignored

     Current dimensions of program PWSCF are:
     Max number of different atomic species (ntypx) = 10
     Max number of k-points (npk) =  40000
     Max angular momentum in pseudopotentials (lmaxx) =  3
               file H.pbe-kjpaw_psl.1.0.0.UPF: wavefunction(s)  1S renormalized
               file O.pbe-n-kjpaw_psl.1.0.0.UPF: wavefunction(s)  2S 2P renormalized

     Subspace diagonalization in iterative solution of the eigenvalue problem:
     a serial algorithm will be used

 
     Parallelization info
     --------------------
     sticks:   dense  smooth     PW     G-vecs:    dense   smooth      PW
     Min         909     909    227               109161   109161   13653
     Max         911     911    228               109164   109164   13656
     Sum       25477   25477   6369              3056521  3056521  382323
 


     bravais-lattice index     =            1
     lattice parameter (alat)  =      20.0000  a.u.
     unit-cell volume          =    8000.0000 (a.u.)^3
     number of atoms/cell      =            3
     number of atomic types    =            2
     number of electrons       =         8.00
     number of Kohn-Sham states=            8
     kinetic-energy cutoff     =     200.0000  Ry
     charge density cutoff     =     800.0000  Ry
     convergence threshold     =      1.0E-08
     mixing beta               =       0.7000
     number of iterations used =            8  plain     mixing
     Exchange-correlation      = SLA PW PBX PBC ( 1  4  3  4 0 0)

     celldm(1)=  20.000000  celldm(2)=   0.000000  celldm(3)=   0.000000
     celldm(4)=   0.000000  celldm(5)=   0.000000  celldm(6)=   0.000000

     crystal axes: (cart. coord. in units of alat)
               a(1) = (   1.000000   0.000000   0.000000 )  
               a(2) = (   0.000000   1.000000   0.000000 )  
               a(3) = (   0.000000   0.000000   1.000000 )  

     reciprocal axes: (cart. coord. in units 2 pi/alat)
               b(1) = (  1.000000  0.000000  0.000000 )  
               b(2) = (  0.000000  1.000000  0.000000 )  
               b(3) = (  0.000000  0.000000  1.000000 )  


     PseudoPot. # 1 for H  read from file:
     ../pslibrary/pbe/PSEUDOPOTENTIALS/H.pbe-kjpaw_psl.1.0.0.UPF
     MD5 check sum: e77ef4e89cfa2d6a63e4c80bb1a147aa
     Pseudo is Projector augmented-wave, Zval =  1.0
     Generated using "atomic" code by A. Dal Corso v.6.2 svn rev. 14038
     Shape of augmentation charge: PSQ
     Using radial grid of  929 points,  2 beta functions with: 
                l(1) =   0
                l(2) =   0
     Q(r) pseudized with 0 coefficients 


     PseudoPot. # 2 for O  read from file:
     ../pslibrary/pbe/PSEUDOPOTENTIALS/O.pbe-n-kjpaw_psl.1.0.0.UPF
     MD5 check sum: bb09017f9a02654af35f7312a94eda3e
     Pseudo is Projector augmented-wave + core cor, Zval =  6.0
     Generated using "atomic" code by A. Dal Corso v.6.2 svn rev. 14038
     Shape of augmentation charge: PSQ
     Using radial grid of 1095 points,  4 beta functions with: 
                l(1) =   0
                l(2) =   0
                l(3) =   1
                l(4) =   1
     Q(r) pseudized with 0 coefficients 


     atomic species   valence    mass     pseudopotential
        H              1.00     1.01000     H ( 1.00)
        O              6.00    16.00000     O ( 1.00)

     No symmetry found



   Cartesian axes

     site n.     atom                  positions (alat units)
         1           O   tau(   1) = (   0.0000107   0.0094900   0.0006995  )
         2           H   tau(   2) = (  -0.0515698  -0.1255856  -0.0026635  )
         3           H   tau(   3) = (   0.0514010  -0.0247516   0.0799472  )

     number of k points=     1  Marzari-Vanderbilt smearing, width (Ry)=  0.0250
                       cart. coord. in units 2pi/alat
        k(    1) = (   0.0000000   0.0000000   0.0000000), wk =   2.0000000

     Dense  grid:  3056521 G-vectors     FFT dimensions: ( 192, 192, 192)

     Estimated max dynamical RAM per process >     123.03 MB

     Estimated total dynamical RAM >       3.36 GB

     Initial potential from superposition of free atoms
     Check: negative starting charge=   -0.000119

     starting charge    7.99998, renormalised to    8.00000

     negative rho (up, down):  1.188E-04 0.000E+00
     Starting wfc are    6 randomized atomic wfcs +    2 random wfc
     Checking if some PAW data can be deallocated... 

     total cpu time spent up to now is        3.7 secs

     Self-consistent Calculation

     iteration #  1     ecut=   200.00 Ry     beta= 0.70
     Davidson diagonalization with overlap
     ethr =  1.00E-02,  avg # of iterations =  7.0

     negative rho (up, down):  1.600E-04 0.000E+00

     total cpu time spent up to now is        6.1 secs

     total energy              =     -43.55941506 Ry
     Harris-Foulkes estimate   =     -43.94933186 Ry
     estimated scf accuracy    <       0.51761816 Ry

     iteration #  2     ecut=   200.00 Ry     beta= 0.70
     Davidson diagonalization with overlap
     ethr =  6.47E-03,  avg # of iterations =  3.0

     negative rho (up, down):  5.453E-05 0.000E+00

     total cpu time spent up to now is        8.0 secs

     total energy              =     -43.49181639 Ry
     Harris-Foulkes estimate   =     -44.23955937 Ry
     estimated scf accuracy    <       2.20158924 Ry

     iteration #  3     ecut=   200.00 Ry     beta= 0.70
     Davidson diagonalization with overlap
     ethr =  6.47E-03,  avg # of iterations =  1.0

     negative rho (up, down):  5.293E-06 0.000E+00

     total cpu time spent up to now is        9.8 secs

     total energy              =     -43.70893112 Ry
     Harris-Foulkes estimate   =     -43.72775135 Ry
     estimated scf accuracy    <       0.10940780 Ry

     iteration #  4     ecut=   200.00 Ry     beta= 0.70
     Davidson diagonalization with overlap
     ethr =  1.37E-03,  avg # of iterations =  3.0

     negative rho (up, down):  6.588E-06 0.000E+00

     total cpu time spent up to now is       11.9 secs

     total energy              =     -43.83070315 Ry
     Harris-Foulkes estimate   =     -43.83736387 Ry
     estimated scf accuracy    <       0.03506593 Ry

     iteration #  5     ecut=   200.00 Ry     beta= 0.70
     Davidson diagonalization with overlap
     ethr =  4.38E-04,  avg # of iterations =  1.0

     negative rho (up, down):  1.102E-05 0.000E+00

     total cpu time spent up to now is       13.7 secs

     total energy              =     -43.83034979 Ry
     Harris-Foulkes estimate   =     -43.83170656 Ry
     estimated scf accuracy    <       0.01358894 Ry

     iteration #  6     ecut=   200.00 Ry     beta= 0.70
     Davidson diagonalization with overlap
     ethr =  1.70E-04,  avg # of iterations =  3.0

     negative rho (up, down):  1.630E-05 0.000E+00

     total cpu time spent up to now is       15.5 secs

     total energy              =     -43.82954994 Ry
     Harris-Foulkes estimate   =     -43.83054019 Ry
     estimated scf accuracy    <       0.00975977 Ry

     iteration #  7     ecut=   200.00 Ry     beta= 0.70
     Davidson diagonalization with overlap
     ethr =  1.22E-04,  avg # of iterations =  1.0

     negative rho (up, down):  1.775E-05 0.000E+00

     total cpu time spent up to now is       17.3 secs

     total energy              =     -43.82992053 Ry
     Harris-Foulkes estimate   =     -43.82995358 Ry
     estimated scf accuracy    <       0.00444617 Ry

     iteration #  8     ecut=   200.00 Ry     beta= 0.70
     Davidson diagonalization with overlap
     ethr =  5.56E-05,  avg # of iterations =  7.0

     negative rho (up, down):  2.272E-05 0.000E+00

     total cpu time spent up to now is       19.4 secs

     total energy              =     -43.82974597 Ry
     Harris-Foulkes estimate   =     -43.82995999 Ry
     estimated scf accuracy    <       0.00422650 Ry

     iteration #  9     ecut=   200.00 Ry     beta= 0.70
     Davidson diagonalization with overlap
     ethr =  5.28E-05,  avg # of iterations =  1.0

     negative rho (up, down):  3.809E-05 0.000E+00

     total cpu time spent up to now is       21.3 secs

     total energy              =     -43.82945974 Ry
     Harris-Foulkes estimate   =     -43.82976621 Ry
     estimated scf accuracy    <       0.00335068 Ry

     iteration # 10     ecut=   200.00 Ry     beta= 0.70
     Davidson diagonalization with overlap
     ethr =  4.19E-05,  avg # of iterations =  1.0

     negative rho (up, down):  9.523E-05 0.000E+00

     total cpu time spent up to now is       23.2 secs

     total energy              =     -43.82903313 Ry
     Harris-Foulkes estimate   =     -43.82950619 Ry
     estimated scf accuracy    <       0.00207397 Ry

     iteration # 11     ecut=   200.00 Ry     beta= 0.70
     Davidson diagonalization with overlap
     ethr =  2.59E-05,  avg # of iterations =  1.0

     negative rho (up, down):  1.052E-04 0.000E+00

     total cpu time spent up to now is       25.1 secs

     total energy              =     -43.82904227 Ry
     Harris-Foulkes estimate   =     -43.82911671 Ry
     estimated scf accuracy    <       0.00062727 Ry

     iteration # 12     ecut=   200.00 Ry     beta= 0.70
     Davidson diagonalization with overlap
     ethr =  7.84E-06,  avg # of iterations =  3.0

     negative rho (up, down):  1.491E-04 0.000E+00

     total cpu time spent up to now is       27.1 secs

     total energy              =     -43.82918707 Ry
     Harris-Foulkes estimate   =     -43.82921001 Ry
     estimated scf accuracy    <       0.00006764 Ry

     iteration # 13     ecut=   200.00 Ry     beta= 0.70
     Davidson diagonalization with overlap
     ethr =  8.45E-07,  avg # of iterations = 16.0

     negative rho (up, down):  1.486E-04 0.000E+00

     total cpu time spent up to now is       29.7 secs

     total energy              =     -43.82919777 Ry
     Harris-Foulkes estimate   =     -43.82919967 Ry
     estimated scf accuracy    <       0.00001951 Ry

     iteration # 14     ecut=   200.00 Ry     beta= 0.70
     Davidson diagonalization with overlap
     ethr =  2.44E-07,  avg # of iterations =  1.0

     negative rho (up, down):  1.524E-04 0.000E+00

     total cpu time spent up to now is       31.5 secs

     total energy              =     -43.82919231 Ry
     Harris-Foulkes estimate   =     -43.82919831 Ry
     estimated scf accuracy    <       0.00001463 Ry

     iteration # 15     ecut=   200.00 Ry     beta= 0.70
     Davidson diagonalization with overlap
     ethr =  1.83E-07,  avg # of iterations =  2.0

     negative rho (up, down):  1.535E-04 0.000E+00

     total cpu time spent up to now is       33.4 secs

     total energy              =     -43.82919473 Ry
     Harris-Foulkes estimate   =     -43.82919482 Ry
     estimated scf accuracy    <       0.00000417 Ry

     iteration # 16     ecut=   200.00 Ry     beta= 0.70
     Davidson diagonalization with overlap
     ethr =  5.21E-08,  avg # of iterations =  1.0

     negative rho (up, down):  1.484E-04 0.000E+00

     total cpu time spent up to now is       35.3 secs

     total energy              =     -43.82919454 Ry
     Harris-Foulkes estimate   =     -43.82919491 Ry
     estimated scf accuracy    <       0.00000459 Ry

     iteration # 17     ecut=   200.00 Ry     beta= 0.70
     Davidson diagonalization with overlap
     ethr =  5.21E-08,  avg # of iterations =  3.0

     negative rho (up, down):  1.486E-04 0.000E+00

     total cpu time spent up to now is       37.3 secs

     total energy              =     -43.82919586 Ry
     Harris-Foulkes estimate   =     -43.82919671 Ry
     estimated scf accuracy    <       0.00000907 Ry

     iteration # 18     ecut=   200.00 Ry     beta= 0.70
     Davidson diagonalization with overlap
     ethr =  5.21E-08,  avg # of iterations =  1.0

     negative rho (up, down):  1.489E-04 0.000E+00

     total cpu time spent up to now is       39.3 secs

     total energy              =     -43.82919538 Ry
     Harris-Foulkes estimate   =     -43.82919589 Ry
     estimated scf accuracy    <       0.00000655 Ry

     iteration # 19     ecut=   200.00 Ry     beta= 0.70
     Davidson diagonalization with overlap
     ethr =  5.21E-08,  avg # of iterations =  1.0

     negative rho (up, down):  1.491E-04 0.000E+00

     total cpu time spent up to now is       41.1 secs

     total energy              =     -43.82919504 Ry
     Harris-Foulkes estimate   =     -43.82919545 Ry
     estimated scf accuracy    <       0.00000440 Ry

     iteration # 20     ecut=   200.00 Ry     beta= 0.70
     Davidson diagonalization with overlap
     ethr =  5.21E-08,  avg # of iterations =  1.0

     negative rho (up, down):  1.505E-04 0.000E+00

     total cpu time spent up to now is       42.9 secs

     total energy              =     -43.82919405 Ry
     Harris-Foulkes estimate   =     -43.82919508 Ry
     estimated scf accuracy    <       0.00000290 Ry

     iteration # 21     ecut=   200.00 Ry     beta= 0.70
     Davidson diagonalization with overlap
     ethr =  3.63E-08,  avg # of iterations =  2.0

     negative rho (up, down):  1.509E-04 0.000E+00

     total cpu time spent up to now is       44.8 secs

     total energy              =     -43.82919438 Ry
     Harris-Foulkes estimate   =     -43.82919442 Ry
     estimated scf accuracy    <       0.00000014 Ry

     iteration # 22     ecut=   200.00 Ry     beta= 0.70
     Davidson diagonalization with overlap
     ethr =  1.81E-09,  avg # of iterations =  4.0

     negative rho (up, down):  1.508E-04 0.000E+00

     total cpu time spent up to now is       46.9 secs

     total energy              =     -43.82919455 Ry
     Harris-Foulkes estimate   =     -43.82919454 Ry
     estimated scf accuracy    <       0.00000004 Ry

     iteration # 23     ecut=   200.00 Ry     beta= 0.70
     Davidson diagonalization with overlap
     ethr =  4.43E-10,  avg # of iterations =  2.0

     negative rho (up, down):  1.507E-04 0.000E+00

     total cpu time spent up to now is       48.8 secs

     total energy              =     -43.82919452 Ry
     Harris-Foulkes estimate   =     -43.82919455 Ry
     estimated scf accuracy    <       0.00000006 Ry

     iteration # 24     ecut=   200.00 Ry     beta= 0.70
     Davidson diagonalization with overlap
     ethr =  4.43E-10,  avg # of iterations =  3.0

     negative rho (up, down):  1.508E-04 0.000E+00

     total cpu time spent up to now is       50.4 secs

     End of self-consistent calculation

          k = 0.0000 0.0000 0.0000 (382323 PWs)   bands (ev):

   -23.4613 -10.3771  -9.4114  -6.8180  -3.6470  -0.4603   0.2324   0.8931

     the Fermi energy is    -6.5047 ev

!    total energy              =     -43.82919453 Ry
     Harris-Foulkes estimate   =     -43.82919453 Ry
     estimated scf accuracy    <          1.6E-09 Ry

     total all-electron energy =      -152.676076 Ry

     The total energy is the sum of the following terms:

     one-electron contribution =     -58.44166189 Ry
     hartree contribution      =      30.96866925 Ry
     xc contribution           =      -8.45334721 Ry
     ewald contribution        =       1.68819902 Ry
     one-center paw contrib.   =      -9.59513117 Ry
     smearing contrib. (-TS)   =       0.00407747 Ry

     convergence has been achieved in  24 iterations

     Writing output data file pwscf.save
 
     init_run     :      2.83s CPU      3.02s WALL (       1 calls)
     electrons    :     40.60s CPU     46.89s WALL (       1 calls)

     Called by init_run:
     wfcinit      :      0.32s CPU      0.39s WALL (       1 calls)
     potinit      :      0.47s CPU      0.50s WALL (       1 calls)

     Called by electrons:
     c_bands      :     16.11s CPU     16.31s WALL (      24 calls)
     sum_band     :     10.13s CPU     11.25s WALL (      24 calls)
     v_of_rho     :      7.26s CPU      7.54s WALL (      25 calls)
     newd         :      3.41s CPU      4.20s WALL (      25 calls)
     PAW_pot      :      0.22s CPU      0.25s WALL (      25 calls)
     mix_rho      :      3.45s CPU      7.13s WALL (      24 calls)

     Called by c_bands:
     init_us_2    :      0.24s CPU      0.25s WALL (      49 calls)
     cegterg      :     15.88s CPU     16.06s WALL (      24 calls)

     Called by sum_band:
     sum_band:bec :      0.00s CPU      0.00s WALL (      24 calls)
     addusdens    :      5.10s CPU      6.00s WALL (      24 calls)

     Called by *egterg:
     h_psi        :     15.25s CPU     15.43s WALL (      94 calls)
     s_psi        :      0.10s CPU      0.10s WALL (      94 calls)
     g_psi        :      0.03s CPU      0.03s WALL (      69 calls)
     cdiaghg      :      0.02s CPU      0.02s WALL (      93 calls)

     Called by h_psi:
     h_psi:pot    :     15.16s CPU     15.35s WALL (      94 calls)
     h_psi:calbec :      0.14s CPU      0.15s WALL (      94 calls)
     vloc_psi     :     14.93s CPU     15.11s WALL (      94 calls)
     add_vuspsi   :      0.09s CPU      0.09s WALL (      94 calls)

     General routines
     calbec       :      0.19s CPU      0.20s WALL (     118 calls)
     fft          :      7.56s CPU      8.04s WALL (     324 calls)
     fftw         :     15.62s CPU     15.87s WALL (    1128 calls)
     davcio       :      0.39s CPU      3.82s WALL (     387 calls)
 
     Parallel routines
     fft_scatt_xy :      3.98s CPU      4.02s WALL (    1452 calls)
     fft_scatt_yz :      5.19s CPU      5.80s WALL (    1452 calls)
 
     PWSCF        :    44.17s CPU        51.06s WALL

 
   This run was terminated on:  14:32:39  18May2018            

=------------------------------------------------------------------------------=
   JOB DONE.
=------------------------------------------------------------------------------=
