
     Program PWSCF v.6.2 (svn rev. 14038) starts on 18May2018 at 14:35: 4 

     This program is part of the open-source Quantum ESPRESSO suite
     for quantum simulation of materials; please cite
         "P. Giannozzi et al., J. Phys.:Condens. Matter 21 395502 (2009);
         "P. Giannozzi et al., J. Phys.:Condens. Matter 29 465901 (2017);
          URL http://www.quantum-espresso.org", 
     in publications or presentations arising from this work. More details at
     http://www.quantum-espresso.org/quote

     Parallel version (MPI), running on    28 processors

     MPI processes distributed on     1 nodes
     R & G space division:  proc/nbgrp/npool/nimage =      28
     Reading input from ../ecut2-200/9500.in
Warning: card &IONS ignored
Warning: card     POT_EXTRAPOLATION='SECOND-ORDER' ignored
Warning: card     WFC_EXTRAPOLATION='SECOND-ORDER' ignored
Warning: card     ION_TEMPERATURE = 'ANDERSEN' ignored
Warning: card / ignored

     Current dimensions of program PWSCF are:
     Max number of different atomic species (ntypx) = 10
     Max number of k-points (npk) =  40000
     Max angular momentum in pseudopotentials (lmaxx) =  3
               file H.pbe-kjpaw_psl.1.0.0.UPF: wavefunction(s)  1S renormalized
               file O.pbe-n-kjpaw_psl.1.0.0.UPF: wavefunction(s)  2S 2P renormalized

     Subspace diagonalization in iterative solution of the eigenvalue problem:
     a serial algorithm will be used

 
     Parallelization info
     --------------------
     sticks:   dense  smooth     PW     G-vecs:    dense   smooth      PW
     Min         909     909    227               109161   109161   13653
     Max         911     911    228               109164   109164   13656
     Sum       25477   25477   6369              3056521  3056521  382323
 


     bravais-lattice index     =            1
     lattice parameter (alat)  =      20.0000  a.u.
     unit-cell volume          =    8000.0000 (a.u.)^3
     number of atoms/cell      =            3
     number of atomic types    =            2
     number of electrons       =         8.00
     number of Kohn-Sham states=            8
     kinetic-energy cutoff     =     200.0000  Ry
     charge density cutoff     =     800.0000  Ry
     convergence threshold     =      1.0E-08
     mixing beta               =       0.7000
     number of iterations used =            8  plain     mixing
     Exchange-correlation      = SLA PW PBX PBC ( 1  4  3  4 0 0)

     celldm(1)=  20.000000  celldm(2)=   0.000000  celldm(3)=   0.000000
     celldm(4)=   0.000000  celldm(5)=   0.000000  celldm(6)=   0.000000

     crystal axes: (cart. coord. in units of alat)
               a(1) = (   1.000000   0.000000   0.000000 )  
               a(2) = (   0.000000   1.000000   0.000000 )  
               a(3) = (   0.000000   0.000000   1.000000 )  

     reciprocal axes: (cart. coord. in units 2 pi/alat)
               b(1) = (  1.000000  0.000000  0.000000 )  
               b(2) = (  0.000000  1.000000  0.000000 )  
               b(3) = (  0.000000  0.000000  1.000000 )  


     PseudoPot. # 1 for H  read from file:
     ../pslibrary/pbe/PSEUDOPOTENTIALS/H.pbe-kjpaw_psl.1.0.0.UPF
     MD5 check sum: e77ef4e89cfa2d6a63e4c80bb1a147aa
     Pseudo is Projector augmented-wave, Zval =  1.0
     Generated using "atomic" code by A. Dal Corso v.6.2 svn rev. 14038
     Shape of augmentation charge: PSQ
     Using radial grid of  929 points,  2 beta functions with: 
                l(1) =   0
                l(2) =   0
     Q(r) pseudized with 0 coefficients 


     PseudoPot. # 2 for O  read from file:
     ../pslibrary/pbe/PSEUDOPOTENTIALS/O.pbe-n-kjpaw_psl.1.0.0.UPF
     MD5 check sum: bb09017f9a02654af35f7312a94eda3e
     Pseudo is Projector augmented-wave + core cor, Zval =  6.0
     Generated using "atomic" code by A. Dal Corso v.6.2 svn rev. 14038
     Shape of augmentation charge: PSQ
     Using radial grid of 1095 points,  4 beta functions with: 
                l(1) =   0
                l(2) =   0
                l(3) =   1
                l(4) =   1
     Q(r) pseudized with 0 coefficients 


     atomic species   valence    mass     pseudopotential
        H              1.00     1.01000     H ( 1.00)
        O              6.00    16.00000     O ( 1.00)

     No symmetry found



   Cartesian axes

     site n.     atom                  positions (alat units)
         1           O   tau(   1) = (   0.0015214   0.0051135   0.0075320  )
         2           H   tau(   2) = (  -0.0350339   0.0044770  -0.0958283  )
         3           H   tau(   3) = (   0.0109318  -0.0854833   0.0648736  )

     number of k points=     1  Marzari-Vanderbilt smearing, width (Ry)=  0.0250
                       cart. coord. in units 2pi/alat
        k(    1) = (   0.0000000   0.0000000   0.0000000), wk =   2.0000000

     Dense  grid:  3056521 G-vectors     FFT dimensions: ( 192, 192, 192)

     Estimated max dynamical RAM per process >     123.03 MB

     Estimated total dynamical RAM >       3.36 GB

     Initial potential from superposition of free atoms
     Check: negative starting charge=   -0.000117

     starting charge    7.99998, renormalised to    8.00000

     negative rho (up, down):  1.170E-04 0.000E+00
     Starting wfc are    6 randomized atomic wfcs +    2 random wfc
     Checking if some PAW data can be deallocated... 

     total cpu time spent up to now is        3.9 secs

     Self-consistent Calculation

     iteration #  1     ecut=   200.00 Ry     beta= 0.70
     Davidson diagonalization with overlap
     ethr =  1.00E-02,  avg # of iterations =  7.0

     negative rho (up, down):  1.612E-04 0.000E+00

     total cpu time spent up to now is        6.2 secs

     total energy              =     -43.74358127 Ry
     Harris-Foulkes estimate   =     -44.06462015 Ry
     estimated scf accuracy    <       0.43312539 Ry

     iteration #  2     ecut=   200.00 Ry     beta= 0.70
     Davidson diagonalization with overlap
     ethr =  5.41E-03,  avg # of iterations =  3.0

     negative rho (up, down):  7.595E-05 0.000E+00

     total cpu time spent up to now is        8.1 secs

     total energy              =     -43.75915521 Ry
     Harris-Foulkes estimate   =     -44.11326955 Ry
     estimated scf accuracy    <       0.83010261 Ry

     iteration #  3     ecut=   200.00 Ry     beta= 0.70
     Davidson diagonalization with overlap
     ethr =  5.41E-03,  avg # of iterations =  1.0

     negative rho (up, down):  5.446E-06 0.000E+00

     total cpu time spent up to now is       10.0 secs

     total energy              =     -43.84764918 Ry
     Harris-Foulkes estimate   =     -43.86919560 Ry
     estimated scf accuracy    <       0.05672901 Ry

     iteration #  4     ecut=   200.00 Ry     beta= 0.70
     Davidson diagonalization with overlap
     ethr =  7.09E-04,  avg # of iterations =  3.0

     negative rho (up, down):  9.178E-06 0.000E+00

     total cpu time spent up to now is       12.0 secs

     total energy              =     -43.94051276 Ry
     Harris-Foulkes estimate   =     -43.96277813 Ry
     estimated scf accuracy    <       0.08759234 Ry

     iteration #  5     ecut=   200.00 Ry     beta= 0.70
     Davidson diagonalization with overlap
     ethr =  7.09E-04,  avg # of iterations =  1.0

     negative rho (up, down):  1.633E-05 0.000E+00

     total cpu time spent up to now is       13.9 secs

     total energy              =     -43.93522480 Ry
     Harris-Foulkes estimate   =     -43.94344252 Ry
     estimated scf accuracy    <       0.03293504 Ry

     iteration #  6     ecut=   200.00 Ry     beta= 0.70
     Davidson diagonalization with overlap
     ethr =  4.12E-04,  avg # of iterations =  2.0

     negative rho (up, down):  2.494E-05 0.000E+00

     total cpu time spent up to now is       15.8 secs

     total energy              =     -43.94167643 Ry
     Harris-Foulkes estimate   =     -43.94195111 Ry
     estimated scf accuracy    <       0.00168927 Ry

     iteration #  7     ecut=   200.00 Ry     beta= 0.70
     Davidson diagonalization with overlap
     ethr =  2.11E-05,  avg # of iterations = 11.0

     negative rho (up, down):  1.469E-04 0.000E+00

     total cpu time spent up to now is       18.3 secs

     total energy              =     -43.94165578 Ry
     Harris-Foulkes estimate   =     -43.94199346 Ry
     estimated scf accuracy    <       0.00059220 Ry

     iteration #  8     ecut=   200.00 Ry     beta= 0.70
     Davidson diagonalization with overlap
     ethr =  7.40E-06,  avg # of iterations =  4.0

     negative rho (up, down):  8.474E-05 0.000E+00

     total cpu time spent up to now is       20.4 secs

     total energy              =     -43.93758358 Ry
     Harris-Foulkes estimate   =     -43.93804808 Ry
     estimated scf accuracy    <       0.00099903 Ry

     iteration #  9     ecut=   200.00 Ry     beta= 0.70
     Davidson diagonalization with overlap
     ethr =  7.40E-06,  avg # of iterations =  1.0

     negative rho (up, down):  1.006E-04 0.000E+00

     total cpu time spent up to now is       22.3 secs

     total energy              =     -43.94176669 Ry
     Harris-Foulkes estimate   =     -43.94176951 Ry
     estimated scf accuracy    <       0.00006382 Ry

     iteration # 10     ecut=   200.00 Ry     beta= 0.70
     Davidson diagonalization with overlap
     ethr =  7.98E-07,  avg # of iterations =  8.0

     negative rho (up, down):  1.968E-04 0.000E+00

     total cpu time spent up to now is       24.8 secs

     total energy              =     -43.94186177 Ry
     Harris-Foulkes estimate   =     -43.94187090 Ry
     estimated scf accuracy    <       0.00002689 Ry

     iteration # 11     ecut=   200.00 Ry     beta= 0.70
     Davidson diagonalization with overlap
     ethr =  3.36E-07,  avg # of iterations =  2.0

     negative rho (up, down):  1.644E-04 0.000E+00

     total cpu time spent up to now is       26.7 secs

     total energy              =     -43.94186378 Ry
     Harris-Foulkes estimate   =     -43.94186558 Ry
     estimated scf accuracy    <       0.00001020 Ry

     iteration # 12     ecut=   200.00 Ry     beta= 0.70
     Davidson diagonalization with overlap
     ethr =  1.28E-07,  avg # of iterations =  3.0

     negative rho (up, down):  1.546E-04 0.000E+00

     total cpu time spent up to now is       28.6 secs

     total energy              =     -43.94186492 Ry
     Harris-Foulkes estimate   =     -43.94186502 Ry
     estimated scf accuracy    <       0.00000474 Ry

     iteration # 13     ecut=   200.00 Ry     beta= 0.70
     Davidson diagonalization with overlap
     ethr =  5.93E-08,  avg # of iterations =  1.0

     negative rho (up, down):  1.544E-04 0.000E+00

     total cpu time spent up to now is       30.5 secs

     total energy              =     -43.94186467 Ry
     Harris-Foulkes estimate   =     -43.94186507 Ry
     estimated scf accuracy    <       0.00000424 Ry

     iteration # 14     ecut=   200.00 Ry     beta= 0.70
     Davidson diagonalization with overlap
     ethr =  5.30E-08,  avg # of iterations =  1.0

     negative rho (up, down):  1.542E-04 0.000E+00

     total cpu time spent up to now is       32.3 secs

     total energy              =     -43.94186425 Ry
     Harris-Foulkes estimate   =     -43.94186472 Ry
     estimated scf accuracy    <       0.00000318 Ry

     iteration # 15     ecut=   200.00 Ry     beta= 0.70
     Davidson diagonalization with overlap
     ethr =  3.97E-08,  avg # of iterations =  1.0

     negative rho (up, down):  1.520E-04 0.000E+00

     total cpu time spent up to now is       34.3 secs

     total energy              =     -43.94186337 Ry
     Harris-Foulkes estimate   =     -43.94186432 Ry
     estimated scf accuracy    <       0.00000176 Ry

     iteration # 16     ecut=   200.00 Ry     beta= 0.70
     Davidson diagonalization with overlap
     ethr =  2.20E-08,  avg # of iterations =  3.0

     negative rho (up, down):  1.529E-04 0.000E+00

     total cpu time spent up to now is       36.4 secs

     total energy              =     -43.94186399 Ry
     Harris-Foulkes estimate   =     -43.94186418 Ry
     estimated scf accuracy    <       0.00000066 Ry

     iteration # 17     ecut=   200.00 Ry     beta= 0.70
     Davidson diagonalization with overlap
     ethr =  8.21E-09,  avg # of iterations =  1.0

     negative rho (up, down):  1.531E-04 0.000E+00

     total cpu time spent up to now is       38.2 secs

     total energy              =     -43.94186395 Ry
     Harris-Foulkes estimate   =     -43.94186401 Ry
     estimated scf accuracy    <       0.00000022 Ry

     iteration # 18     ecut=   200.00 Ry     beta= 0.70
     Davidson diagonalization with overlap
     ethr =  2.74E-09,  avg # of iterations =  2.0

     negative rho (up, down):  1.530E-04 0.000E+00

     total cpu time spent up to now is       39.9 secs

     End of self-consistent calculation

          k = 0.0000 0.0000 0.0000 (382323 PWs)   bands (ev):

   -23.3776 -12.0936  -8.1439  -6.6905  -1.8244   0.0358   0.1054   0.9666

     the Fermi energy is    -4.7793 ev

!    total energy              =     -43.94186401 Ry
     Harris-Foulkes estimate   =     -43.94186401 Ry
     estimated scf accuracy    <          2.7E-09 Ry

     total all-electron energy =      -152.788745 Ry

     The total energy is the sum of the following terms:

     one-electron contribution =     -60.24074236 Ry
     hartree contribution      =      31.92184151 Ry
     xc contribution           =      -8.56739744 Ry
     ewald contribution        =       2.53203650 Ry
     one-center paw contrib.   =      -9.58760223 Ry
     smearing contrib. (-TS)   =       0.00000000 Ry

     convergence has been achieved in  18 iterations

     Writing output data file pwscf.save
 
     init_run     :      2.86s CPU      3.04s WALL (       1 calls)
     electrons    :     31.50s CPU     36.29s WALL (       1 calls)

     Called by init_run:
     wfcinit      :      0.33s CPU      0.39s WALL (       1 calls)
     potinit      :      0.47s CPU      0.49s WALL (       1 calls)

     Called by electrons:
     c_bands      :     13.38s CPU     13.51s WALL (      18 calls)
     sum_band     :      7.71s CPU      8.41s WALL (      18 calls)
     v_of_rho     :      5.46s CPU      5.69s WALL (      19 calls)
     newd         :      2.64s CPU      3.22s WALL (      19 calls)
     PAW_pot      :      0.18s CPU      0.19s WALL (      19 calls)
     mix_rho      :      2.24s CPU      5.19s WALL (      18 calls)

     Called by c_bands:
     init_us_2    :      0.18s CPU      0.18s WALL (      37 calls)
     cegterg      :     13.21s CPU     13.32s WALL (      18 calls)

     Called by sum_band:
     sum_band:bec :      0.00s CPU      0.00s WALL (      18 calls)
     addusdens    :      3.93s CPU      4.55s WALL (      18 calls)

     Called by *egterg:
     h_psi        :     12.73s CPU     12.83s WALL (      74 calls)
     s_psi        :      0.08s CPU      0.08s WALL (      74 calls)
     g_psi        :      0.03s CPU      0.03s WALL (      55 calls)
     cdiaghg      :      0.03s CPU      0.03s WALL (      73 calls)

     Called by h_psi:
     h_psi:pot    :     12.66s CPU     12.76s WALL (      74 calls)
     h_psi:calbec :      0.10s CPU      0.11s WALL (      74 calls)
     vloc_psi     :     12.49s CPU     12.58s WALL (      74 calls)
     add_vuspsi   :      0.07s CPU      0.07s WALL (      74 calls)

     General routines
     calbec       :      0.14s CPU      0.14s WALL (      92 calls)
     fft          :      5.73s CPU      6.09s WALL (     246 calls)
     fftw         :     12.95s CPU     13.05s WALL (     902 calls)
     davcio       :      0.26s CPU      3.07s WALL (     267 calls)
 
     Parallel routines
     fft_scatt_xy :      3.14s CPU      3.15s WALL (    1148 calls)
     fft_scatt_yz :      4.43s CPU      4.83s WALL (    1148 calls)
 
     PWSCF        :    35.21s CPU        41.09s WALL

 
   This run was terminated on:  14:35:45  18May2018            

=------------------------------------------------------------------------------=
   JOB DONE.
=------------------------------------------------------------------------------=
