
     Program PWSCF v.6.2 (svn rev. 14038) starts on 12May2018 at  5:26:41 

     This program is part of the open-source Quantum ESPRESSO suite
     for quantum simulation of materials; please cite
         "P. Giannozzi et al., J. Phys.:Condens. Matter 21 395502 (2009);
         "P. Giannozzi et al., J. Phys.:Condens. Matter 29 465901 (2017);
          URL http://www.quantum-espresso.org", 
     in publications or presentations arising from this work. More details at
     http://www.quantum-espresso.org/quote

     Parallel version (MPI), running on    28 processors

     MPI processes distributed on     1 nodes
     R & G space division:  proc/nbgrp/npool/nimage =      28
     Reading input from ../ecut90/14500.in
Warning: card &IONS ignored
Warning: card     POT_EXTRAPOLATION='SECOND-ORDER' ignored
Warning: card     WFC_EXTRAPOLATION='SECOND-ORDER' ignored
Warning: card     ION_TEMPERATURE = 'ANDERSEN' ignored
Warning: card / ignored

     Current dimensions of program PWSCF are:
     Max number of different atomic species (ntypx) = 10
     Max number of k-points (npk) =  40000
     Max angular momentum in pseudopotentials (lmaxx) =  3

     Subspace diagonalization in iterative solution of the eigenvalue problem:
     a serial algorithm will be used

 
     Parallelization info
     --------------------
     sticks:   dense  smooth     PW     G-vecs:    dense   smooth      PW
     Min         408     408    102                32936    32936    4116
     Max         409     409    103                32943    32943    4121
     Sum       11449   11449   2869               922329   922329  115313
 


     bravais-lattice index     =            1
     lattice parameter (alat)  =      20.0000  a.u.
     unit-cell volume          =    8000.0000 (a.u.)^3
     number of atoms/cell      =            3
     number of atomic types    =            2
     number of electrons       =         8.00
     number of Kohn-Sham states=            8
     kinetic-energy cutoff     =      90.0000  Ry
     charge density cutoff     =     360.0000  Ry
     convergence threshold     =      1.0E-08
     mixing beta               =       0.7000
     number of iterations used =            8  plain     mixing
     Exchange-correlation      = PBE ( 1  4  3  4 0 0)

     celldm(1)=  20.000000  celldm(2)=   0.000000  celldm(3)=   0.000000
     celldm(4)=   0.000000  celldm(5)=   0.000000  celldm(6)=   0.000000

     crystal axes: (cart. coord. in units of alat)
               a(1) = (   1.000000   0.000000   0.000000 )  
               a(2) = (   0.000000   1.000000   0.000000 )  
               a(3) = (   0.000000   0.000000   1.000000 )  

     reciprocal axes: (cart. coord. in units 2 pi/alat)
               b(1) = (  1.000000  0.000000  0.000000 )  
               b(2) = (  0.000000  1.000000  0.000000 )  
               b(3) = (  0.000000  0.000000  1.000000 )  


     PseudoPot. # 1 for H  read from file:
     ../pslibrary/pbe/PSEUDOPOTENTIALS/H.pbe-rrkjus_psl.1.0.0.UPF
     MD5 check sum: b2b1ff84b4ceabe23335d1bf25025923
     Pseudo is Ultrasoft, Zval =  1.0
     Generated using "atomic" code by A. Dal Corso v.6.2 svn rev. 14038
     Using radial grid of  929 points,  2 beta functions with: 
                l(1) =   0
                l(2) =   0
     Q(r) pseudized with 0 coefficients 


     PseudoPot. # 2 for O  read from file:
     ../pslibrary/pbe/PSEUDOPOTENTIALS/O.pbe-n-rrkjus_psl.1.0.0.UPF
     MD5 check sum: 61455b21a47f6823f888c3bfb9bd1235
     Pseudo is Ultrasoft + core correction, Zval =  6.0
     Generated using "atomic" code by A. Dal Corso v.6.2 svn rev. 14038
     Using radial grid of 1095 points,  4 beta functions with: 
                l(1) =   0
                l(2) =   0
                l(3) =   1
                l(4) =   1
     Q(r) pseudized with 0 coefficients 


     atomic species   valence    mass     pseudopotential
        H              1.00     1.01000     H ( 1.00)
        O              6.00    16.00000     O ( 1.00)

     No symmetry found



   Cartesian axes

     site n.     atom                  positions (alat units)
         1           O   tau(   1) = (  -0.0003056  -0.0048671   0.0144255  )
         2           H   tau(   2) = (   0.0578319   0.0438032  -0.0616627  )
         3           H   tau(   3) = (  -0.0529908   0.0332993  -0.0784969  )

     number of k points=     1  Marzari-Vanderbilt smearing, width (Ry)=  0.0250
                       cart. coord. in units 2pi/alat
        k(    1) = (   0.0000000   0.0000000   0.0000000), wk =   2.0000000

     Dense  grid:   922329 G-vectors     FFT dimensions: ( 125, 125, 125)

     Estimated max dynamical RAM per process >      38.67 MB

     Estimated total dynamical RAM >       1.06 GB

     Initial potential from superposition of free atoms
     Check: negative starting charge=   -0.001658

     starting charge    7.99998, renormalised to    8.00000

     negative rho (up, down):  1.658E-03 0.000E+00
     Starting wfc are    6 randomized atomic wfcs +    2 random wfc

     total cpu time spent up to now is        1.4 secs

     Self-consistent Calculation

     iteration #  1     ecut=    90.00 Ry     beta= 0.70
     Davidson diagonalization with overlap
     ethr =  1.00E-02,  avg # of iterations =  7.0

     negative rho (up, down):  2.347E-03 0.000E+00

     total cpu time spent up to now is        1.9 secs

     total energy              =     -34.44538187 Ry
     Harris-Foulkes estimate   =     -34.73798688 Ry
     estimated scf accuracy    <       0.39579670 Ry

     iteration #  2     ecut=    90.00 Ry     beta= 0.70
     Davidson diagonalization with overlap
     ethr =  4.95E-03,  avg # of iterations =  3.0

     negative rho (up, down):  1.870E-03 0.000E+00

     total cpu time spent up to now is        2.2 secs

     total energy              =     -34.43972430 Ry
     Harris-Foulkes estimate   =     -34.82529683 Ry
     estimated scf accuracy    <       0.96289535 Ry

     iteration #  3     ecut=    90.00 Ry     beta= 0.70
     Davidson diagonalization with overlap
     ethr =  4.95E-03,  avg # of iterations =  3.0

     negative rho (up, down):  1.766E-03 0.000E+00

     total cpu time spent up to now is        2.5 secs

     total energy              =     -34.58903759 Ry
     Harris-Foulkes estimate   =     -34.59446140 Ry
     estimated scf accuracy    <       0.01733412 Ry

     iteration #  4     ecut=    90.00 Ry     beta= 0.70
     Davidson diagonalization with overlap
     ethr =  2.17E-04,  avg # of iterations =  4.0

     negative rho (up, down):  1.981E-03 0.000E+00

     total cpu time spent up to now is        2.9 secs

     total energy              =     -34.63306138 Ry
     Harris-Foulkes estimate   =     -34.63923488 Ry
     estimated scf accuracy    <       0.02540262 Ry

     iteration #  5     ecut=    90.00 Ry     beta= 0.70
     Davidson diagonalization with overlap
     ethr =  2.17E-04,  avg # of iterations =  1.0

     negative rho (up, down):  2.018E-03 0.000E+00

     total cpu time spent up to now is        3.2 secs

     total energy              =     -34.63179600 Ry
     Harris-Foulkes estimate   =     -34.63370114 Ry
     estimated scf accuracy    <       0.00994757 Ry

     iteration #  6     ecut=    90.00 Ry     beta= 0.70
     Davidson diagonalization with overlap
     ethr =  1.24E-04,  avg # of iterations =  1.0

     negative rho (up, down):  2.034E-03 0.000E+00

     total cpu time spent up to now is        3.5 secs

     total energy              =     -34.63217148 Ry
     Harris-Foulkes estimate   =     -34.63236477 Ry
     estimated scf accuracy    <       0.00372922 Ry

     iteration #  7     ecut=    90.00 Ry     beta= 0.70
     Davidson diagonalization with overlap
     ethr =  4.66E-05,  avg # of iterations =  3.0

     negative rho (up, down):  2.046E-03 0.000E+00

     total cpu time spent up to now is        3.9 secs

     total energy              =     -34.63273241 Ry
     Harris-Foulkes estimate   =     -34.63274933 Ry
     estimated scf accuracy    <       0.00122644 Ry

     iteration #  8     ecut=    90.00 Ry     beta= 0.70
     Davidson diagonalization with overlap
     ethr =  1.53E-05,  avg # of iterations = 15.0

     negative rho (up, down):  2.033E-03 0.000E+00

     total cpu time spent up to now is        4.3 secs

     total energy              =     -34.63276660 Ry
     Harris-Foulkes estimate   =     -34.63279019 Ry
     estimated scf accuracy    <       0.00093663 Ry

     iteration #  9     ecut=    90.00 Ry     beta= 0.70
     Davidson diagonalization with overlap
     ethr =  1.17E-05,  avg # of iterations =  1.0

     negative rho (up, down):  2.234E-03 0.000E+00

     total cpu time spent up to now is        4.7 secs

     total energy              =     -34.63337385 Ry
     Harris-Foulkes estimate   =     -34.63277041 Ry
     estimated scf accuracy    <       0.00086673 Ry

     iteration # 10     ecut=    90.00 Ry     beta= 0.70
     Davidson diagonalization with overlap
     ethr =  1.08E-05,  avg # of iterations =  4.0

     negative rho (up, down):  2.436E-03 0.000E+00

     total cpu time spent up to now is        5.0 secs

     total energy              =     -34.63349955 Ry
     Harris-Foulkes estimate   =     -34.63365143 Ry
     estimated scf accuracy    <       0.00387583 Ry

     iteration # 11     ecut=    90.00 Ry     beta= 0.70
     Davidson diagonalization with overlap
     ethr =  1.08E-05,  avg # of iterations =  1.0

     negative rho (up, down):  2.309E-03 0.000E+00

     total cpu time spent up to now is        5.4 secs

     total energy              =     -34.63276684 Ry
     Harris-Foulkes estimate   =     -34.63351901 Ry
     estimated scf accuracy    <       0.00354552 Ry

     iteration # 12     ecut=    90.00 Ry     beta= 0.70
     Davidson diagonalization with overlap
     ethr =  1.08E-05,  avg # of iterations =  1.0

     negative rho (up, down):  2.280E-03 0.000E+00

     total cpu time spent up to now is        5.7 secs

     total energy              =     -34.63261295 Ry
     Harris-Foulkes estimate   =     -34.63285176 Ry
     estimated scf accuracy    <       0.00148517 Ry

     iteration # 13     ecut=    90.00 Ry     beta= 0.70
     Davidson diagonalization with overlap
     ethr =  1.08E-05,  avg # of iterations =  2.0

     negative rho (up, down):  2.275E-03 0.000E+00

     total cpu time spent up to now is        6.0 secs

     total energy              =     -34.63265774 Ry
     Harris-Foulkes estimate   =     -34.63267606 Ry
     estimated scf accuracy    <       0.00055297 Ry

     iteration # 14     ecut=    90.00 Ry     beta= 0.70
     Davidson diagonalization with overlap
     ethr =  6.91E-06,  avg # of iterations =  1.0

     negative rho (up, down):  2.270E-03 0.000E+00

     total cpu time spent up to now is        6.4 secs

     total energy              =     -34.63265882 Ry
     Harris-Foulkes estimate   =     -34.63266427 Ry
     estimated scf accuracy    <       0.00046533 Ry

     iteration # 15     ecut=    90.00 Ry     beta= 0.70
     Davidson diagonalization with overlap
     ethr =  5.82E-06,  avg # of iterations =  1.0

     negative rho (up, down):  2.198E-03 0.000E+00

     total cpu time spent up to now is        6.7 secs

     total energy              =     -34.63241098 Ry
     Harris-Foulkes estimate   =     -34.63266079 Ry
     estimated scf accuracy    <       0.00041998 Ry

     iteration # 16     ecut=    90.00 Ry     beta= 0.70
     Davidson diagonalization with overlap
     ethr =  5.25E-06,  avg # of iterations =  3.0

     negative rho (up, down):  2.224E-03 0.000E+00

     total cpu time spent up to now is        7.1 secs

     total energy              =     -34.63255485 Ry
     Harris-Foulkes estimate   =     -34.63265545 Ry
     estimated scf accuracy    <       0.00032728 Ry

     iteration # 17     ecut=    90.00 Ry     beta= 0.70
     Davidson diagonalization with overlap
     ethr =  4.09E-06,  avg # of iterations =  1.0

     negative rho (up, down):  2.235E-03 0.000E+00

     total cpu time spent up to now is        7.4 secs

     total energy              =     -34.63255464 Ry
     Harris-Foulkes estimate   =     -34.63257241 Ry
     estimated scf accuracy    <       0.00006743 Ry

     iteration # 18     ecut=    90.00 Ry     beta= 0.70
     Davidson diagonalization with overlap
     ethr =  8.43E-07,  avg # of iterations =  2.0

     negative rho (up, down):  2.232E-03 0.000E+00

     total cpu time spent up to now is        7.8 secs

     total energy              =     -34.63258161 Ry
     Harris-Foulkes estimate   =     -34.63258233 Ry
     estimated scf accuracy    <       0.00000211 Ry

     iteration # 19     ecut=    90.00 Ry     beta= 0.70
     Davidson diagonalization with overlap
     ethr =  2.63E-08,  avg # of iterations =  3.0

     negative rho (up, down):  2.231E-03 0.000E+00

     total cpu time spent up to now is        8.1 secs

     total energy              =     -34.63258254 Ry
     Harris-Foulkes estimate   =     -34.63258253 Ry
     estimated scf accuracy    <       0.00000029 Ry

     iteration # 20     ecut=    90.00 Ry     beta= 0.70
     Davidson diagonalization with overlap
     ethr =  3.59E-09,  avg # of iterations =  1.0

     negative rho (up, down):  2.235E-03 0.000E+00

     total cpu time spent up to now is        8.5 secs

     total energy              =     -34.63258259 Ry
     Harris-Foulkes estimate   =     -34.63258254 Ry
     estimated scf accuracy    <       0.00000033 Ry

     iteration # 21     ecut=    90.00 Ry     beta= 0.70
     Davidson diagonalization with overlap
     ethr =  3.59E-09,  avg # of iterations =  3.0

     negative rho (up, down):  2.236E-03 0.000E+00

     total cpu time spent up to now is        8.8 secs

     total energy              =     -34.63258280 Ry
     Harris-Foulkes estimate   =     -34.63258264 Ry
     estimated scf accuracy    <       0.00000065 Ry

     iteration # 22     ecut=    90.00 Ry     beta= 0.70
     Davidson diagonalization with overlap
     ethr =  3.59E-09,  avg # of iterations =  2.0

     negative rho (up, down):  2.235E-03 0.000E+00

     total cpu time spent up to now is        9.2 secs

     total energy              =     -34.63258263 Ry
     Harris-Foulkes estimate   =     -34.63258287 Ry
     estimated scf accuracy    <       0.00000154 Ry

     iteration # 23     ecut=    90.00 Ry     beta= 0.70
     Davidson diagonalization with overlap
     ethr =  3.59E-09,  avg # of iterations =  1.0

     negative rho (up, down):  2.234E-03 0.000E+00

     total cpu time spent up to now is        9.5 secs

     total energy              =     -34.63258233 Ry
     Harris-Foulkes estimate   =     -34.63258265 Ry
     estimated scf accuracy    <       0.00000085 Ry

     iteration # 24     ecut=    90.00 Ry     beta= 0.70
     Davidson diagonalization with overlap
     ethr =  3.59E-09,  avg # of iterations =  3.0

     negative rho (up, down):  2.234E-03 0.000E+00

     total cpu time spent up to now is        9.9 secs

     total energy              =     -34.63258247 Ry
     Harris-Foulkes estimate   =     -34.63258247 Ry
     estimated scf accuracy    <       0.00000001 Ry

     iteration # 25     ecut=    90.00 Ry     beta= 0.70
     Davidson diagonalization with overlap
     ethr =  1.37E-10,  avg # of iterations =  4.0

     negative rho (up, down):  2.234E-03 0.000E+00

     total cpu time spent up to now is       10.2 secs

     total energy              =     -34.63258249 Ry
     Harris-Foulkes estimate   =     -34.63258249 Ry
     estimated scf accuracy    <       0.00000002 Ry

     iteration # 26     ecut=    90.00 Ry     beta= 0.70
     Davidson diagonalization with overlap
     ethr =  1.37E-10,  avg # of iterations =  2.0

     negative rho (up, down):  2.234E-03 0.000E+00

     total cpu time spent up to now is       10.6 secs

     total energy              =     -34.63258248 Ry
     Harris-Foulkes estimate   =     -34.63258250 Ry
     estimated scf accuracy    <       0.00000004 Ry

     iteration # 27     ecut=    90.00 Ry     beta= 0.70
     Davidson diagonalization with overlap
     ethr =  1.37E-10,  avg # of iterations =  1.0

     negative rho (up, down):  2.234E-03 0.000E+00

     total cpu time spent up to now is       10.8 secs

     End of self-consistent calculation

          k = 0.0000 0.0000 0.0000 (115313 PWs)   bands (ev):

   -24.1455 -11.3351  -9.4286  -7.0247  -2.2825  -0.0483   0.1150   0.8714

     the Fermi energy is    -5.0427 ev

!    total energy              =     -34.63258248 Ry
     Harris-Foulkes estimate   =     -34.63258248 Ry
     estimated scf accuracy    <          4.1E-09 Ry

     The total energy is the sum of the following terms:

     one-electron contribution =     -60.60668634 Ry
     hartree contribution      =      31.81283755 Ry
     xc contribution           =      -8.55600724 Ry
     ewald contribution        =       2.71727356 Ry
     smearing contrib. (-TS)   =       0.00000000 Ry

     convergence has been achieved in  27 iterations

     Writing output data file pwscf.save
 
     init_run     :      0.65s CPU      0.71s WALL (       1 calls)
     electrons    :      8.46s CPU      9.51s WALL (       1 calls)

     Called by init_run:
     wfcinit      :      0.07s CPU      0.10s WALL (       1 calls)
     potinit      :      0.12s CPU      0.12s WALL (       1 calls)

     Called by electrons:
     c_bands      :      2.69s CPU      2.73s WALL (      27 calls)
     sum_band     :      1.92s CPU      1.95s WALL (      27 calls)
     v_of_rho     :      1.72s CPU      1.75s WALL (      28 calls)
     newd         :      0.83s CPU      0.84s WALL (      28 calls)
     mix_rho      :      1.21s CPU      2.02s WALL (      27 calls)

     Called by c_bands:
     init_us_2    :      0.07s CPU      0.08s WALL (      55 calls)
     cegterg      :      2.61s CPU      2.63s WALL (      27 calls)

     Called by sum_band:
     sum_band:bec :      0.00s CPU      0.00s WALL (      27 calls)
     addusdens    :      1.04s CPU      1.05s WALL (      27 calls)

     Called by *egterg:
     h_psi        :      2.40s CPU      2.41s WALL (     102 calls)
     s_psi        :      0.02s CPU      0.02s WALL (     102 calls)
     g_psi        :      0.01s CPU      0.01s WALL (      74 calls)
     cdiaghg      :      0.02s CPU      0.02s WALL (     101 calls)

     Called by h_psi:
     h_psi:pot    :      2.38s CPU      2.40s WALL (     102 calls)
     h_psi:calbec :      0.07s CPU      0.07s WALL (     102 calls)
     vloc_psi     :      2.29s CPU      2.31s WALL (     102 calls)
     add_vuspsi   :      0.02s CPU      0.02s WALL (     102 calls)

     General routines
     calbec       :      0.09s CPU      0.09s WALL (     129 calls)
     fft          :      1.49s CPU      1.52s WALL (     363 calls)
     fftw         :      2.39s CPU      2.42s WALL (    1276 calls)
     davcio       :      0.16s CPU      0.87s WALL (     447 calls)
 
     Parallel routines
     fft_scatt_xy :      0.49s CPU      0.49s WALL (    1639 calls)
     fft_scatt_yz :      1.10s CPU      1.14s WALL (    1639 calls)
 
     PWSCF        :     9.77s CPU        11.22s WALL

 
   This run was terminated on:   5:26:52  12May2018            

=------------------------------------------------------------------------------=
   JOB DONE.
=------------------------------------------------------------------------------=
