
     Program PWSCF v.6.2 (svn rev. 14038) starts on 12May2018 at  5:27:18 

     This program is part of the open-source Quantum ESPRESSO suite
     for quantum simulation of materials; please cite
         "P. Giannozzi et al., J. Phys.:Condens. Matter 21 395502 (2009);
         "P. Giannozzi et al., J. Phys.:Condens. Matter 29 465901 (2017);
          URL http://www.quantum-espresso.org", 
     in publications or presentations arising from this work. More details at
     http://www.quantum-espresso.org/quote

     Parallel version (MPI), running on    28 processors

     MPI processes distributed on     1 nodes
     R & G space division:  proc/nbgrp/npool/nimage =      28
     Reading input from ../ecut90/16000.in
Warning: card &IONS ignored
Warning: card     POT_EXTRAPOLATION='SECOND-ORDER' ignored
Warning: card     WFC_EXTRAPOLATION='SECOND-ORDER' ignored
Warning: card     ION_TEMPERATURE = 'ANDERSEN' ignored
Warning: card / ignored

     Current dimensions of program PWSCF are:
     Max number of different atomic species (ntypx) = 10
     Max number of k-points (npk) =  40000
     Max angular momentum in pseudopotentials (lmaxx) =  3

     Subspace diagonalization in iterative solution of the eigenvalue problem:
     a serial algorithm will be used

 
     Parallelization info
     --------------------
     sticks:   dense  smooth     PW     G-vecs:    dense   smooth      PW
     Min         408     408    102                32936    32936    4116
     Max         409     409    103                32943    32943    4121
     Sum       11449   11449   2869               922329   922329  115313
 


     bravais-lattice index     =            1
     lattice parameter (alat)  =      20.0000  a.u.
     unit-cell volume          =    8000.0000 (a.u.)^3
     number of atoms/cell      =            3
     number of atomic types    =            2
     number of electrons       =         8.00
     number of Kohn-Sham states=            8
     kinetic-energy cutoff     =      90.0000  Ry
     charge density cutoff     =     360.0000  Ry
     convergence threshold     =      1.0E-08
     mixing beta               =       0.7000
     number of iterations used =            8  plain     mixing
     Exchange-correlation      = PBE ( 1  4  3  4 0 0)

     celldm(1)=  20.000000  celldm(2)=   0.000000  celldm(3)=   0.000000
     celldm(4)=   0.000000  celldm(5)=   0.000000  celldm(6)=   0.000000

     crystal axes: (cart. coord. in units of alat)
               a(1) = (   1.000000   0.000000   0.000000 )  
               a(2) = (   0.000000   1.000000   0.000000 )  
               a(3) = (   0.000000   0.000000   1.000000 )  

     reciprocal axes: (cart. coord. in units 2 pi/alat)
               b(1) = (  1.000000  0.000000  0.000000 )  
               b(2) = (  0.000000  1.000000  0.000000 )  
               b(3) = (  0.000000  0.000000  1.000000 )  


     PseudoPot. # 1 for H  read from file:
     ../pslibrary/pbe/PSEUDOPOTENTIALS/H.pbe-rrkjus_psl.1.0.0.UPF
     MD5 check sum: b2b1ff84b4ceabe23335d1bf25025923
     Pseudo is Ultrasoft, Zval =  1.0
     Generated using "atomic" code by A. Dal Corso v.6.2 svn rev. 14038
     Using radial grid of  929 points,  2 beta functions with: 
                l(1) =   0
                l(2) =   0
     Q(r) pseudized with 0 coefficients 


     PseudoPot. # 2 for O  read from file:
     ../pslibrary/pbe/PSEUDOPOTENTIALS/O.pbe-n-rrkjus_psl.1.0.0.UPF
     MD5 check sum: 61455b21a47f6823f888c3bfb9bd1235
     Pseudo is Ultrasoft + core correction, Zval =  6.0
     Generated using "atomic" code by A. Dal Corso v.6.2 svn rev. 14038
     Using radial grid of 1095 points,  4 beta functions with: 
                l(1) =   0
                l(2) =   0
                l(3) =   1
                l(4) =   1
     Q(r) pseudized with 0 coefficients 


     atomic species   valence    mass     pseudopotential
        H              1.00     1.01000     H ( 1.00)
        O              6.00    16.00000     O ( 1.00)

     No symmetry found



   Cartesian axes

     site n.     atom                  positions (alat units)
         1           O   tau(   1) = (  -0.0040208  -0.0097288   0.0055931  )
         2           H   tau(   2) = (  -0.0252565   0.1165225   0.0567062  )
         3           H   tau(   3) = (   0.0889514   0.0375970  -0.0569466  )

     number of k points=     1  Marzari-Vanderbilt smearing, width (Ry)=  0.0250
                       cart. coord. in units 2pi/alat
        k(    1) = (   0.0000000   0.0000000   0.0000000), wk =   2.0000000

     Dense  grid:   922329 G-vectors     FFT dimensions: ( 125, 125, 125)

     Estimated max dynamical RAM per process >      38.67 MB

     Estimated total dynamical RAM >       1.06 GB

     Initial potential from superposition of free atoms
     Check: negative starting charge=   -0.001581

     starting charge    7.99998, renormalised to    8.00000

     negative rho (up, down):  1.581E-03 0.000E+00
     Starting wfc are    6 randomized atomic wfcs +    2 random wfc

     total cpu time spent up to now is        1.6 secs

     Self-consistent Calculation

     iteration #  1     ecut=    90.00 Ry     beta= 0.70
     Davidson diagonalization with overlap
     ethr =  1.00E-02,  avg # of iterations =  7.0

     negative rho (up, down):  2.196E-03 0.000E+00

     total cpu time spent up to now is        2.1 secs

     total energy              =     -34.29440446 Ry
     Harris-Foulkes estimate   =     -34.62622966 Ry
     estimated scf accuracy    <       0.44408234 Ry

     iteration #  2     ecut=    90.00 Ry     beta= 0.70
     Davidson diagonalization with overlap
     ethr =  5.55E-03,  avg # of iterations =  3.0

     negative rho (up, down):  4.192E-04 0.000E+00

     total cpu time spent up to now is        2.4 secs

     total energy              =     -34.24751285 Ry
     Harris-Foulkes estimate   =     -34.83756956 Ry
     estimated scf accuracy    <       1.70885218 Ry

     iteration #  3     ecut=    90.00 Ry     beta= 0.70
     Davidson diagonalization with overlap
     ethr =  5.55E-03,  avg # of iterations =  1.0

     negative rho (up, down):  7.822E-04 0.000E+00

     total cpu time spent up to now is        2.7 secs

     total energy              =     -34.48486837 Ry
     Harris-Foulkes estimate   =     -34.49258320 Ry
     estimated scf accuracy    <       0.02425009 Ry

     iteration #  4     ecut=    90.00 Ry     beta= 0.70
     Davidson diagonalization with overlap
     ethr =  3.03E-04,  avg # of iterations =  3.0

     negative rho (up, down):  1.204E-03 0.000E+00

     total cpu time spent up to now is        3.1 secs

     total energy              =     -34.52984745 Ry
     Harris-Foulkes estimate   =     -34.53446156 Ry
     estimated scf accuracy    <       0.02024363 Ry

     iteration #  5     ecut=    90.00 Ry     beta= 0.70
     Davidson diagonalization with overlap
     ethr =  2.53E-04,  avg # of iterations =  1.0

     negative rho (up, down):  1.451E-03 0.000E+00

     total cpu time spent up to now is        3.4 secs

     total energy              =     -34.52983111 Ry
     Harris-Foulkes estimate   =     -34.53081211 Ry
     estimated scf accuracy    <       0.00429353 Ry

     iteration #  6     ecut=    90.00 Ry     beta= 0.70
     Davidson diagonalization with overlap
     ethr =  5.37E-05,  avg # of iterations =  2.0

     negative rho (up, down):  1.715E-03 0.000E+00

     total cpu time spent up to now is        3.7 secs

     total energy              =     -34.53036740 Ry
     Harris-Foulkes estimate   =     -34.53041383 Ry
     estimated scf accuracy    <       0.00026294 Ry

     iteration #  7     ecut=    90.00 Ry     beta= 0.70
     Davidson diagonalization with overlap
     ethr =  3.29E-06,  avg # of iterations =  9.0

     negative rho (up, down):  2.009E-03 0.000E+00

     total cpu time spent up to now is        4.1 secs

     total energy              =     -34.53059631 Ry
     Harris-Foulkes estimate   =     -34.53060137 Ry
     estimated scf accuracy    <       0.00012188 Ry

     iteration #  8     ecut=    90.00 Ry     beta= 0.70
     Davidson diagonalization with overlap
     ethr =  1.52E-06,  avg # of iterations =  1.0

     negative rho (up, down):  2.048E-03 0.000E+00

     total cpu time spent up to now is        4.5 secs

     total energy              =     -34.53057861 Ry
     Harris-Foulkes estimate   =     -34.53059968 Ry
     estimated scf accuracy    <       0.00010956 Ry

     iteration #  9     ecut=    90.00 Ry     beta= 0.70
     Davidson diagonalization with overlap
     ethr =  1.37E-06,  avg # of iterations =  1.0

     negative rho (up, down):  2.049E-03 0.000E+00

     total cpu time spent up to now is        4.8 secs

     total energy              =     -34.53057425 Ry
     Harris-Foulkes estimate   =     -34.53058232 Ry
     estimated scf accuracy    <       0.00003117 Ry

     iteration # 10     ecut=    90.00 Ry     beta= 0.70
     Davidson diagonalization with overlap
     ethr =  3.90E-07,  avg # of iterations =  1.0

     negative rho (up, down):  2.051E-03 0.000E+00

     total cpu time spent up to now is        5.2 secs

     total energy              =     -34.53057655 Ry
     Harris-Foulkes estimate   =     -34.53057719 Ry
     estimated scf accuracy    <       0.00000328 Ry

     iteration # 11     ecut=    90.00 Ry     beta= 0.70
     Davidson diagonalization with overlap
     ethr =  4.11E-08,  avg # of iterations =  3.0

     negative rho (up, down):  2.058E-03 0.000E+00

     total cpu time spent up to now is        5.5 secs

     total energy              =     -34.53057865 Ry
     Harris-Foulkes estimate   =     -34.53057864 Ry
     estimated scf accuracy    <       0.00000011 Ry

     iteration # 12     ecut=    90.00 Ry     beta= 0.70
     Davidson diagonalization with overlap
     ethr =  1.41E-09,  avg # of iterations =  2.0

     negative rho (up, down):  2.054E-03 0.000E+00

     total cpu time spent up to now is        5.9 secs

     total energy              =     -34.53057857 Ry
     Harris-Foulkes estimate   =     -34.53057866 Ry
     estimated scf accuracy    <       0.00000019 Ry

     iteration # 13     ecut=    90.00 Ry     beta= 0.70
     Davidson diagonalization with overlap
     ethr =  1.41E-09,  avg # of iterations =  3.0

     negative rho (up, down):  2.055E-03 0.000E+00

     total cpu time spent up to now is        6.2 secs

     total energy              =     -34.53057862 Ry
     Harris-Foulkes estimate   =     -34.53057862 Ry
     estimated scf accuracy    <       0.00000004 Ry

     iteration # 14     ecut=    90.00 Ry     beta= 0.70
     Davidson diagonalization with overlap
     ethr =  5.50E-10,  avg # of iterations =  1.0

     negative rho (up, down):  2.055E-03 0.000E+00

     total cpu time spent up to now is        6.6 secs

     total energy              =     -34.53057861 Ry
     Harris-Foulkes estimate   =     -34.53057862 Ry
     estimated scf accuracy    <       0.00000002 Ry

     iteration # 15     ecut=    90.00 Ry     beta= 0.70
     Davidson diagonalization with overlap
     ethr =  2.99E-10,  avg # of iterations =  1.0

     negative rho (up, down):  2.055E-03 0.000E+00

     total cpu time spent up to now is        6.8 secs

     End of self-consistent calculation

          k = 0.0000 0.0000 0.0000 (115313 PWs)   bands (ev):

   -22.6680  -9.8389  -9.3711  -6.6825  -3.1927  -1.5248  -0.0310   0.8829

     the Fermi energy is    -4.6647 ev

!    total energy              =     -34.53057861 Ry
     Harris-Foulkes estimate   =     -34.53057861 Ry
     estimated scf accuracy    <          5.7E-09 Ry

     The total energy is the sum of the following terms:

     one-electron contribution =     -57.24073529 Ry
     hartree contribution      =      30.23143039 Ry
     xc contribution           =      -8.33371920 Ry
     ewald contribution        =       0.81244550 Ry
     smearing contrib. (-TS)   =      -0.00000000 Ry

     convergence has been achieved in  15 iterations

     Writing output data file pwscf.save
 
     init_run     :      0.74s CPU      0.81s WALL (       1 calls)
     electrons    :      4.67s CPU      5.36s WALL (       1 calls)

     Called by init_run:
     wfcinit      :      0.13s CPU      0.16s WALL (       1 calls)
     potinit      :      0.12s CPU      0.12s WALL (       1 calls)

     Called by electrons:
     c_bands      :      1.59s CPU      1.62s WALL (      15 calls)
     sum_band     :      1.07s CPU      1.09s WALL (      15 calls)
     v_of_rho     :      0.98s CPU      1.00s WALL (      16 calls)
     newd         :      0.47s CPU      0.48s WALL (      16 calls)
     mix_rho      :      0.58s CPU      0.98s WALL (      15 calls)

     Called by c_bands:
     init_us_2    :      0.04s CPU      0.04s WALL (      31 calls)
     cegterg      :      1.54s CPU      1.57s WALL (      15 calls)

     Called by sum_band:
     sum_band:bec :      0.00s CPU      0.00s WALL (      15 calls)
     addusdens    :      0.56s CPU      0.58s WALL (      15 calls)

     Called by *egterg:
     h_psi        :      1.50s CPU      1.53s WALL (      55 calls)
     s_psi        :      0.01s CPU      0.01s WALL (      55 calls)
     g_psi        :      0.01s CPU      0.01s WALL (      39 calls)
     cdiaghg      :      0.01s CPU      0.01s WALL (      54 calls)

     Called by h_psi:
     h_psi:pot    :      1.49s CPU      1.52s WALL (      55 calls)
     h_psi:calbec :      0.04s CPU      0.04s WALL (      55 calls)
     vloc_psi     :      1.44s CPU      1.46s WALL (      55 calls)
     add_vuspsi   :      0.01s CPU      0.01s WALL (      55 calls)

     General routines
     calbec       :      0.05s CPU      0.06s WALL (      70 calls)
     fft          :      0.84s CPU      0.87s WALL (     207 calls)
     fftw         :      1.49s CPU      1.52s WALL (     748 calls)
     davcio       :      0.07s CPU      0.42s WALL (     207 calls)
 
     Parallel routines
     fft_scatt_xy :      0.28s CPU      0.28s WALL (     955 calls)
     fft_scatt_yz :      0.72s CPU      0.75s WALL (     955 calls)
 
     PWSCF        :     6.04s CPU         7.33s WALL

 
   This run was terminated on:   5:27:26  12May2018            

=------------------------------------------------------------------------------=
   JOB DONE.
=------------------------------------------------------------------------------=
