
     Program PWSCF v.6.2 (svn rev. 14038) starts on 12May2018 at  5:30:12 

     This program is part of the open-source Quantum ESPRESSO suite
     for quantum simulation of materials; please cite
         "P. Giannozzi et al., J. Phys.:Condens. Matter 21 395502 (2009);
         "P. Giannozzi et al., J. Phys.:Condens. Matter 29 465901 (2017);
          URL http://www.quantum-espresso.org", 
     in publications or presentations arising from this work. More details at
     http://www.quantum-espresso.org/quote

     Parallel version (MPI), running on    28 processors

     MPI processes distributed on     1 nodes
     R & G space division:  proc/nbgrp/npool/nimage =      28
     Reading input from ../ecut90/23000.in
Warning: card &IONS ignored
Warning: card     POT_EXTRAPOLATION='SECOND-ORDER' ignored
Warning: card     WFC_EXTRAPOLATION='SECOND-ORDER' ignored
Warning: card     ION_TEMPERATURE = 'ANDERSEN' ignored
Warning: card / ignored

     Current dimensions of program PWSCF are:
     Max number of different atomic species (ntypx) = 10
     Max number of k-points (npk) =  40000
     Max angular momentum in pseudopotentials (lmaxx) =  3

     Subspace diagonalization in iterative solution of the eigenvalue problem:
     a serial algorithm will be used

 
     Parallelization info
     --------------------
     sticks:   dense  smooth     PW     G-vecs:    dense   smooth      PW
     Min         408     408    102                32936    32936    4116
     Max         409     409    103                32943    32943    4121
     Sum       11449   11449   2869               922329   922329  115313
 


     bravais-lattice index     =            1
     lattice parameter (alat)  =      20.0000  a.u.
     unit-cell volume          =    8000.0000 (a.u.)^3
     number of atoms/cell      =            3
     number of atomic types    =            2
     number of electrons       =         8.00
     number of Kohn-Sham states=            8
     kinetic-energy cutoff     =      90.0000  Ry
     charge density cutoff     =     360.0000  Ry
     convergence threshold     =      1.0E-08
     mixing beta               =       0.7000
     number of iterations used =            8  plain     mixing
     Exchange-correlation      = PBE ( 1  4  3  4 0 0)

     celldm(1)=  20.000000  celldm(2)=   0.000000  celldm(3)=   0.000000
     celldm(4)=   0.000000  celldm(5)=   0.000000  celldm(6)=   0.000000

     crystal axes: (cart. coord. in units of alat)
               a(1) = (   1.000000   0.000000   0.000000 )  
               a(2) = (   0.000000   1.000000   0.000000 )  
               a(3) = (   0.000000   0.000000   1.000000 )  

     reciprocal axes: (cart. coord. in units 2 pi/alat)
               b(1) = (  1.000000  0.000000  0.000000 )  
               b(2) = (  0.000000  1.000000  0.000000 )  
               b(3) = (  0.000000  0.000000  1.000000 )  


     PseudoPot. # 1 for H  read from file:
     ../pslibrary/pbe/PSEUDOPOTENTIALS/H.pbe-rrkjus_psl.1.0.0.UPF
     MD5 check sum: b2b1ff84b4ceabe23335d1bf25025923
     Pseudo is Ultrasoft, Zval =  1.0
     Generated using "atomic" code by A. Dal Corso v.6.2 svn rev. 14038
     Using radial grid of  929 points,  2 beta functions with: 
                l(1) =   0
                l(2) =   0
     Q(r) pseudized with 0 coefficients 


     PseudoPot. # 2 for O  read from file:
     ../pslibrary/pbe/PSEUDOPOTENTIALS/O.pbe-n-rrkjus_psl.1.0.0.UPF
     MD5 check sum: 61455b21a47f6823f888c3bfb9bd1235
     Pseudo is Ultrasoft + core correction, Zval =  6.0
     Generated using "atomic" code by A. Dal Corso v.6.2 svn rev. 14038
     Using radial grid of 1095 points,  4 beta functions with: 
                l(1) =   0
                l(2) =   0
                l(3) =   1
                l(4) =   1
     Q(r) pseudized with 0 coefficients 


     atomic species   valence    mass     pseudopotential
        H              1.00     1.01000     H ( 1.00)
        O              6.00    16.00000     O ( 1.00)

     No symmetry found



   Cartesian axes

     site n.     atom                  positions (alat units)
         1           O   tau(   1) = (  -0.0020193   0.0058929  -0.0010672  )
         2           H   tau(   2) = (   0.0706862  -0.0380379   0.0083874  )
         3           H   tau(   3) = (  -0.0386985  -0.0553160   0.0968826  )

     number of k points=     1  Marzari-Vanderbilt smearing, width (Ry)=  0.0250
                       cart. coord. in units 2pi/alat
        k(    1) = (   0.0000000   0.0000000   0.0000000), wk =   2.0000000

     Dense  grid:   922329 G-vectors     FFT dimensions: ( 125, 125, 125)

     Estimated max dynamical RAM per process >      38.67 MB

     Estimated total dynamical RAM >       1.06 GB

     Initial potential from superposition of free atoms
     Check: negative starting charge=   -0.001632

     starting charge    7.99998, renormalised to    8.00000

     negative rho (up, down):  1.632E-03 0.000E+00
     Starting wfc are    6 randomized atomic wfcs +    2 random wfc

     total cpu time spent up to now is        1.4 secs

     Self-consistent Calculation

     iteration #  1     ecut=    90.00 Ry     beta= 0.70
     Davidson diagonalization with overlap
     ethr =  1.00E-02,  avg # of iterations =  7.0

     negative rho (up, down):  2.446E-03 0.000E+00

     total cpu time spent up to now is        1.9 secs

     total energy              =     -34.43715114 Ry
     Harris-Foulkes estimate   =     -34.81278373 Ry
     estimated scf accuracy    <       0.50371484 Ry

     iteration #  2     ecut=    90.00 Ry     beta= 0.70
     Davidson diagonalization with overlap
     ethr =  6.30E-03,  avg # of iterations =  3.0

     negative rho (up, down):  2.051E-03 0.000E+00

     total cpu time spent up to now is        2.2 secs

     total energy              =     -34.46135976 Ry
     Harris-Foulkes estimate   =     -34.90658690 Ry
     estimated scf accuracy    <       1.09801840 Ry

     iteration #  3     ecut=    90.00 Ry     beta= 0.70
     Davidson diagonalization with overlap
     ethr =  6.30E-03,  avg # of iterations =  1.0

     negative rho (up, down):  1.381E-03 0.000E+00

     total cpu time spent up to now is        2.5 secs

     total energy              =     -34.54023350 Ry
     Harris-Foulkes estimate   =     -34.57589160 Ry
     estimated scf accuracy    <       0.11660389 Ry

     iteration #  4     ecut=    90.00 Ry     beta= 0.70
     Davidson diagonalization with overlap
     ethr =  1.46E-03,  avg # of iterations =  3.0

     negative rho (up, down):  1.625E-03 0.000E+00

     total cpu time spent up to now is        2.9 secs

     total energy              =     -34.67330793 Ry
     Harris-Foulkes estimate   =     -34.69612169 Ry
     estimated scf accuracy    <       0.09695071 Ry

     iteration #  5     ecut=    90.00 Ry     beta= 0.70
     Davidson diagonalization with overlap
     ethr =  1.21E-03,  avg # of iterations =  1.0

     negative rho (up, down):  1.762E-03 0.000E+00

     total cpu time spent up to now is        3.2 secs

     total energy              =     -34.66700712 Ry
     Harris-Foulkes estimate   =     -34.67569531 Ry
     estimated scf accuracy    <       0.04111850 Ry

     iteration #  6     ecut=    90.00 Ry     beta= 0.70
     Davidson diagonalization with overlap
     ethr =  5.14E-04,  avg # of iterations =  2.0

     negative rho (up, down):  1.834E-03 0.000E+00

     total cpu time spent up to now is        3.5 secs

     total energy              =     -34.67221500 Ry
     Harris-Foulkes estimate   =     -34.67244704 Ry
     estimated scf accuracy    <       0.00449655 Ry

     iteration #  7     ecut=    90.00 Ry     beta= 0.70
     Davidson diagonalization with overlap
     ethr =  5.62E-05,  avg # of iterations = 10.0

     negative rho (up, down):  2.023E-03 0.000E+00

     total cpu time spent up to now is        4.0 secs

     total energy              =     -34.67221339 Ry
     Harris-Foulkes estimate   =     -34.67238721 Ry
     estimated scf accuracy    <       0.00335386 Ry

     iteration #  8     ecut=    90.00 Ry     beta= 0.70
     Davidson diagonalization with overlap
     ethr =  4.19E-05,  avg # of iterations =  1.0

     negative rho (up, down):  2.380E-03 0.000E+00

     total cpu time spent up to now is        4.3 secs

     total energy              =     -34.67148631 Ry
     Harris-Foulkes estimate   =     -34.67224944 Ry
     estimated scf accuracy    <       0.00247785 Ry

     iteration #  9     ecut=    90.00 Ry     beta= 0.70
     Davidson diagonalization with overlap
     ethr =  3.10E-05,  avg # of iterations =  1.0

     negative rho (up, down):  2.344E-03 0.000E+00

     total cpu time spent up to now is        4.6 secs

     total energy              =     -34.67162351 Ry
     Harris-Foulkes estimate   =     -34.67168222 Ry
     estimated scf accuracy    <       0.00034846 Ry

     iteration # 10     ecut=    90.00 Ry     beta= 0.70
     Davidson diagonalization with overlap
     ethr =  4.36E-06,  avg # of iterations = 15.0

     negative rho (up, down):  2.301E-03 0.000E+00

     total cpu time spent up to now is        5.1 secs

     total energy              =     -34.67172534 Ry
     Harris-Foulkes estimate   =     -34.67172226 Ry
     estimated scf accuracy    <       0.00003909 Ry

     iteration # 11     ecut=    90.00 Ry     beta= 0.70
     Davidson diagonalization with overlap
     ethr =  4.89E-07,  avg # of iterations =  1.0

     negative rho (up, down):  2.333E-03 0.000E+00

     total cpu time spent up to now is        5.4 secs

     total energy              =     -34.67171090 Ry
     Harris-Foulkes estimate   =     -34.67172717 Ry
     estimated scf accuracy    <       0.00005114 Ry

     iteration # 12     ecut=    90.00 Ry     beta= 0.70
     Davidson diagonalization with overlap
     ethr =  4.89E-07,  avg # of iterations =  1.0

     negative rho (up, down):  2.362E-03 0.000E+00

     total cpu time spent up to now is        5.7 secs

     total energy              =     -34.66763453 Ry
     Harris-Foulkes estimate   =     -34.66763748 Ry
     estimated scf accuracy    <       0.00000739 Ry

     iteration # 13     ecut=    90.00 Ry     beta= 0.70
     Davidson diagonalization with overlap
     ethr =  9.24E-08,  avg # of iterations =  3.0

     negative rho (up, down):  2.362E-03 0.000E+00

     total cpu time spent up to now is        6.1 secs

     total energy              =     -34.66763887 Ry
     Harris-Foulkes estimate   =     -34.66763892 Ry
     estimated scf accuracy    <       0.00000182 Ry

     iteration # 14     ecut=    90.00 Ry     beta= 0.70
     Davidson diagonalization with overlap
     ethr =  2.27E-08,  avg # of iterations =  1.0

     negative rho (up, down):  2.362E-03 0.000E+00

     total cpu time spent up to now is        6.4 secs

     total energy              =     -34.66763868 Ry
     Harris-Foulkes estimate   =     -34.66763888 Ry
     estimated scf accuracy    <       0.00000171 Ry

     iteration # 15     ecut=    90.00 Ry     beta= 0.70
     Davidson diagonalization with overlap
     ethr =  2.14E-08,  avg # of iterations =  1.0

     negative rho (up, down):  2.362E-03 0.000E+00

     total cpu time spent up to now is        6.8 secs

     total energy              =     -34.66763844 Ry
     Harris-Foulkes estimate   =     -34.66763869 Ry
     estimated scf accuracy    <       0.00000116 Ry

     iteration # 16     ecut=    90.00 Ry     beta= 0.70
     Davidson diagonalization with overlap
     ethr =  1.45E-08,  avg # of iterations =  1.0

     negative rho (up, down):  2.362E-03 0.000E+00

     total cpu time spent up to now is        7.1 secs

     total energy              =     -34.66763847 Ry
     Harris-Foulkes estimate   =     -34.66763848 Ry
     estimated scf accuracy    <       0.00000043 Ry

     iteration # 17     ecut=    90.00 Ry     beta= 0.70
     Davidson diagonalization with overlap
     ethr =  5.42E-09,  avg # of iterations =  1.0

     negative rho (up, down):  2.362E-03 0.000E+00

     total cpu time spent up to now is        7.5 secs

     total energy              =     -34.66763843 Ry
     Harris-Foulkes estimate   =     -34.66763848 Ry
     estimated scf accuracy    <       0.00000039 Ry

     iteration # 18     ecut=    90.00 Ry     beta= 0.70
     Davidson diagonalization with overlap
     ethr =  4.89E-09,  avg # of iterations =  1.0

     negative rho (up, down):  2.363E-03 0.000E+00

     total cpu time spent up to now is        7.8 secs

     total energy              =     -34.66763832 Ry
     Harris-Foulkes estimate   =     -34.66763844 Ry
     estimated scf accuracy    <       0.00000023 Ry

     iteration # 19     ecut=    90.00 Ry     beta= 0.70
     Davidson diagonalization with overlap
     ethr =  2.85E-09,  avg # of iterations =  3.0

     negative rho (up, down):  2.363E-03 0.000E+00

     total cpu time spent up to now is        8.2 secs

     total energy              =     -34.66763847 Ry
     Harris-Foulkes estimate   =     -34.66763849 Ry
     estimated scf accuracy    <       0.00000013 Ry

     iteration # 20     ecut=    90.00 Ry     beta= 0.70
     Davidson diagonalization with overlap
     ethr =  1.67E-09,  avg # of iterations =  1.0

     negative rho (up, down):  2.363E-03 0.000E+00

     total cpu time spent up to now is        8.5 secs

     total energy              =     -34.66763844 Ry
     Harris-Foulkes estimate   =     -34.66763847 Ry
     estimated scf accuracy    <       0.00000008 Ry

     iteration # 21     ecut=    90.00 Ry     beta= 0.70
     Davidson diagonalization with overlap
     ethr =  1.03E-09,  avg # of iterations =  1.0

     negative rho (up, down):  2.362E-03 0.000E+00

     total cpu time spent up to now is        8.8 secs

     End of self-consistent calculation

          k = 0.0000 0.0000 0.0000 (115313 PWs)   bands (ev):

   -24.8716 -11.1855  -9.9145  -7.0448  -2.1618  -0.1152   0.5548   0.9050

     the Fermi energy is    -6.7315 ev

!    total energy              =     -34.66763844 Ry
     Harris-Foulkes estimate   =     -34.66763845 Ry
     estimated scf accuracy    <          5.7E-09 Ry

     The total energy is the sum of the following terms:

     one-electron contribution =     -62.24594279 Ry
     hartree contribution      =      32.64756557 Ry
     xc contribution           =      -8.70207879 Ry
     ewald contribution        =       3.62874009 Ry
     smearing contrib. (-TS)   =       0.00407747 Ry

     convergence has been achieved in  21 iterations

     Writing output data file pwscf.save
 
     init_run     :      0.67s CPU      0.73s WALL (       1 calls)
     electrons    :      6.60s CPU      7.46s WALL (       1 calls)

     Called by init_run:
     wfcinit      :      0.10s CPU      0.12s WALL (       1 calls)
     potinit      :      0.12s CPU      0.13s WALL (       1 calls)

     Called by electrons:
     c_bands      :      2.18s CPU      2.22s WALL (      21 calls)
     sum_band     :      1.53s CPU      1.57s WALL (      21 calls)
     v_of_rho     :      1.36s CPU      1.38s WALL (      22 calls)
     newd         :      0.65s CPU      0.66s WALL (      22 calls)
     mix_rho      :      0.85s CPU      1.47s WALL (      21 calls)

     Called by c_bands:
     init_us_2    :      0.06s CPU      0.06s WALL (      43 calls)
     cegterg      :      2.12s CPU      2.14s WALL (      21 calls)

     Called by sum_band:
     sum_band:bec :      0.00s CPU      0.00s WALL (      21 calls)
     addusdens    :      0.83s CPU      0.85s WALL (      21 calls)

     Called by *egterg:
     h_psi        :      1.98s CPU      2.00s WALL (      81 calls)
     s_psi        :      0.01s CPU      0.01s WALL (      81 calls)
     g_psi        :      0.01s CPU      0.01s WALL (      59 calls)
     cdiaghg      :      0.02s CPU      0.02s WALL (      80 calls)

     Called by h_psi:
     h_psi:pot    :      1.96s CPU      1.98s WALL (      81 calls)
     h_psi:calbec :      0.06s CPU      0.06s WALL (      81 calls)
     vloc_psi     :      1.89s CPU      1.90s WALL (      81 calls)
     add_vuspsi   :      0.02s CPU      0.02s WALL (      81 calls)

     General routines
     calbec       :      0.08s CPU      0.08s WALL (     102 calls)
     fft          :      1.23s CPU      1.27s WALL (     285 calls)
     fftw         :      1.96s CPU      1.99s WALL (    1012 calls)
     davcio       :      0.12s CPU      0.64s WALL (     327 calls)
 
     Parallel routines
     fft_scatt_xy :      0.40s CPU      0.40s WALL (    1297 calls)
     fft_scatt_yz :      0.98s CPU      1.02s WALL (    1297 calls)
 
     PWSCF        :     7.92s CPU         9.31s WALL

 
   This run was terminated on:   5:30:21  12May2018            

=------------------------------------------------------------------------------=
   JOB DONE.
=------------------------------------------------------------------------------=
