
     Program PWSCF v.6.2 (svn rev. 14038) starts on 12May2018 at  5:30:22 

     This program is part of the open-source Quantum ESPRESSO suite
     for quantum simulation of materials; please cite
         "P. Giannozzi et al., J. Phys.:Condens. Matter 21 395502 (2009);
         "P. Giannozzi et al., J. Phys.:Condens. Matter 29 465901 (2017);
          URL http://www.quantum-espresso.org", 
     in publications or presentations arising from this work. More details at
     http://www.quantum-espresso.org/quote

     Parallel version (MPI), running on    28 processors

     MPI processes distributed on     1 nodes
     R & G space division:  proc/nbgrp/npool/nimage =      28
     Reading input from ../ecut90/23500.in
Warning: card &IONS ignored
Warning: card     POT_EXTRAPOLATION='SECOND-ORDER' ignored
Warning: card     WFC_EXTRAPOLATION='SECOND-ORDER' ignored
Warning: card     ION_TEMPERATURE = 'ANDERSEN' ignored
Warning: card / ignored

     Current dimensions of program PWSCF are:
     Max number of different atomic species (ntypx) = 10
     Max number of k-points (npk) =  40000
     Max angular momentum in pseudopotentials (lmaxx) =  3

     Subspace diagonalization in iterative solution of the eigenvalue problem:
     a serial algorithm will be used

 
     Parallelization info
     --------------------
     sticks:   dense  smooth     PW     G-vecs:    dense   smooth      PW
     Min         408     408    102                32936    32936    4116
     Max         409     409    103                32943    32943    4121
     Sum       11449   11449   2869               922329   922329  115313
 


     bravais-lattice index     =            1
     lattice parameter (alat)  =      20.0000  a.u.
     unit-cell volume          =    8000.0000 (a.u.)^3
     number of atoms/cell      =            3
     number of atomic types    =            2
     number of electrons       =         8.00
     number of Kohn-Sham states=            8
     kinetic-energy cutoff     =      90.0000  Ry
     charge density cutoff     =     360.0000  Ry
     convergence threshold     =      1.0E-08
     mixing beta               =       0.7000
     number of iterations used =            8  plain     mixing
     Exchange-correlation      = PBE ( 1  4  3  4 0 0)

     celldm(1)=  20.000000  celldm(2)=   0.000000  celldm(3)=   0.000000
     celldm(4)=   0.000000  celldm(5)=   0.000000  celldm(6)=   0.000000

     crystal axes: (cart. coord. in units of alat)
               a(1) = (   1.000000   0.000000   0.000000 )  
               a(2) = (   0.000000   1.000000   0.000000 )  
               a(3) = (   0.000000   0.000000   1.000000 )  

     reciprocal axes: (cart. coord. in units 2 pi/alat)
               b(1) = (  1.000000  0.000000  0.000000 )  
               b(2) = (  0.000000  1.000000  0.000000 )  
               b(3) = (  0.000000  0.000000  1.000000 )  


     PseudoPot. # 1 for H  read from file:
     ../pslibrary/pbe/PSEUDOPOTENTIALS/H.pbe-rrkjus_psl.1.0.0.UPF
     MD5 check sum: b2b1ff84b4ceabe23335d1bf25025923
     Pseudo is Ultrasoft, Zval =  1.0
     Generated using "atomic" code by A. Dal Corso v.6.2 svn rev. 14038
     Using radial grid of  929 points,  2 beta functions with: 
                l(1) =   0
                l(2) =   0
     Q(r) pseudized with 0 coefficients 


     PseudoPot. # 2 for O  read from file:
     ../pslibrary/pbe/PSEUDOPOTENTIALS/O.pbe-n-rrkjus_psl.1.0.0.UPF
     MD5 check sum: 61455b21a47f6823f888c3bfb9bd1235
     Pseudo is Ultrasoft + core correction, Zval =  6.0
     Generated using "atomic" code by A. Dal Corso v.6.2 svn rev. 14038
     Using radial grid of 1095 points,  4 beta functions with: 
                l(1) =   0
                l(2) =   0
                l(3) =   1
                l(4) =   1
     Q(r) pseudized with 0 coefficients 


     atomic species   valence    mass     pseudopotential
        H              1.00     1.01000     H ( 1.00)
        O              6.00    16.00000     O ( 1.00)

     No symmetry found



   Cartesian axes

     site n.     atom                  positions (alat units)
         1           O   tau(   1) = (  -0.0092488  -0.0049356   0.0055891  )
         2           H   tau(   2) = (   0.0394755   0.0558817  -0.0480239  )
         3           H   tau(   3) = (   0.1070402   0.0223056   0.0478468  )

     number of k points=     1  Marzari-Vanderbilt smearing, width (Ry)=  0.0250
                       cart. coord. in units 2pi/alat
        k(    1) = (   0.0000000   0.0000000   0.0000000), wk =   2.0000000

     Dense  grid:   922329 G-vectors     FFT dimensions: ( 125, 125, 125)

     Estimated max dynamical RAM per process >      38.67 MB

     Estimated total dynamical RAM >       1.06 GB

     Initial potential from superposition of free atoms
     Check: negative starting charge=   -0.001648

     starting charge    7.99998, renormalised to    8.00000

     negative rho (up, down):  1.648E-03 0.000E+00
     Starting wfc are    6 randomized atomic wfcs +    2 random wfc

     total cpu time spent up to now is        1.5 secs

     Self-consistent Calculation

     iteration #  1     ecut=    90.00 Ry     beta= 0.70
     Davidson diagonalization with overlap
     ethr =  1.00E-02,  avg # of iterations =  7.0

     negative rho (up, down):  2.387E-03 0.000E+00

     total cpu time spent up to now is        2.0 secs

     total energy              =     -34.39339758 Ry
     Harris-Foulkes estimate   =     -34.74165722 Ry
     estimated scf accuracy    <       0.46625804 Ry

     iteration #  2     ecut=    90.00 Ry     beta= 0.70
     Davidson diagonalization with overlap
     ethr =  5.83E-03,  avg # of iterations =  3.0

     negative rho (up, down):  1.958E-03 0.000E+00

     total cpu time spent up to now is        2.3 secs

     total energy              =     -34.37572741 Ry
     Harris-Foulkes estimate   =     -34.89571632 Ry
     estimated scf accuracy    <       1.38435374 Ry

     iteration #  3     ecut=    90.00 Ry     beta= 0.70
     Davidson diagonalization with overlap
     ethr =  5.83E-03,  avg # of iterations =  3.0

     negative rho (up, down):  1.428E-03 0.000E+00

     total cpu time spent up to now is        2.7 secs

     total energy              =     -34.53805919 Ry
     Harris-Foulkes estimate   =     -34.55297713 Ry
     estimated scf accuracy    <       0.05240416 Ry

     iteration #  4     ecut=    90.00 Ry     beta= 0.70
     Davidson diagonalization with overlap
     ethr =  6.55E-04,  avg # of iterations =  3.0

     negative rho (up, down):  1.625E-03 0.000E+00

     total cpu time spent up to now is        3.0 secs

     total energy              =     -34.62192506 Ry
     Harris-Foulkes estimate   =     -34.63335721 Ry
     estimated scf accuracy    <       0.05031386 Ry

     iteration #  5     ecut=    90.00 Ry     beta= 0.70
     Davidson diagonalization with overlap
     ethr =  6.29E-04,  avg # of iterations =  1.0

     negative rho (up, down):  1.723E-03 0.000E+00

     total cpu time spent up to now is        3.3 secs

     total energy              =     -34.62059578 Ry
     Harris-Foulkes estimate   =     -34.62336026 Ry
     estimated scf accuracy    <       0.02015342 Ry

     iteration #  6     ecut=    90.00 Ry     beta= 0.70
     Davidson diagonalization with overlap
     ethr =  2.52E-04,  avg # of iterations =  3.0

     negative rho (up, down):  1.800E-03 0.000E+00

     total cpu time spent up to now is        3.6 secs

     total energy              =     -34.62036057 Ry
     Harris-Foulkes estimate   =     -34.62142991 Ry
     estimated scf accuracy    <       0.01036031 Ry

     iteration #  7     ecut=    90.00 Ry     beta= 0.70
     Davidson diagonalization with overlap
     ethr =  1.30E-04,  avg # of iterations =  2.0

     negative rho (up, down):  1.889E-03 0.000E+00

     total cpu time spent up to now is        4.0 secs

     total energy              =     -34.61997769 Ry
     Harris-Foulkes estimate   =     -34.62071453 Ry
     estimated scf accuracy    <       0.00615233 Ry

     iteration #  8     ecut=    90.00 Ry     beta= 0.70
     Davidson diagonalization with overlap
     ethr =  7.69E-05,  avg # of iterations =  3.0

     negative rho (up, down):  1.909E-03 0.000E+00

     total cpu time spent up to now is        4.3 secs

     total energy              =     -34.62147797 Ry
     Harris-Foulkes estimate   =     -34.62122662 Ry
     estimated scf accuracy    <       0.00089612 Ry

     iteration #  9     ecut=    90.00 Ry     beta= 0.70
     Davidson diagonalization with overlap
     ethr =  1.12E-05,  avg # of iterations = 13.0

     negative rho (up, down):  2.227E-03 0.000E+00

     total cpu time spent up to now is        4.8 secs

     total energy              =     -34.62198007 Ry
     Harris-Foulkes estimate   =     -34.62153410 Ry
     estimated scf accuracy    <       0.00186997 Ry

     iteration # 10     ecut=    90.00 Ry     beta= 0.70
     Davidson diagonalization with overlap
     ethr =  1.12E-05,  avg # of iterations =  1.0

     negative rho (up, down):  2.348E-03 0.000E+00

     total cpu time spent up to now is        5.1 secs

     total energy              =     -34.62154933 Ry
     Harris-Foulkes estimate   =     -34.62203779 Ry
     estimated scf accuracy    <       0.00324678 Ry

     iteration # 11     ecut=    90.00 Ry     beta= 0.70
     Davidson diagonalization with overlap
     ethr =  1.12E-05,  avg # of iterations =  1.0

     negative rho (up, down):  2.243E-03 0.000E+00

     total cpu time spent up to now is        5.4 secs

     total energy              =     -34.62095897 Ry
     Harris-Foulkes estimate   =     -34.62158671 Ry
     estimated scf accuracy    <       0.00195450 Ry

     iteration # 12     ecut=    90.00 Ry     beta= 0.70
     Davidson diagonalization with overlap
     ethr =  1.12E-05,  avg # of iterations =  3.0

     negative rho (up, down):  2.297E-03 0.000E+00

     total cpu time spent up to now is        5.8 secs

     total energy              =     -34.62115156 Ry
     Harris-Foulkes estimate   =     -34.62110324 Ry
     estimated scf accuracy    <       0.00025713 Ry

     iteration # 13     ecut=    90.00 Ry     beta= 0.70
     Davidson diagonalization with overlap
     ethr =  3.21E-06,  avg # of iterations =  1.0

     negative rho (up, down):  2.294E-03 0.000E+00

     total cpu time spent up to now is        6.1 secs

     total energy              =     -34.62114210 Ry
     Harris-Foulkes estimate   =     -34.62115888 Ry
     estimated scf accuracy    <       0.00038522 Ry

     iteration # 14     ecut=    90.00 Ry     beta= 0.70
     Davidson diagonalization with overlap
     ethr =  3.21E-06,  avg # of iterations =  2.0

     negative rho (up, down):  2.306E-03 0.000E+00

     total cpu time spent up to now is        6.5 secs

     total energy              =     -34.62123602 Ry
     Harris-Foulkes estimate   =     -34.62117046 Ry
     estimated scf accuracy    <       0.00021616 Ry

     iteration # 15     ecut=    90.00 Ry     beta= 0.70
     Davidson diagonalization with overlap
     ethr =  2.70E-06,  avg # of iterations =  1.0

     negative rho (up, down):  2.261E-03 0.000E+00

     total cpu time spent up to now is        6.8 secs

     total energy              =     -34.62110470 Ry
     Harris-Foulkes estimate   =     -34.62124214 Ry
     estimated scf accuracy    <       0.00041643 Ry

     iteration # 16     ecut=    90.00 Ry     beta= 0.70
     Davidson diagonalization with overlap
     ethr =  2.70E-06,  avg # of iterations =  1.0

     negative rho (up, down):  2.245E-03 0.000E+00

     total cpu time spent up to now is        7.1 secs

     total energy              =     -34.62107028 Ry
     Harris-Foulkes estimate   =     -34.62112415 Ry
     estimated scf accuracy    <       0.00009515 Ry

     iteration # 17     ecut=    90.00 Ry     beta= 0.70
     Davidson diagonalization with overlap
     ethr =  1.19E-06,  avg # of iterations =  3.0

     negative rho (up, down):  2.256E-03 0.000E+00

     total cpu time spent up to now is        7.5 secs

     total energy              =     -34.62111502 Ry
     Harris-Foulkes estimate   =     -34.62113104 Ry
     estimated scf accuracy    <       0.00007266 Ry

     iteration # 18     ecut=    90.00 Ry     beta= 0.70
     Davidson diagonalization with overlap
     ethr =  9.08E-07,  avg # of iterations =  1.0

     negative rho (up, down):  2.261E-03 0.000E+00

     total cpu time spent up to now is        7.9 secs

     total energy              =     -34.62110495 Ry
     Harris-Foulkes estimate   =     -34.62111636 Ry
     estimated scf accuracy    <       0.00003411 Ry

     iteration # 19     ecut=    90.00 Ry     beta= 0.70
     Davidson diagonalization with overlap
     ethr =  4.26E-07,  avg # of iterations =  3.0

     negative rho (up, down):  2.257E-03 0.000E+00

     total cpu time spent up to now is        8.2 secs

     total energy              =     -34.62111142 Ry
     Harris-Foulkes estimate   =     -34.62111112 Ry
     estimated scf accuracy    <       0.00000353 Ry

     iteration # 20     ecut=    90.00 Ry     beta= 0.70
     Davidson diagonalization with overlap
     ethr =  4.41E-08,  avg # of iterations =  3.0

     negative rho (up, down):  2.258E-03 0.000E+00

     total cpu time spent up to now is        8.6 secs

     total energy              =     -34.62111323 Ry
     Harris-Foulkes estimate   =     -34.62111348 Ry
     estimated scf accuracy    <       0.00000250 Ry

     iteration # 21     ecut=    90.00 Ry     beta= 0.70
     Davidson diagonalization with overlap
     ethr =  3.12E-08,  avg # of iterations =  1.0

     negative rho (up, down):  2.257E-03 0.000E+00

     total cpu time spent up to now is        8.9 secs

     total energy              =     -34.62111351 Ry
     Harris-Foulkes estimate   =     -34.62111326 Ry
     estimated scf accuracy    <       0.00000192 Ry

     iteration # 22     ecut=    90.00 Ry     beta= 0.70
     Davidson diagonalization with overlap
     ethr =  2.40E-08,  avg # of iterations =  1.0

     negative rho (up, down):  2.258E-03 0.000E+00

     total cpu time spent up to now is        9.2 secs

     total energy              =     -34.62111388 Ry
     Harris-Foulkes estimate   =     -34.62111362 Ry
     estimated scf accuracy    <       0.00000294 Ry

     iteration # 23     ecut=    90.00 Ry     beta= 0.70
     Davidson diagonalization with overlap
     ethr =  2.40E-08,  avg # of iterations =  3.0

     negative rho (up, down):  2.254E-03 0.000E+00

     total cpu time spent up to now is        9.6 secs

     total energy              =     -34.62111483 Ry
     Harris-Foulkes estimate   =     -34.62111440 Ry
     estimated scf accuracy    <       0.00000604 Ry

     iteration # 24     ecut=    90.00 Ry     beta= 0.70
     Davidson diagonalization with overlap
     ethr =  2.40E-08,  avg # of iterations =  1.0

     negative rho (up, down):  2.254E-03 0.000E+00

     total cpu time spent up to now is        9.9 secs

     total energy              =     -34.62111399 Ry
     Harris-Foulkes estimate   =     -34.62111486 Ry
     estimated scf accuracy    <       0.00000727 Ry

     iteration # 25     ecut=    90.00 Ry     beta= 0.70
     Davidson diagonalization with overlap
     ethr =  2.40E-08,  avg # of iterations =  1.0

     negative rho (up, down):  2.259E-03 0.000E+00

     total cpu time spent up to now is       10.2 secs

     total energy              =     -34.62111170 Ry
     Harris-Foulkes estimate   =     -34.62111402 Ry
     estimated scf accuracy    <       0.00000506 Ry

     iteration # 26     ecut=    90.00 Ry     beta= 0.70
     Davidson diagonalization with overlap
     ethr =  2.40E-08,  avg # of iterations =  3.0

     negative rho (up, down):  2.262E-03 0.000E+00

     total cpu time spent up to now is       10.6 secs

     total energy              =     -34.62111277 Ry
     Harris-Foulkes estimate   =     -34.62111267 Ry
     estimated scf accuracy    <       0.00000012 Ry

     iteration # 27     ecut=    90.00 Ry     beta= 0.70
     Davidson diagonalization with overlap
     ethr =  1.56E-09,  avg # of iterations =  4.0

     negative rho (up, down):  2.259E-03 0.000E+00

     total cpu time spent up to now is       11.0 secs

     total energy              =     -34.62111261 Ry
     Harris-Foulkes estimate   =     -34.62111339 Ry
     estimated scf accuracy    <       0.00000223 Ry

     iteration # 28     ecut=    90.00 Ry     beta= 0.70
     Davidson diagonalization with overlap
     ethr =  1.56E-09,  avg # of iterations =  3.0

     negative rho (up, down):  2.259E-03 0.000E+00

     total cpu time spent up to now is       11.3 secs

     total energy              =     -34.62111283 Ry
     Harris-Foulkes estimate   =     -34.62111285 Ry
     estimated scf accuracy    <       0.00000007 Ry

     iteration # 29     ecut=    90.00 Ry     beta= 0.70
     Davidson diagonalization with overlap
     ethr =  8.33E-10,  avg # of iterations =  1.0

     negative rho (up, down):  2.259E-03 0.000E+00

     total cpu time spent up to now is       11.6 secs

     End of self-consistent calculation

          k = 0.0000 0.0000 0.0000 (115313 PWs)   bands (ev):

   -24.3768 -11.0552  -9.6490  -7.0339  -2.8454  -0.1910   0.4049   0.8768

     the Fermi energy is    -5.0965 ev

!    total energy              =     -34.62111283 Ry
     Harris-Foulkes estimate   =     -34.62111284 Ry
     estimated scf accuracy    <          8.5E-09 Ry

     The total energy is the sum of the following terms:

     one-electron contribution =     -60.81096159 Ry
     hartree contribution      =      31.91956777 Ry
     xc contribution           =      -8.58370715 Ry
     ewald contribution        =       2.85398814 Ry
     smearing contrib. (-TS)   =       0.00000000 Ry

     convergence has been achieved in  29 iterations

     Writing output data file pwscf.save
 
     init_run     :      0.66s CPU      0.73s WALL (       1 calls)
     electrons    :      8.86s CPU     10.14s WALL (       1 calls)

     Called by init_run:
     wfcinit      :      0.08s CPU      0.11s WALL (       1 calls)
     potinit      :      0.11s CPU      0.12s WALL (       1 calls)

     Called by electrons:
     c_bands      :      2.88s CPU      2.93s WALL (      29 calls)
     sum_band     :      2.06s CPU      2.10s WALL (      29 calls)
     v_of_rho     :      1.83s CPU      1.87s WALL (      30 calls)
     newd         :      0.88s CPU      0.90s WALL (      30 calls)
     mix_rho      :      1.21s CPU      2.18s WALL (      29 calls)

     Called by c_bands:
     init_us_2    :      0.08s CPU      0.08s WALL (      59 calls)
     cegterg      :      2.79s CPU      2.82s WALL (      29 calls)

     Called by sum_band:
     sum_band:bec :      0.00s CPU      0.00s WALL (      29 calls)
     addusdens    :      1.11s CPU      1.12s WALL (      29 calls)

     Called by *egterg:
     h_psi        :      2.57s CPU      2.60s WALL (     106 calls)
     s_psi        :      0.02s CPU      0.02s WALL (     106 calls)
     g_psi        :      0.01s CPU      0.01s WALL (      76 calls)
     cdiaghg      :      0.02s CPU      0.02s WALL (     105 calls)

     Called by h_psi:
     h_psi:pot    :      2.55s CPU      2.58s WALL (     106 calls)
     h_psi:calbec :      0.06s CPU      0.07s WALL (     106 calls)
     vloc_psi     :      2.46s CPU      2.49s WALL (     106 calls)
     add_vuspsi   :      0.02s CPU      0.02s WALL (     106 calls)

     General routines
     calbec       :      0.08s CPU      0.09s WALL (     135 calls)
     fft          :      1.59s CPU      1.62s WALL (     389 calls)
     fftw         :      2.57s CPU      2.61s WALL (    1370 calls)
     davcio       :      0.19s CPU      0.98s WALL (     487 calls)
 
     Parallel routines
     fft_scatt_xy :      0.53s CPU      0.53s WALL (    1759 calls)
     fft_scatt_yz :      1.13s CPU      1.17s WALL (    1759 calls)
 
     PWSCF        :    10.12s CPU        12.11s WALL

 
   This run was terminated on:   5:30:34  12May2018            

=------------------------------------------------------------------------------=
   JOB DONE.
=------------------------------------------------------------------------------=
