
     Program PWSCF v.6.2 (svn rev. 14038) starts on 12May2018 at  5:30:47 

     This program is part of the open-source Quantum ESPRESSO suite
     for quantum simulation of materials; please cite
         "P. Giannozzi et al., J. Phys.:Condens. Matter 21 395502 (2009);
         "P. Giannozzi et al., J. Phys.:Condens. Matter 29 465901 (2017);
          URL http://www.quantum-espresso.org", 
     in publications or presentations arising from this work. More details at
     http://www.quantum-espresso.org/quote

     Parallel version (MPI), running on    28 processors

     MPI processes distributed on     1 nodes
     R & G space division:  proc/nbgrp/npool/nimage =      28
     Reading input from ../ecut90/24500.in
Warning: card &IONS ignored
Warning: card     POT_EXTRAPOLATION='SECOND-ORDER' ignored
Warning: card     WFC_EXTRAPOLATION='SECOND-ORDER' ignored
Warning: card     ION_TEMPERATURE = 'ANDERSEN' ignored
Warning: card / ignored

     Current dimensions of program PWSCF are:
     Max number of different atomic species (ntypx) = 10
     Max number of k-points (npk) =  40000
     Max angular momentum in pseudopotentials (lmaxx) =  3

     Subspace diagonalization in iterative solution of the eigenvalue problem:
     a serial algorithm will be used

 
     Parallelization info
     --------------------
     sticks:   dense  smooth     PW     G-vecs:    dense   smooth      PW
     Min         408     408    102                32936    32936    4116
     Max         409     409    103                32943    32943    4121
     Sum       11449   11449   2869               922329   922329  115313
 


     bravais-lattice index     =            1
     lattice parameter (alat)  =      20.0000  a.u.
     unit-cell volume          =    8000.0000 (a.u.)^3
     number of atoms/cell      =            3
     number of atomic types    =            2
     number of electrons       =         8.00
     number of Kohn-Sham states=            8
     kinetic-energy cutoff     =      90.0000  Ry
     charge density cutoff     =     360.0000  Ry
     convergence threshold     =      1.0E-08
     mixing beta               =       0.7000
     number of iterations used =            8  plain     mixing
     Exchange-correlation      = PBE ( 1  4  3  4 0 0)

     celldm(1)=  20.000000  celldm(2)=   0.000000  celldm(3)=   0.000000
     celldm(4)=   0.000000  celldm(5)=   0.000000  celldm(6)=   0.000000

     crystal axes: (cart. coord. in units of alat)
               a(1) = (   1.000000   0.000000   0.000000 )  
               a(2) = (   0.000000   1.000000   0.000000 )  
               a(3) = (   0.000000   0.000000   1.000000 )  

     reciprocal axes: (cart. coord. in units 2 pi/alat)
               b(1) = (  1.000000  0.000000  0.000000 )  
               b(2) = (  0.000000  1.000000  0.000000 )  
               b(3) = (  0.000000  0.000000  1.000000 )  


     PseudoPot. # 1 for H  read from file:
     ../pslibrary/pbe/PSEUDOPOTENTIALS/H.pbe-rrkjus_psl.1.0.0.UPF
     MD5 check sum: b2b1ff84b4ceabe23335d1bf25025923
     Pseudo is Ultrasoft, Zval =  1.0
     Generated using "atomic" code by A. Dal Corso v.6.2 svn rev. 14038
     Using radial grid of  929 points,  2 beta functions with: 
                l(1) =   0
                l(2) =   0
     Q(r) pseudized with 0 coefficients 


     PseudoPot. # 2 for O  read from file:
     ../pslibrary/pbe/PSEUDOPOTENTIALS/O.pbe-n-rrkjus_psl.1.0.0.UPF
     MD5 check sum: 61455b21a47f6823f888c3bfb9bd1235
     Pseudo is Ultrasoft + core correction, Zval =  6.0
     Generated using "atomic" code by A. Dal Corso v.6.2 svn rev. 14038
     Using radial grid of 1095 points,  4 beta functions with: 
                l(1) =   0
                l(2) =   0
                l(3) =   1
                l(4) =   1
     Q(r) pseudized with 0 coefficients 


     atomic species   valence    mass     pseudopotential
        H              1.00     1.01000     H ( 1.00)
        O              6.00    16.00000     O ( 1.00)

     No symmetry found



   Cartesian axes

     site n.     atom                  positions (alat units)
         1           O   tau(   1) = (  -0.0064498  -0.0002381   0.0072615  )
         2           H   tau(   2) = (   0.0334222  -0.0191243  -0.0796802  )
         3           H   tau(   3) = (   0.0687527   0.0228968   0.0530105  )

     number of k points=     1  Marzari-Vanderbilt smearing, width (Ry)=  0.0250
                       cart. coord. in units 2pi/alat
        k(    1) = (   0.0000000   0.0000000   0.0000000), wk =   2.0000000

     Dense  grid:   922329 G-vectors     FFT dimensions: ( 125, 125, 125)

     Estimated max dynamical RAM per process >      38.67 MB

     Estimated total dynamical RAM >       1.06 GB

     Initial potential from superposition of free atoms
     Check: negative starting charge=   -0.001634

     starting charge    7.99998, renormalised to    8.00000

     negative rho (up, down):  1.634E-03 0.000E+00
     Starting wfc are    6 randomized atomic wfcs +    2 random wfc

     total cpu time spent up to now is        1.5 secs

     Self-consistent Calculation

     iteration #  1     ecut=    90.00 Ry     beta= 0.70
     Davidson diagonalization with overlap
     ethr =  1.00E-02,  avg # of iterations =  7.0

     negative rho (up, down):  2.485E-03 0.000E+00

     total cpu time spent up to now is        2.0 secs

     total energy              =     -34.58434483 Ry
     Harris-Foulkes estimate   =     -34.91572759 Ry
     estimated scf accuracy    <       0.45002529 Ry

     iteration #  2     ecut=    90.00 Ry     beta= 0.70
     Davidson diagonalization with overlap
     ethr =  5.63E-03,  avg # of iterations =  3.0

     negative rho (up, down):  2.133E-03 0.000E+00

     total cpu time spent up to now is        2.3 secs

     total energy              =     -34.65066482 Ry
     Harris-Foulkes estimate   =     -34.91739952 Ry
     estimated scf accuracy    <       0.57933212 Ry

     iteration #  3     ecut=    90.00 Ry     beta= 0.70
     Davidson diagonalization with overlap
     ethr =  5.63E-03,  avg # of iterations =  1.0

     negative rho (up, down):  1.462E-03 0.000E+00

     total cpu time spent up to now is        2.7 secs

     total energy              =     -34.65074867 Ry
     Harris-Foulkes estimate   =     -34.70658023 Ry
     estimated scf accuracy    <       0.08230766 Ry

     iteration #  4     ecut=    90.00 Ry     beta= 0.70
     Davidson diagonalization with overlap
     ethr =  1.03E-03,  avg # of iterations =  3.0

     negative rho (up, down):  1.292E-03 0.000E+00

     total cpu time spent up to now is        3.0 secs

     total energy              =     -34.76760592 Ry
     Harris-Foulkes estimate   =     -34.86940537 Ry
     estimated scf accuracy    <       0.32696832 Ry

     iteration #  5     ecut=    90.00 Ry     beta= 0.70
     Davidson diagonalization with overlap
     ethr =  1.03E-03,  avg # of iterations =  1.0

     negative rho (up, down):  1.295E-03 0.000E+00

     total cpu time spent up to now is        3.3 secs

     total energy              =     -34.76381262 Ry
     Harris-Foulkes estimate   =     -34.77746764 Ry
     estimated scf accuracy    <       0.12362509 Ry

     iteration #  6     ecut=    90.00 Ry     beta= 0.70
     Davidson diagonalization with overlap
     ethr =  1.03E-03,  avg # of iterations =  3.0

     negative rho (up, down):  1.365E-03 0.000E+00

     total cpu time spent up to now is        3.7 secs

     total energy              =     -34.77872742 Ry
     Harris-Foulkes estimate   =     -34.77932307 Ry
     estimated scf accuracy    <       0.03491881 Ry

     iteration #  7     ecut=    90.00 Ry     beta= 0.70
     Davidson diagonalization with overlap
     ethr =  4.36E-04,  avg # of iterations =  1.0

     negative rho (up, down):  1.466E-03 0.000E+00

     total cpu time spent up to now is        4.0 secs

     total energy              =     -34.78516369 Ry
     Harris-Foulkes estimate   =     -34.77968413 Ry
     estimated scf accuracy    <       0.03073551 Ry

     iteration #  8     ecut=    90.00 Ry     beta= 0.70
     Davidson diagonalization with overlap
     ethr =  3.84E-04,  avg # of iterations =  1.0

     negative rho (up, down):  2.198E-03 0.000E+00

     total cpu time spent up to now is        4.3 secs

     total energy              =     -34.78656759 Ry
     Harris-Foulkes estimate   =     -34.78579194 Ry
     estimated scf accuracy    <       0.04284594 Ry

     iteration #  9     ecut=    90.00 Ry     beta= 0.70
     Davidson diagonalization with overlap
     ethr =  3.84E-04,  avg # of iterations =  1.0

     negative rho (up, down):  2.813E-03 0.000E+00

     total cpu time spent up to now is        4.7 secs

     total energy              =     -34.78865848 Ry
     Harris-Foulkes estimate   =     -34.78729450 Ry
     estimated scf accuracy    <       0.04653482 Ry

     iteration # 10     ecut=    90.00 Ry     beta= 0.70
     Davidson diagonalization with overlap
     ethr =  3.84E-04,  avg # of iterations =  1.0

     negative rho (up, down):  3.383E-03 0.000E+00

     total cpu time spent up to now is        5.0 secs

     total energy              =     -34.78126923 Ry
     Harris-Foulkes estimate   =     -34.78882291 Ry
     estimated scf accuracy    <       0.05087940 Ry

     iteration # 11     ecut=    90.00 Ry     beta= 0.70
     Davidson diagonalization with overlap
     ethr =  3.84E-04,  avg # of iterations =  1.0

     negative rho (up, down):  2.987E-03 0.000E+00

     total cpu time spent up to now is        5.3 secs

     total energy              =     -34.77546006 Ry
     Harris-Foulkes estimate   =     -34.78173060 Ry
     estimated scf accuracy    <       0.03445648 Ry

     iteration # 12     ecut=    90.00 Ry     beta= 0.70
     Davidson diagonalization with overlap
     ethr =  3.84E-04,  avg # of iterations =  2.0

     negative rho (up, down):  3.005E-03 0.000E+00

     total cpu time spent up to now is        5.7 secs

     total energy              =     -34.77639283 Ry
     Harris-Foulkes estimate   =     -34.77766950 Ry
     estimated scf accuracy    <       0.01299012 Ry

     iteration # 13     ecut=    90.00 Ry     beta= 0.70
     Davidson diagonalization with overlap
     ethr =  1.62E-04,  avg # of iterations =  1.0

     negative rho (up, down):  3.074E-03 0.000E+00

     total cpu time spent up to now is        6.0 secs

     total energy              =     -34.77754115 Ry
     Harris-Foulkes estimate   =     -34.77670927 Ry
     estimated scf accuracy    <       0.00919562 Ry

     iteration # 14     ecut=    90.00 Ry     beta= 0.70
     Davidson diagonalization with overlap
     ethr =  1.15E-04,  avg # of iterations =  1.0

     negative rho (up, down):  2.169E-03 0.000E+00

     total cpu time spent up to now is        6.3 secs

     total energy              =     -34.77048428 Ry
     Harris-Foulkes estimate   =     -34.77775889 Ry
     estimated scf accuracy    <       0.01014154 Ry

     iteration # 15     ecut=    90.00 Ry     beta= 0.70
     Davidson diagonalization with overlap
     ethr =  1.15E-04,  avg # of iterations =  3.0

     negative rho (up, down):  2.275E-03 0.000E+00

     total cpu time spent up to now is        6.7 secs

     total energy              =     -34.76942836 Ry
     Harris-Foulkes estimate   =     -34.77666496 Ry
     estimated scf accuracy    <       0.01728990 Ry

     iteration # 16     ecut=    90.00 Ry     beta= 0.70
     Davidson diagonalization with overlap
     ethr =  1.15E-04,  avg # of iterations =  3.0

     negative rho (up, down):  2.268E-03 0.000E+00

     total cpu time spent up to now is        7.1 secs

     total energy              =     -34.77449126 Ry
     Harris-Foulkes estimate   =     -34.77500767 Ry
     estimated scf accuracy    <       0.00222549 Ry

     iteration # 17     ecut=    90.00 Ry     beta= 0.70
     Davidson diagonalization with overlap
     ethr =  2.78E-05,  avg # of iterations =  9.0

     negative rho (up, down):  2.386E-03 0.000E+00

     total cpu time spent up to now is        7.5 secs

     total energy              =     -34.77624479 Ry
     Harris-Foulkes estimate   =     -34.77620995 Ry
     estimated scf accuracy    <       0.00013502 Ry

     iteration # 18     ecut=    90.00 Ry     beta= 0.70
     Davidson diagonalization with overlap
     ethr =  1.69E-06,  avg # of iterations = 12.0

     negative rho (up, down):  2.429E-03 0.000E+00

     total cpu time spent up to now is        7.9 secs

     total energy              =     -34.77617713 Ry
     Harris-Foulkes estimate   =     -34.77627874 Ry
     estimated scf accuracy    <       0.00035120 Ry

     iteration # 19     ecut=    90.00 Ry     beta= 0.70
     Davidson diagonalization with overlap
     ethr =  1.69E-06,  avg # of iterations =  1.0

     negative rho (up, down):  2.449E-03 0.000E+00

     total cpu time spent up to now is        8.3 secs

     total energy              =     -34.77614180 Ry
     Harris-Foulkes estimate   =     -34.77618857 Ry
     estimated scf accuracy    <       0.00013173 Ry

     iteration # 20     ecut=    90.00 Ry     beta= 0.70
     Davidson diagonalization with overlap
     ethr =  1.65E-06,  avg # of iterations =  3.0

     negative rho (up, down):  2.469E-03 0.000E+00

     total cpu time spent up to now is        8.6 secs

     total energy              =     -34.77617685 Ry
     Harris-Foulkes estimate   =     -34.77617700 Ry
     estimated scf accuracy    <       0.00001155 Ry

     iteration # 21     ecut=    90.00 Ry     beta= 0.70
     Davidson diagonalization with overlap
     ethr =  1.44E-07,  avg # of iterations =  3.0

     negative rho (up, down):  2.476E-03 0.000E+00

     total cpu time spent up to now is        9.0 secs

     total energy              =     -34.77618748 Ry
     Harris-Foulkes estimate   =     -34.77618602 Ry
     estimated scf accuracy    <       0.00004350 Ry

     iteration # 22     ecut=    90.00 Ry     beta= 0.70
     Davidson diagonalization with overlap
     ethr =  1.44E-07,  avg # of iterations =  1.0

     negative rho (up, down):  2.447E-03 0.000E+00

     total cpu time spent up to now is        9.3 secs

     total energy              =     -34.77617452 Ry
     Harris-Foulkes estimate   =     -34.77618766 Ry
     estimated scf accuracy    <       0.00004635 Ry

     iteration # 23     ecut=    90.00 Ry     beta= 0.70
     Davidson diagonalization with overlap
     ethr =  1.44E-07,  avg # of iterations =  1.0

     negative rho (up, down):  2.448E-03 0.000E+00

     total cpu time spent up to now is        9.7 secs

     total energy              =     -34.77617233 Ry
     Harris-Foulkes estimate   =     -34.77617554 Ry
     estimated scf accuracy    <       0.00001889 Ry

     iteration # 24     ecut=    90.00 Ry     beta= 0.70
     Davidson diagonalization with overlap
     ethr =  1.44E-07,  avg # of iterations =  2.0

     negative rho (up, down):  2.447E-03 0.000E+00

     total cpu time spent up to now is       10.0 secs

     total energy              =     -34.77617332 Ry
     Harris-Foulkes estimate   =     -34.77617478 Ry
     estimated scf accuracy    <       0.00000323 Ry

     iteration # 25     ecut=    90.00 Ry     beta= 0.70
     Davidson diagonalization with overlap
     ethr =  4.03E-08,  avg # of iterations =  1.0

     negative rho (up, down):  2.447E-03 0.000E+00

     total cpu time spent up to now is       10.4 secs

     total energy              =     -34.77617348 Ry
     Harris-Foulkes estimate   =     -34.77617362 Ry
     estimated scf accuracy    <       0.00000042 Ry

     iteration # 26     ecut=    90.00 Ry     beta= 0.70
     Davidson diagonalization with overlap
     ethr =  5.31E-09,  avg # of iterations =  4.0

     negative rho (up, down):  2.450E-03 0.000E+00

     total cpu time spent up to now is       10.7 secs

     total energy              =     -34.77617375 Ry
     Harris-Foulkes estimate   =     -34.77617438 Ry
     estimated scf accuracy    <       0.00000080 Ry

     iteration # 27     ecut=    90.00 Ry     beta= 0.70
     Davidson diagonalization with overlap
     ethr =  5.31E-09,  avg # of iterations =  3.0

     negative rho (up, down):  2.451E-03 0.000E+00

     total cpu time spent up to now is       11.1 secs

     total energy              =     -34.77617392 Ry
     Harris-Foulkes estimate   =     -34.77617468 Ry
     estimated scf accuracy    <       0.00000197 Ry

     iteration # 28     ecut=    90.00 Ry     beta= 0.70
     Davidson diagonalization with overlap
     ethr =  5.31E-09,  avg # of iterations =  4.0

     negative rho (up, down):  2.450E-03 0.000E+00

     total cpu time spent up to now is       11.5 secs

     total energy              =     -34.77617410 Ry
     Harris-Foulkes estimate   =     -34.77617413 Ry
     estimated scf accuracy    <       0.00000013 Ry

     iteration # 29     ecut=    90.00 Ry     beta= 0.70
     Davidson diagonalization with overlap
     ethr =  1.57E-09,  avg # of iterations =  3.0

     negative rho (up, down):  2.451E-03 0.000E+00

     total cpu time spent up to now is       11.7 secs

     End of self-consistent calculation

          k = 0.0000 0.0000 0.0000 (115313 PWs)   bands (ev):

   -25.0214 -12.4935  -9.4122  -7.0958  -1.0606   0.2406   0.6030   0.9416

     the Fermi energy is    -5.2090 ev

!    total energy              =     -34.77617416 Ry
     Harris-Foulkes estimate   =     -34.77617416 Ry
     estimated scf accuracy    <          6.2E-09 Ry

     The total energy is the sum of the following terms:

     one-electron contribution =     -63.75746629 Ry
     hartree contribution      =      33.39839103 Ry
     xc contribution           =      -8.80736603 Ry
     ewald contribution        =       4.39026712 Ry
     smearing contrib. (-TS)   =       0.00000000 Ry

     convergence has been achieved in  29 iterations

     Writing output data file pwscf.save
 
     init_run     :      0.68s CPU      0.74s WALL (       1 calls)
     electrons    :      9.13s CPU     10.35s WALL (       1 calls)

     Called by init_run:
     wfcinit      :      0.09s CPU      0.12s WALL (       1 calls)
     potinit      :      0.12s CPU      0.12s WALL (       1 calls)

     Called by electrons:
     c_bands      :      2.99s CPU      3.05s WALL (      29 calls)
     sum_band     :      2.07s CPU      2.11s WALL (      29 calls)
     v_of_rho     :      1.88s CPU      1.91s WALL (      30 calls)
     newd         :      0.89s CPU      0.90s WALL (      30 calls)
     mix_rho      :      1.24s CPU      2.18s WALL (      29 calls)

     Called by c_bands:
     init_us_2    :      0.08s CPU      0.08s WALL (      59 calls)
     cegterg      :      2.90s CPU      2.94s WALL (      29 calls)

     Called by sum_band:
     sum_band:bec :      0.00s CPU      0.00s WALL (      29 calls)
     addusdens    :      1.11s CPU      1.13s WALL (      29 calls)

     Called by *egterg:
     h_psi        :      2.68s CPU      2.72s WALL (     110 calls)
     s_psi        :      0.02s CPU      0.02s WALL (     110 calls)
     g_psi        :      0.01s CPU      0.01s WALL (      80 calls)
     cdiaghg      :      0.02s CPU      0.03s WALL (     109 calls)

     Called by h_psi:
     h_psi:pot    :      2.66s CPU      2.70s WALL (     110 calls)
     h_psi:calbec :      0.08s CPU      0.08s WALL (     110 calls)
     vloc_psi     :      2.57s CPU      2.59s WALL (     110 calls)
     add_vuspsi   :      0.02s CPU      0.02s WALL (     110 calls)

     General routines
     calbec       :      0.10s CPU      0.10s WALL (     139 calls)
     fft          :      1.63s CPU      1.67s WALL (     389 calls)
     fftw         :      2.67s CPU      2.70s WALL (    1414 calls)
     davcio       :      0.19s CPU      0.98s WALL (     487 calls)
 
     Parallel routines
     fft_scatt_xy :      0.52s CPU      0.53s WALL (    1803 calls)
     fft_scatt_yz :      1.29s CPU      1.35s WALL (    1803 calls)
 
     PWSCF        :    10.43s CPU        12.09s WALL

 
   This run was terminated on:   5:30:59  12May2018            

=------------------------------------------------------------------------------=
   JOB DONE.
=------------------------------------------------------------------------------=
