
     Program PWSCF v.6.2 (svn rev. 14038) starts on 12May2018 at  5:22:59 

     This program is part of the open-source Quantum ESPRESSO suite
     for quantum simulation of materials; please cite
         "P. Giannozzi et al., J. Phys.:Condens. Matter 21 395502 (2009);
         "P. Giannozzi et al., J. Phys.:Condens. Matter 29 465901 (2017);
          URL http://www.quantum-espresso.org", 
     in publications or presentations arising from this work. More details at
     http://www.quantum-espresso.org/quote

     Parallel version (MPI), running on    28 processors

     MPI processes distributed on     1 nodes
     R & G space division:  proc/nbgrp/npool/nimage =      28
     Reading input from ../ecut90/4500.in
Warning: card &IONS ignored
Warning: card     POT_EXTRAPOLATION='SECOND-ORDER' ignored
Warning: card     WFC_EXTRAPOLATION='SECOND-ORDER' ignored
Warning: card     ION_TEMPERATURE = 'ANDERSEN' ignored
Warning: card / ignored

     Current dimensions of program PWSCF are:
     Max number of different atomic species (ntypx) = 10
     Max number of k-points (npk) =  40000
     Max angular momentum in pseudopotentials (lmaxx) =  3

     Subspace diagonalization in iterative solution of the eigenvalue problem:
     a serial algorithm will be used

 
     Parallelization info
     --------------------
     sticks:   dense  smooth     PW     G-vecs:    dense   smooth      PW
     Min         408     408    102                32936    32936    4116
     Max         409     409    103                32943    32943    4121
     Sum       11449   11449   2869               922329   922329  115313
 


     bravais-lattice index     =            1
     lattice parameter (alat)  =      20.0000  a.u.
     unit-cell volume          =    8000.0000 (a.u.)^3
     number of atoms/cell      =            3
     number of atomic types    =            2
     number of electrons       =         8.00
     number of Kohn-Sham states=            8
     kinetic-energy cutoff     =      90.0000  Ry
     charge density cutoff     =     360.0000  Ry
     convergence threshold     =      1.0E-08
     mixing beta               =       0.7000
     number of iterations used =            8  plain     mixing
     Exchange-correlation      = PBE ( 1  4  3  4 0 0)

     celldm(1)=  20.000000  celldm(2)=   0.000000  celldm(3)=   0.000000
     celldm(4)=   0.000000  celldm(5)=   0.000000  celldm(6)=   0.000000

     crystal axes: (cart. coord. in units of alat)
               a(1) = (   1.000000   0.000000   0.000000 )  
               a(2) = (   0.000000   1.000000   0.000000 )  
               a(3) = (   0.000000   0.000000   1.000000 )  

     reciprocal axes: (cart. coord. in units 2 pi/alat)
               b(1) = (  1.000000  0.000000  0.000000 )  
               b(2) = (  0.000000  1.000000  0.000000 )  
               b(3) = (  0.000000  0.000000  1.000000 )  


     PseudoPot. # 1 for H  read from file:
     ../pslibrary/pbe/PSEUDOPOTENTIALS/H.pbe-rrkjus_psl.1.0.0.UPF
     MD5 check sum: b2b1ff84b4ceabe23335d1bf25025923
     Pseudo is Ultrasoft, Zval =  1.0
     Generated using "atomic" code by A. Dal Corso v.6.2 svn rev. 14038
     Using radial grid of  929 points,  2 beta functions with: 
                l(1) =   0
                l(2) =   0
     Q(r) pseudized with 0 coefficients 


     PseudoPot. # 2 for O  read from file:
     ../pslibrary/pbe/PSEUDOPOTENTIALS/O.pbe-n-rrkjus_psl.1.0.0.UPF
     MD5 check sum: 61455b21a47f6823f888c3bfb9bd1235
     Pseudo is Ultrasoft + core correction, Zval =  6.0
     Generated using "atomic" code by A. Dal Corso v.6.2 svn rev. 14038
     Using radial grid of 1095 points,  4 beta functions with: 
                l(1) =   0
                l(2) =   0
                l(3) =   1
                l(4) =   1
     Q(r) pseudized with 0 coefficients 


     atomic species   valence    mass     pseudopotential
        H              1.00     1.01000     H ( 1.00)
        O              6.00    16.00000     O ( 1.00)

     No symmetry found



   Cartesian axes

     site n.     atom                  positions (alat units)
         1           O   tau(   1) = (   0.0076969  -0.0021366  -0.0014557  )
         2           H   tau(   2) = (  -0.1212828  -0.0062313   0.0138048  )
         3           H   tau(   3) = (  -0.0006486   0.0400783   0.0976189  )

     number of k points=     1  Marzari-Vanderbilt smearing, width (Ry)=  0.0250
                       cart. coord. in units 2pi/alat
        k(    1) = (   0.0000000   0.0000000   0.0000000), wk =   2.0000000

     Dense  grid:   922329 G-vectors     FFT dimensions: ( 125, 125, 125)

     Estimated max dynamical RAM per process >      38.67 MB

     Estimated total dynamical RAM >       1.06 GB

     Initial potential from superposition of free atoms
     Check: negative starting charge=   -0.001615

     starting charge    7.99998, renormalised to    8.00000

     negative rho (up, down):  1.615E-03 0.000E+00
     Starting wfc are    6 randomized atomic wfcs +    2 random wfc

     total cpu time spent up to now is        1.5 secs

     Self-consistent Calculation

     iteration #  1     ecut=    90.00 Ry     beta= 0.70
     Davidson diagonalization with overlap
     ethr =  1.00E-02,  avg # of iterations =  7.0

     negative rho (up, down):  2.297E-03 0.000E+00

     total cpu time spent up to now is        1.9 secs

     total energy              =     -34.39849071 Ry
     Harris-Foulkes estimate   =     -34.71657139 Ry
     estimated scf accuracy    <       0.42688226 Ry

     iteration #  2     ecut=    90.00 Ry     beta= 0.70
     Davidson diagonalization with overlap
     ethr =  5.34E-03,  avg # of iterations =  3.0

     negative rho (up, down):  1.837E-03 0.000E+00

     total cpu time spent up to now is        2.3 secs

     total energy              =     -34.35277382 Ry
     Harris-Foulkes estimate   =     -34.88951523 Ry
     estimated scf accuracy    <       1.48961020 Ry

     iteration #  3     ecut=    90.00 Ry     beta= 0.70
     Davidson diagonalization with overlap
     ethr =  5.34E-03,  avg # of iterations =  1.0

     negative rho (up, down):  1.423E-03 0.000E+00

     total cpu time spent up to now is        2.6 secs

     total energy              =     -34.51452645 Ry
     Harris-Foulkes estimate   =     -34.53179947 Ry
     estimated scf accuracy    <       0.07709241 Ry

     iteration #  4     ecut=    90.00 Ry     beta= 0.70
     Davidson diagonalization with overlap
     ethr =  9.64E-04,  avg # of iterations =  3.0

     negative rho (up, down):  1.548E-03 0.000E+00

     total cpu time spent up to now is        2.9 secs

     total energy              =     -34.61337650 Ry
     Harris-Foulkes estimate   =     -34.62224161 Ry
     estimated scf accuracy    <       0.04619572 Ry

     iteration #  5     ecut=    90.00 Ry     beta= 0.70
     Davidson diagonalization with overlap
     ethr =  5.77E-04,  avg # of iterations =  1.0

     negative rho (up, down):  1.669E-03 0.000E+00

     total cpu time spent up to now is        3.2 secs

     total energy              =     -34.61167959 Ry
     Harris-Foulkes estimate   =     -34.61438871 Ry
     estimated scf accuracy    <       0.01937435 Ry

     iteration #  6     ecut=    90.00 Ry     beta= 0.70
     Davidson diagonalization with overlap
     ethr =  2.42E-04,  avg # of iterations =  1.0

     negative rho (up, down):  1.701E-03 0.000E+00

     total cpu time spent up to now is        3.5 secs

     total energy              =     -34.61146842 Ry
     Harris-Foulkes estimate   =     -34.61207957 Ry
     estimated scf accuracy    <       0.01129712 Ry

     iteration #  7     ecut=    90.00 Ry     beta= 0.70
     Davidson diagonalization with overlap
     ethr =  1.41E-04,  avg # of iterations =  4.0

     negative rho (up, down):  1.768E-03 0.000E+00

     total cpu time spent up to now is        3.9 secs

     total energy              =     -34.61140600 Ry
     Harris-Foulkes estimate   =     -34.61195650 Ry
     estimated scf accuracy    <       0.00634776 Ry

     iteration #  8     ecut=    90.00 Ry     beta= 0.70
     Davidson diagonalization with overlap
     ethr =  7.93E-05,  avg # of iterations =  1.0

     negative rho (up, down):  1.886E-03 0.000E+00

     total cpu time spent up to now is        4.2 secs

     total energy              =     -34.61147394 Ry
     Harris-Foulkes estimate   =     -34.61169585 Ry
     estimated scf accuracy    <       0.00362042 Ry

     iteration #  9     ecut=    90.00 Ry     beta= 0.70
     Davidson diagonalization with overlap
     ethr =  4.53E-05,  avg # of iterations =  1.0

     negative rho (up, down):  2.156E-03 0.000E+00

     total cpu time spent up to now is        4.5 secs

     total energy              =     -34.61082403 Ry
     Harris-Foulkes estimate   =     -34.61156904 Ry
     estimated scf accuracy    <       0.00244893 Ry

     iteration # 10     ecut=    90.00 Ry     beta= 0.70
     Davidson diagonalization with overlap
     ethr =  3.06E-05,  avg # of iterations = 14.0

     negative rho (up, down):  2.169E-03 0.000E+00

     total cpu time spent up to now is        5.0 secs

     total energy              =     -34.61146382 Ry
     Harris-Foulkes estimate   =     -34.61146257 Ry
     estimated scf accuracy    <       0.00002406 Ry

     iteration # 11     ecut=    90.00 Ry     beta= 0.70
     Davidson diagonalization with overlap
     ethr =  3.01E-07,  avg # of iterations =  7.0

     negative rho (up, down):  2.132E-03 0.000E+00

     total cpu time spent up to now is        5.4 secs

     total energy              =     -34.61146823 Ry
     Harris-Foulkes estimate   =     -34.61147140 Ry
     estimated scf accuracy    <       0.00003390 Ry

     iteration # 12     ecut=    90.00 Ry     beta= 0.70
     Davidson diagonalization with overlap
     ethr =  3.01E-07,  avg # of iterations =  1.0

     negative rho (up, down):  2.157E-03 0.000E+00

     total cpu time spent up to now is        5.7 secs

     total energy              =     -34.61146875 Ry
     Harris-Foulkes estimate   =     -34.61147035 Ry
     estimated scf accuracy    <       0.00002858 Ry

     iteration # 13     ecut=    90.00 Ry     beta= 0.70
     Davidson diagonalization with overlap
     ethr =  3.01E-07,  avg # of iterations =  1.0

     negative rho (up, down):  2.157E-03 0.000E+00

     total cpu time spent up to now is        6.0 secs

     total energy              =     -34.61146663 Ry
     Harris-Foulkes estimate   =     -34.61146981 Ry
     estimated scf accuracy    <       0.00002580 Ry

     iteration # 14     ecut=    90.00 Ry     beta= 0.70
     Davidson diagonalization with overlap
     ethr =  3.01E-07,  avg # of iterations =  1.0

     negative rho (up, down):  2.151E-03 0.000E+00

     total cpu time spent up to now is        6.4 secs

     total energy              =     -34.61146701 Ry
     Harris-Foulkes estimate   =     -34.61146750 Ry
     estimated scf accuracy    <       0.00001558 Ry

     iteration # 15     ecut=    90.00 Ry     beta= 0.70
     Davidson diagonalization with overlap
     ethr =  1.95E-07,  avg # of iterations =  2.0

     negative rho (up, down):  2.148E-03 0.000E+00

     total cpu time spent up to now is        6.7 secs

     total energy              =     -34.61146469 Ry
     Harris-Foulkes estimate   =     -34.61146782 Ry
     estimated scf accuracy    <       0.00001809 Ry

     iteration # 16     ecut=    90.00 Ry     beta= 0.70
     Davidson diagonalization with overlap
     ethr =  1.95E-07,  avg # of iterations =  1.0

     negative rho (up, down):  2.151E-03 0.000E+00

     total cpu time spent up to now is        7.0 secs

     total energy              =     -34.61146384 Ry
     Harris-Foulkes estimate   =     -34.61146506 Ry
     estimated scf accuracy    <       0.00000735 Ry

     iteration # 17     ecut=    90.00 Ry     beta= 0.70
     Davidson diagonalization with overlap
     ethr =  9.19E-08,  avg # of iterations =  1.0

     negative rho (up, down):  2.151E-03 0.000E+00

     total cpu time spent up to now is        7.3 secs

     total energy              =     -34.61146412 Ry
     Harris-Foulkes estimate   =     -34.61146425 Ry
     estimated scf accuracy    <       0.00000255 Ry

     iteration # 18     ecut=    90.00 Ry     beta= 0.70
     Davidson diagonalization with overlap
     ethr =  3.19E-08,  avg # of iterations =  1.0

     negative rho (up, down):  2.155E-03 0.000E+00

     total cpu time spent up to now is        7.7 secs

     total energy              =     -34.61146362 Ry
     Harris-Foulkes estimate   =     -34.61146420 Ry
     estimated scf accuracy    <       0.00000201 Ry

     iteration # 19     ecut=    90.00 Ry     beta= 0.70
     Davidson diagonalization with overlap
     ethr =  2.51E-08,  avg # of iterations =  2.0

     negative rho (up, down):  2.157E-03 0.000E+00

     total cpu time spent up to now is        8.0 secs

     total energy              =     -34.61146396 Ry
     Harris-Foulkes estimate   =     -34.61146398 Ry
     estimated scf accuracy    <       0.00000010 Ry

     iteration # 20     ecut=    90.00 Ry     beta= 0.70
     Davidson diagonalization with overlap
     ethr =  1.26E-09,  avg # of iterations =  4.0

     negative rho (up, down):  2.157E-03 0.000E+00

     total cpu time spent up to now is        8.4 secs

     total energy              =     -34.61146416 Ry
     Harris-Foulkes estimate   =     -34.61146417 Ry
     estimated scf accuracy    <       0.00000009 Ry

     iteration # 21     ecut=    90.00 Ry     beta= 0.70
     Davidson diagonalization with overlap
     ethr =  1.07E-09,  avg # of iterations =  1.0

     negative rho (up, down):  2.157E-03 0.000E+00

     total cpu time spent up to now is        8.7 secs

     total energy              =     -34.61146415 Ry
     Harris-Foulkes estimate   =     -34.61146416 Ry
     estimated scf accuracy    <       0.00000004 Ry

     iteration # 22     ecut=    90.00 Ry     beta= 0.70
     Davidson diagonalization with overlap
     ethr =  5.18E-10,  avg # of iterations =  2.0

     negative rho (up, down):  2.157E-03 0.000E+00

     total cpu time spent up to now is        9.0 secs

     End of self-consistent calculation

          k = 0.0000 0.0000 0.0000 (115313 PWs)   bands (ev):

   -23.3267 -10.2278  -9.7649  -6.8270  -2.7470  -0.6025   0.0748   0.8789

     the Fermi energy is    -4.8324 ev

!    total energy              =     -34.61146415 Ry
     Harris-Foulkes estimate   =     -34.61146416 Ry
     estimated scf accuracy    <          3.4E-09 Ry

     The total energy is the sum of the following terms:

     one-electron contribution =     -59.02942879 Ry
     hartree contribution      =      31.08805086 Ry
     xc contribution           =      -8.45346871 Ry
     ewald contribution        =       1.78338248 Ry
     smearing contrib. (-TS)   =       0.00000000 Ry

     convergence has been achieved in  22 iterations

     Writing output data file pwscf.save
 
     init_run     :      0.64s CPU      0.74s WALL (       1 calls)
     electrons    :      6.62s CPU      7.59s WALL (       1 calls)

     Called by init_run:
     wfcinit      :      0.06s CPU      0.12s WALL (       1 calls)
     potinit      :      0.11s CPU      0.13s WALL (       1 calls)

     Called by electrons:
     c_bands      :      2.19s CPU      2.22s WALL (      22 calls)
     sum_band     :      1.57s CPU      1.59s WALL (      22 calls)
     v_of_rho     :      1.42s CPU      1.45s WALL (      23 calls)
     newd         :      0.68s CPU      0.69s WALL (      23 calls)
     mix_rho      :      0.77s CPU      1.48s WALL (      22 calls)

     Called by c_bands:
     init_us_2    :      0.06s CPU      0.06s WALL (      45 calls)
     cegterg      :      2.13s CPU      2.14s WALL (      22 calls)

     Called by sum_band:
     sum_band:bec :      0.00s CPU      0.00s WALL (      22 calls)
     addusdens    :      0.84s CPU      0.85s WALL (      22 calls)

     Called by *egterg:
     h_psi        :      1.94s CPU      1.95s WALL (      83 calls)
     s_psi        :      0.01s CPU      0.01s WALL (      83 calls)
     g_psi        :      0.01s CPU      0.01s WALL (      60 calls)
     cdiaghg      :      0.02s CPU      0.02s WALL (      82 calls)

     Called by h_psi:
     h_psi:pot    :      1.93s CPU      1.94s WALL (      83 calls)
     h_psi:calbec :      0.06s CPU      0.06s WALL (      83 calls)
     vloc_psi     :      1.85s CPU      1.86s WALL (      83 calls)
     add_vuspsi   :      0.02s CPU      0.02s WALL (      83 calls)

     General routines
     calbec       :      0.07s CPU      0.08s WALL (     105 calls)
     fft          :      1.21s CPU      1.25s WALL (     298 calls)
     fftw         :      1.94s CPU      1.96s WALL (    1040 calls)
     davcio       :      0.13s CPU      0.72s WALL (     347 calls)
 
     Parallel routines
     fft_scatt_xy :      0.41s CPU      0.41s WALL (    1338 calls)
     fft_scatt_yz :      0.89s CPU      0.92s WALL (    1338 calls)
 
     PWSCF        :     7.95s CPU         9.44s WALL

 
   This run was terminated on:   5:23: 8  12May2018            

=------------------------------------------------------------------------------=
   JOB DONE.
=------------------------------------------------------------------------------=
