
     Program PWSCF v.6.2 (svn rev. 14038) starts on 12May2018 at  5:23:32 

     This program is part of the open-source Quantum ESPRESSO suite
     for quantum simulation of materials; please cite
         "P. Giannozzi et al., J. Phys.:Condens. Matter 21 395502 (2009);
         "P. Giannozzi et al., J. Phys.:Condens. Matter 29 465901 (2017);
          URL http://www.quantum-espresso.org", 
     in publications or presentations arising from this work. More details at
     http://www.quantum-espresso.org/quote

     Parallel version (MPI), running on    28 processors

     MPI processes distributed on     1 nodes
     R & G space division:  proc/nbgrp/npool/nimage =      28
     Reading input from ../ecut90/6000.in
Warning: card &IONS ignored
Warning: card     POT_EXTRAPOLATION='SECOND-ORDER' ignored
Warning: card     WFC_EXTRAPOLATION='SECOND-ORDER' ignored
Warning: card     ION_TEMPERATURE = 'ANDERSEN' ignored
Warning: card / ignored

     Current dimensions of program PWSCF are:
     Max number of different atomic species (ntypx) = 10
     Max number of k-points (npk) =  40000
     Max angular momentum in pseudopotentials (lmaxx) =  3

     Subspace diagonalization in iterative solution of the eigenvalue problem:
     a serial algorithm will be used

 
     Parallelization info
     --------------------
     sticks:   dense  smooth     PW     G-vecs:    dense   smooth      PW
     Min         408     408    102                32936    32936    4116
     Max         409     409    103                32943    32943    4121
     Sum       11449   11449   2869               922329   922329  115313
 


     bravais-lattice index     =            1
     lattice parameter (alat)  =      20.0000  a.u.
     unit-cell volume          =    8000.0000 (a.u.)^3
     number of atoms/cell      =            3
     number of atomic types    =            2
     number of electrons       =         8.00
     number of Kohn-Sham states=            8
     kinetic-energy cutoff     =      90.0000  Ry
     charge density cutoff     =     360.0000  Ry
     convergence threshold     =      1.0E-08
     mixing beta               =       0.7000
     number of iterations used =            8  plain     mixing
     Exchange-correlation      = PBE ( 1  4  3  4 0 0)

     celldm(1)=  20.000000  celldm(2)=   0.000000  celldm(3)=   0.000000
     celldm(4)=   0.000000  celldm(5)=   0.000000  celldm(6)=   0.000000

     crystal axes: (cart. coord. in units of alat)
               a(1) = (   1.000000   0.000000   0.000000 )  
               a(2) = (   0.000000   1.000000   0.000000 )  
               a(3) = (   0.000000   0.000000   1.000000 )  

     reciprocal axes: (cart. coord. in units 2 pi/alat)
               b(1) = (  1.000000  0.000000  0.000000 )  
               b(2) = (  0.000000  1.000000  0.000000 )  
               b(3) = (  0.000000  0.000000  1.000000 )  


     PseudoPot. # 1 for H  read from file:
     ../pslibrary/pbe/PSEUDOPOTENTIALS/H.pbe-rrkjus_psl.1.0.0.UPF
     MD5 check sum: b2b1ff84b4ceabe23335d1bf25025923
     Pseudo is Ultrasoft, Zval =  1.0
     Generated using "atomic" code by A. Dal Corso v.6.2 svn rev. 14038
     Using radial grid of  929 points,  2 beta functions with: 
                l(1) =   0
                l(2) =   0
     Q(r) pseudized with 0 coefficients 


     PseudoPot. # 2 for O  read from file:
     ../pslibrary/pbe/PSEUDOPOTENTIALS/O.pbe-n-rrkjus_psl.1.0.0.UPF
     MD5 check sum: 61455b21a47f6823f888c3bfb9bd1235
     Pseudo is Ultrasoft + core correction, Zval =  6.0
     Generated using "atomic" code by A. Dal Corso v.6.2 svn rev. 14038
     Using radial grid of 1095 points,  4 beta functions with: 
                l(1) =   0
                l(2) =   0
                l(3) =   1
                l(4) =   1
     Q(r) pseudized with 0 coefficients 


     atomic species   valence    mass     pseudopotential
        H              1.00     1.01000     H ( 1.00)
        O              6.00    16.00000     O ( 1.00)

     No symmetry found



   Cartesian axes

     site n.     atom                  positions (alat units)
         1           O   tau(   1) = (  -0.0059508  -0.0015653   0.0002848  )
         2           H   tau(   2) = (   0.0621926   0.0329549  -0.0595298  )
         3           H   tau(   3) = (   0.0320785  -0.0081595   0.1433831  )

     number of k points=     1  Marzari-Vanderbilt smearing, width (Ry)=  0.0250
                       cart. coord. in units 2pi/alat
        k(    1) = (   0.0000000   0.0000000   0.0000000), wk =   2.0000000

     Dense  grid:   922329 G-vectors     FFT dimensions: ( 125, 125, 125)

     Estimated max dynamical RAM per process >      38.67 MB

     Estimated total dynamical RAM >       1.06 GB

     Initial potential from superposition of free atoms
     Check: negative starting charge=   -0.001559

     starting charge    7.99998, renormalised to    8.00000

     negative rho (up, down):  1.559E-03 0.000E+00
     Starting wfc are    6 randomized atomic wfcs +    2 random wfc

     total cpu time spent up to now is        1.4 secs

     Self-consistent Calculation

     iteration #  1     ecut=    90.00 Ry     beta= 0.70
     Davidson diagonalization with overlap
     ethr =  1.00E-02,  avg # of iterations =  7.0

     negative rho (up, down):  2.334E-03 0.000E+00

     total cpu time spent up to now is        1.8 secs

     total energy              =     -34.24315355 Ry
     Harris-Foulkes estimate   =     -34.69486661 Ry
     estimated scf accuracy    <       0.60047800 Ry

     iteration #  2     ecut=    90.00 Ry     beta= 0.70
     Davidson diagonalization with overlap
     ethr =  7.51E-03,  avg # of iterations =  3.0

     negative rho (up, down):  1.808E-03 0.000E+00

     total cpu time spent up to now is        2.2 secs

     total energy              =     -34.16595227 Ry
     Harris-Foulkes estimate   =     -35.02765795 Ry
     estimated scf accuracy    <       2.57126945 Ry

     iteration #  3     ecut=    90.00 Ry     beta= 0.70
     Davidson diagonalization with overlap
     ethr =  7.51E-03,  avg # of iterations =  1.0

     negative rho (up, down):  1.473E-03 0.000E+00

     total cpu time spent up to now is        2.5 secs

     total energy              =     -34.38822310 Ry
     Harris-Foulkes estimate   =     -34.41199762 Ry
     estimated scf accuracy    <       0.18459980 Ry

     iteration #  4     ecut=    90.00 Ry     beta= 0.70
     Davidson diagonalization with overlap
     ethr =  2.31E-03,  avg # of iterations =  3.0

     negative rho (up, down):  1.673E-03 0.000E+00

     total cpu time spent up to now is        2.8 secs

     total energy              =     -34.54784484 Ry
     Harris-Foulkes estimate   =     -34.56083226 Ry
     estimated scf accuracy    <       0.04378869 Ry

     iteration #  5     ecut=    90.00 Ry     beta= 0.70
     Davidson diagonalization with overlap
     ethr =  5.47E-04,  avg # of iterations =  1.0

     negative rho (up, down):  1.710E-03 0.000E+00

     total cpu time spent up to now is        3.1 secs

     total energy              =     -34.55117088 Ry
     Harris-Foulkes estimate   =     -34.55100571 Ry
     estimated scf accuracy    <       0.00500051 Ry

     iteration #  6     ecut=    90.00 Ry     beta= 0.70
     Davidson diagonalization with overlap
     ethr =  6.25E-05,  avg # of iterations = 10.0

     negative rho (up, down):  1.796E-03 0.000E+00

     total cpu time spent up to now is        3.5 secs

     total energy              =     -34.55136414 Ry
     Harris-Foulkes estimate   =     -34.55191517 Ry
     estimated scf accuracy    <       0.00549711 Ry

     iteration #  7     ecut=    90.00 Ry     beta= 0.70
     Davidson diagonalization with overlap
     ethr =  6.25E-05,  avg # of iterations =  1.0

     negative rho (up, down):  1.900E-03 0.000E+00

     total cpu time spent up to now is        3.8 secs

     total energy              =     -34.55105100 Ry
     Harris-Foulkes estimate   =     -34.55146193 Ry
     estimated scf accuracy    <       0.00332867 Ry

     iteration #  8     ecut=    90.00 Ry     beta= 0.70
     Davidson diagonalization with overlap
     ethr =  4.16E-05,  avg # of iterations =  1.0

     negative rho (up, down):  1.919E-03 0.000E+00

     total cpu time spent up to now is        4.2 secs

     total energy              =     -34.55111484 Ry
     Harris-Foulkes estimate   =     -34.55117494 Ry
     estimated scf accuracy    <       0.00169330 Ry

     iteration #  9     ecut=    90.00 Ry     beta= 0.70
     Davidson diagonalization with overlap
     ethr =  2.12E-05,  avg # of iterations =  1.0

     negative rho (up, down):  1.916E-03 0.000E+00

     total cpu time spent up to now is        4.5 secs

     total energy              =     -34.55118549 Ry
     Harris-Foulkes estimate   =     -34.55118629 Ry
     estimated scf accuracy    <       0.00128661 Ry

     iteration # 10     ecut=    90.00 Ry     beta= 0.70
     Davidson diagonalization with overlap
     ethr =  1.61E-05,  avg # of iterations =  1.0

     negative rho (up, down):  1.927E-03 0.000E+00

     total cpu time spent up to now is        4.8 secs

     total energy              =     -34.55119985 Ry
     Harris-Foulkes estimate   =     -34.55122985 Ry
     estimated scf accuracy    <       0.00107464 Ry

     iteration # 11     ecut=    90.00 Ry     beta= 0.70
     Davidson diagonalization with overlap
     ethr =  1.34E-05,  avg # of iterations =  1.0

     negative rho (up, down):  1.924E-03 0.000E+00

     total cpu time spent up to now is        5.1 secs

     total energy              =     -34.55122472 Ry
     Harris-Foulkes estimate   =     -34.55121971 Ry
     estimated scf accuracy    <       0.00089831 Ry

     iteration # 12     ecut=    90.00 Ry     beta= 0.70
     Davidson diagonalization with overlap
     ethr =  1.12E-05,  avg # of iterations =  1.0

     negative rho (up, down):  2.179E-03 0.000E+00

     total cpu time spent up to now is        5.5 secs

     total energy              =     -34.55088053 Ry
     Harris-Foulkes estimate   =     -34.55124839 Ry
     estimated scf accuracy    <       0.00081040 Ry

     iteration # 13     ecut=    90.00 Ry     beta= 0.70
     Davidson diagonalization with overlap
     ethr =  1.01E-05,  avg # of iterations =  3.0

     negative rho (up, down):  2.156E-03 0.000E+00

     total cpu time spent up to now is        5.8 secs

     total energy              =     -34.55111921 Ry
     Harris-Foulkes estimate   =     -34.55112936 Ry
     estimated scf accuracy    <       0.00011896 Ry

     iteration # 14     ecut=    90.00 Ry     beta= 0.70
     Davidson diagonalization with overlap
     ethr =  1.49E-06,  avg # of iterations =  3.0

     negative rho (up, down):  2.154E-03 0.000E+00

     total cpu time spent up to now is        6.2 secs

     total energy              =     -34.55121659 Ry
     Harris-Foulkes estimate   =     -34.55121492 Ry
     estimated scf accuracy    <       0.00031227 Ry

     iteration # 15     ecut=    90.00 Ry     beta= 0.70
     Davidson diagonalization with overlap
     ethr =  1.49E-06,  avg # of iterations =  1.0

     negative rho (up, down):  2.152E-03 0.000E+00

     total cpu time spent up to now is        6.5 secs

     total energy              =     -34.55121828 Ry
     Harris-Foulkes estimate   =     -34.55121685 Ry
     estimated scf accuracy    <       0.00032210 Ry

     iteration # 16     ecut=    90.00 Ry     beta= 0.70
     Davidson diagonalization with overlap
     ethr =  1.49E-06,  avg # of iterations =  1.0

     negative rho (up, down):  2.148E-03 0.000E+00

     total cpu time spent up to now is        6.8 secs

     total energy              =     -34.55121024 Ry
     Harris-Foulkes estimate   =     -34.55121854 Ry
     estimated scf accuracy    <       0.00031978 Ry

     iteration # 17     ecut=    90.00 Ry     beta= 0.70
     Davidson diagonalization with overlap
     ethr =  1.49E-06,  avg # of iterations =  1.0

     negative rho (up, down):  2.140E-03 0.000E+00

     total cpu time spent up to now is        7.1 secs

     total energy              =     -34.55120535 Ry
     Harris-Foulkes estimate   =     -34.55121055 Ry
     estimated scf accuracy    <       0.00029777 Ry

     iteration # 18     ecut=    90.00 Ry     beta= 0.70
     Davidson diagonalization with overlap
     ethr =  1.49E-06,  avg # of iterations =  1.0

     negative rho (up, down):  2.128E-03 0.000E+00

     total cpu time spent up to now is        7.5 secs

     total energy              =     -34.55119804 Ry
     Harris-Foulkes estimate   =     -34.55120578 Ry
     estimated scf accuracy    <       0.00029014 Ry

     iteration # 19     ecut=    90.00 Ry     beta= 0.70
     Davidson diagonalization with overlap
     ethr =  1.49E-06,  avg # of iterations =  1.0

     negative rho (up, down):  2.126E-03 0.000E+00

     total cpu time spent up to now is        7.8 secs

     total energy              =     -34.55120481 Ry
     Harris-Foulkes estimate   =     -34.55119836 Ry
     estimated scf accuracy    <       0.00026131 Ry

     iteration # 20     ecut=    90.00 Ry     beta= 0.70
     Davidson diagonalization with overlap
     ethr =  1.49E-06,  avg # of iterations =  1.0

     negative rho (up, down):  2.119E-03 0.000E+00

     total cpu time spent up to now is        8.2 secs

     total energy              =     -34.55115569 Ry
     Harris-Foulkes estimate   =     -34.55120494 Ry
     estimated scf accuracy    <       0.00027134 Ry

     iteration # 21     ecut=    90.00 Ry     beta= 0.70
     Davidson diagonalization with overlap
     ethr =  1.49E-06,  avg # of iterations =  1.0

     negative rho (up, down):  2.124E-03 0.000E+00

     total cpu time spent up to now is        8.5 secs

     total energy              =     -34.55111758 Ry
     Harris-Foulkes estimate   =     -34.55115809 Ry
     estimated scf accuracy    <       0.00016254 Ry

     iteration # 22     ecut=    90.00 Ry     beta= 0.70
     Davidson diagonalization with overlap
     ethr =  1.49E-06,  avg # of iterations =  2.0

     negative rho (up, down):  2.136E-03 0.000E+00

     total cpu time spent up to now is        8.8 secs

     total energy              =     -34.55112060 Ry
     Harris-Foulkes estimate   =     -34.55113115 Ry
     estimated scf accuracy    <       0.00002903 Ry

     iteration # 23     ecut=    90.00 Ry     beta= 0.70
     Davidson diagonalization with overlap
     ethr =  3.63E-07,  avg # of iterations =  3.0

     negative rho (up, down):  2.139E-03 0.000E+00

     total cpu time spent up to now is        9.2 secs

     total energy              =     -34.55113099 Ry
     Harris-Foulkes estimate   =     -34.55113172 Ry
     estimated scf accuracy    <       0.00000320 Ry

     iteration # 24     ecut=    90.00 Ry     beta= 0.70
     Davidson diagonalization with overlap
     ethr =  4.00E-08,  avg # of iterations =  4.0

     negative rho (up, down):  2.139E-03 0.000E+00

     total cpu time spent up to now is        9.5 secs

     total energy              =     -34.55113140 Ry
     Harris-Foulkes estimate   =     -34.55113199 Ry
     estimated scf accuracy    <       0.00000134 Ry

     iteration # 25     ecut=    90.00 Ry     beta= 0.70
     Davidson diagonalization with overlap
     ethr =  1.67E-08,  avg # of iterations =  1.0

     negative rho (up, down):  2.139E-03 0.000E+00

     total cpu time spent up to now is        9.8 secs

     total energy              =     -34.55113155 Ry
     Harris-Foulkes estimate   =     -34.55113158 Ry
     estimated scf accuracy    <       0.00000011 Ry

     iteration # 26     ecut=    90.00 Ry     beta= 0.70
     Davidson diagonalization with overlap
     ethr =  1.33E-09,  avg # of iterations =  4.0

     negative rho (up, down):  2.139E-03 0.000E+00

     total cpu time spent up to now is       10.2 secs

     total energy              =     -34.55113169 Ry
     Harris-Foulkes estimate   =     -34.55113183 Ry
     estimated scf accuracy    <       0.00000062 Ry

     iteration # 27     ecut=    90.00 Ry     beta= 0.70
     Davidson diagonalization with overlap
     ethr =  1.33E-09,  avg # of iterations =  1.0

     negative rho (up, down):  2.139E-03 0.000E+00

     total cpu time spent up to now is       10.5 secs

     total energy              =     -34.55113157 Ry
     Harris-Foulkes estimate   =     -34.55113170 Ry
     estimated scf accuracy    <       0.00000028 Ry

     iteration # 28     ecut=    90.00 Ry     beta= 0.70
     Davidson diagonalization with overlap
     ethr =  1.33E-09,  avg # of iterations =  3.0

     negative rho (up, down):  2.139E-03 0.000E+00

     total cpu time spent up to now is       10.9 secs

     total energy              =     -34.55113168 Ry
     Harris-Foulkes estimate   =     -34.55113169 Ry
     estimated scf accuracy    <       0.00000005 Ry

     iteration # 29     ecut=    90.00 Ry     beta= 0.70
     Davidson diagonalization with overlap
     ethr =  6.04E-10,  avg # of iterations =  1.0

     negative rho (up, down):  2.139E-03 0.000E+00

     total cpu time spent up to now is       11.2 secs

     total energy              =     -34.55113167 Ry
     Harris-Foulkes estimate   =     -34.55113168 Ry
     estimated scf accuracy    <       0.00000004 Ry

     iteration # 30     ecut=    90.00 Ry     beta= 0.70
     Davidson diagonalization with overlap
     ethr =  4.97E-10,  avg # of iterations =  1.0

     negative rho (up, down):  2.139E-03 0.000E+00

     total cpu time spent up to now is       11.5 secs

     End of self-consistent calculation

          k = 0.0000 0.0000 0.0000 (115313 PWs)   bands (ev):

   -23.3594 -11.0502  -8.3107  -6.6467  -3.9352  -0.3996   0.3081   0.8860

     the Fermi energy is    -6.3334 ev

!    total energy              =     -34.55113166 Ry
     Harris-Foulkes estimate   =     -34.55113167 Ry
     estimated scf accuracy    <          9.8E-09 Ry

     The total energy is the sum of the following terms:

     one-electron contribution =     -58.81324716 Ry
     hartree contribution      =      31.04734291 Ry
     xc contribution           =      -8.47001597 Ry
     ewald contribution        =       1.68071108 Ry
     smearing contrib. (-TS)   =       0.00407747 Ry

     convergence has been achieved in  30 iterations

     Writing output data file pwscf.save
 
     init_run     :      0.69s CPU      0.75s WALL (       1 calls)
     electrons    :      8.94s CPU     10.19s WALL (       1 calls)

     Called by init_run:
     wfcinit      :      0.12s CPU      0.15s WALL (       1 calls)
     potinit      :      0.12s CPU      0.12s WALL (       1 calls)

     Called by electrons:
     c_bands      :      2.78s CPU      2.83s WALL (      30 calls)
     sum_band     :      2.13s CPU      2.16s WALL (      30 calls)
     v_of_rho     :      1.91s CPU      1.95s WALL (      31 calls)
     newd         :      0.91s CPU      0.93s WALL (      31 calls)
     mix_rho      :      1.18s CPU      2.14s WALL (      30 calls)

     Called by c_bands:
     init_us_2    :      0.08s CPU      0.09s WALL (      61 calls)
     cegterg      :      2.70s CPU      2.73s WALL (      30 calls)

     Called by sum_band:
     sum_band:bec :      0.00s CPU      0.00s WALL (      30 calls)
     addusdens    :      1.15s CPU      1.16s WALL (      30 calls)

     Called by *egterg:
     h_psi        :      2.53s CPU      2.56s WALL (      95 calls)
     s_psi        :      0.02s CPU      0.02s WALL (      95 calls)
     g_psi        :      0.01s CPU      0.01s WALL (      64 calls)
     cdiaghg      :      0.02s CPU      0.02s WALL (      94 calls)

     Called by h_psi:
     h_psi:pot    :      2.52s CPU      2.55s WALL (      95 calls)
     h_psi:calbec :      0.05s CPU      0.05s WALL (      95 calls)
     vloc_psi     :      2.44s CPU      2.47s WALL (      95 calls)
     add_vuspsi   :      0.02s CPU      0.02s WALL (      95 calls)

     General routines
     calbec       :      0.07s CPU      0.07s WALL (     125 calls)
     fft          :      1.64s CPU      1.67s WALL (     402 calls)
     fftw         :      2.59s CPU      2.63s WALL (    1370 calls)
     davcio       :      0.19s CPU      1.01s WALL (     507 calls)
 
     Parallel routines
     fft_scatt_xy :      0.54s CPU      0.54s WALL (    1772 calls)
     fft_scatt_yz :      1.16s CPU      1.20s WALL (    1772 calls)
 
     PWSCF        :    10.38s CPU        12.21s WALL

 
   This run was terminated on:   5:23:44  12May2018            

=------------------------------------------------------------------------------=
   JOB DONE.
=------------------------------------------------------------------------------=
