
     Program PWSCF v.6.2 (svn rev. 14038) starts on 12May2018 at  5:23:45 

     This program is part of the open-source Quantum ESPRESSO suite
     for quantum simulation of materials; please cite
         "P. Giannozzi et al., J. Phys.:Condens. Matter 21 395502 (2009);
         "P. Giannozzi et al., J. Phys.:Condens. Matter 29 465901 (2017);
          URL http://www.quantum-espresso.org", 
     in publications or presentations arising from this work. More details at
     http://www.quantum-espresso.org/quote

     Parallel version (MPI), running on    28 processors

     MPI processes distributed on     1 nodes
     R & G space division:  proc/nbgrp/npool/nimage =      28
     Reading input from ../ecut90/6500.in
Warning: card &IONS ignored
Warning: card     POT_EXTRAPOLATION='SECOND-ORDER' ignored
Warning: card     WFC_EXTRAPOLATION='SECOND-ORDER' ignored
Warning: card     ION_TEMPERATURE = 'ANDERSEN' ignored
Warning: card / ignored

     Current dimensions of program PWSCF are:
     Max number of different atomic species (ntypx) = 10
     Max number of k-points (npk) =  40000
     Max angular momentum in pseudopotentials (lmaxx) =  3

     Subspace diagonalization in iterative solution of the eigenvalue problem:
     a serial algorithm will be used

 
     Parallelization info
     --------------------
     sticks:   dense  smooth     PW     G-vecs:    dense   smooth      PW
     Min         408     408    102                32936    32936    4116
     Max         409     409    103                32943    32943    4121
     Sum       11449   11449   2869               922329   922329  115313
 


     bravais-lattice index     =            1
     lattice parameter (alat)  =      20.0000  a.u.
     unit-cell volume          =    8000.0000 (a.u.)^3
     number of atoms/cell      =            3
     number of atomic types    =            2
     number of electrons       =         8.00
     number of Kohn-Sham states=            8
     kinetic-energy cutoff     =      90.0000  Ry
     charge density cutoff     =     360.0000  Ry
     convergence threshold     =      1.0E-08
     mixing beta               =       0.7000
     number of iterations used =            8  plain     mixing
     Exchange-correlation      = PBE ( 1  4  3  4 0 0)

     celldm(1)=  20.000000  celldm(2)=   0.000000  celldm(3)=   0.000000
     celldm(4)=   0.000000  celldm(5)=   0.000000  celldm(6)=   0.000000

     crystal axes: (cart. coord. in units of alat)
               a(1) = (   1.000000   0.000000   0.000000 )  
               a(2) = (   0.000000   1.000000   0.000000 )  
               a(3) = (   0.000000   0.000000   1.000000 )  

     reciprocal axes: (cart. coord. in units 2 pi/alat)
               b(1) = (  1.000000  0.000000  0.000000 )  
               b(2) = (  0.000000  1.000000  0.000000 )  
               b(3) = (  0.000000  0.000000  1.000000 )  


     PseudoPot. # 1 for H  read from file:
     ../pslibrary/pbe/PSEUDOPOTENTIALS/H.pbe-rrkjus_psl.1.0.0.UPF
     MD5 check sum: b2b1ff84b4ceabe23335d1bf25025923
     Pseudo is Ultrasoft, Zval =  1.0
     Generated using "atomic" code by A. Dal Corso v.6.2 svn rev. 14038
     Using radial grid of  929 points,  2 beta functions with: 
                l(1) =   0
                l(2) =   0
     Q(r) pseudized with 0 coefficients 


     PseudoPot. # 2 for O  read from file:
     ../pslibrary/pbe/PSEUDOPOTENTIALS/O.pbe-n-rrkjus_psl.1.0.0.UPF
     MD5 check sum: 61455b21a47f6823f888c3bfb9bd1235
     Pseudo is Ultrasoft + core correction, Zval =  6.0
     Generated using "atomic" code by A. Dal Corso v.6.2 svn rev. 14038
     Using radial grid of 1095 points,  4 beta functions with: 
                l(1) =   0
                l(2) =   0
                l(3) =   1
                l(4) =   1
     Q(r) pseudized with 0 coefficients 


     atomic species   valence    mass     pseudopotential
        H              1.00     1.01000     H ( 1.00)
        O              6.00    16.00000     O ( 1.00)

     No symmetry found



   Cartesian axes

     site n.     atom                  positions (alat units)
         1           O   tau(   1) = (  -0.0056765  -0.0031548   0.0099650  )
         2           H   tau(   2) = (   0.0470491   0.0516418   0.0523559  )
         3           H   tau(   3) = (   0.0428745  -0.0016654  -0.1218532  )

     number of k points=     1  Marzari-Vanderbilt smearing, width (Ry)=  0.0250
                       cart. coord. in units 2pi/alat
        k(    1) = (   0.0000000   0.0000000   0.0000000), wk =   2.0000000

     Dense  grid:   922329 G-vectors     FFT dimensions: ( 125, 125, 125)

     Estimated max dynamical RAM per process >      38.67 MB

     Estimated total dynamical RAM >       1.06 GB

     Initial potential from superposition of free atoms
     Check: negative starting charge=   -0.001584

     starting charge    7.99998, renormalised to    8.00000

     negative rho (up, down):  1.584E-03 0.000E+00
     Starting wfc are    6 randomized atomic wfcs +    2 random wfc

     total cpu time spent up to now is        1.5 secs

     Self-consistent Calculation

     iteration #  1     ecut=    90.00 Ry     beta= 0.70
     Davidson diagonalization with overlap
     ethr =  1.00E-02,  avg # of iterations =  7.0

     negative rho (up, down):  2.414E-03 0.000E+00

     total cpu time spent up to now is        2.0 secs

     total energy              =     -34.29755582 Ry
     Harris-Foulkes estimate   =     -34.75213659 Ry
     estimated scf accuracy    <       0.60392662 Ry

     iteration #  2     ecut=    90.00 Ry     beta= 0.70
     Davidson diagonalization with overlap
     ethr =  7.55E-03,  avg # of iterations =  3.0

     negative rho (up, down):  1.891E-03 0.000E+00

     total cpu time spent up to now is        2.3 secs

     total energy              =     -34.26151938 Ry
     Harris-Foulkes estimate   =     -34.98858545 Ry
     estimated scf accuracy    <       2.02030110 Ry

     iteration #  3     ecut=    90.00 Ry     beta= 0.70
     Davidson diagonalization with overlap
     ethr =  7.55E-03,  avg # of iterations =  1.0

     negative rho (up, down):  1.283E-03 0.000E+00

     total cpu time spent up to now is        2.6 secs

     total energy              =     -34.44231137 Ry
     Harris-Foulkes estimate   =     -34.46950606 Ry
     estimated scf accuracy    <       0.16425977 Ry

     iteration #  4     ecut=    90.00 Ry     beta= 0.70
     Davidson diagonalization with overlap
     ethr =  2.05E-03,  avg # of iterations =  3.0

     negative rho (up, down):  1.515E-03 0.000E+00

     total cpu time spent up to now is        2.9 secs

     total energy              =     -34.59065665 Ry
     Harris-Foulkes estimate   =     -34.60620106 Ry
     estimated scf accuracy    <       0.05447450 Ry

     iteration #  5     ecut=    90.00 Ry     beta= 0.70
     Davidson diagonalization with overlap
     ethr =  6.81E-04,  avg # of iterations =  3.0

     negative rho (up, down):  1.611E-03 0.000E+00

     total cpu time spent up to now is        3.3 secs

     total energy              =     -34.59775200 Ry
     Harris-Foulkes estimate   =     -34.59808248 Ry
     estimated scf accuracy    <       0.00912710 Ry

     iteration #  6     ecut=    90.00 Ry     beta= 0.70
     Davidson diagonalization with overlap
     ethr =  1.14E-04,  avg # of iterations =  4.0

     negative rho (up, down):  1.762E-03 0.000E+00

     total cpu time spent up to now is        3.6 secs

     total energy              =     -34.59718264 Ry
     Harris-Foulkes estimate   =     -34.59822412 Ry
     estimated scf accuracy    <       0.00793263 Ry

     iteration #  7     ecut=    90.00 Ry     beta= 0.70
     Davidson diagonalization with overlap
     ethr =  9.92E-05,  avg # of iterations =  1.0

     negative rho (up, down):  1.808E-03 0.000E+00

     total cpu time spent up to now is        3.9 secs

     total energy              =     -34.59720874 Ry
     Harris-Foulkes estimate   =     -34.59741497 Ry
     estimated scf accuracy    <       0.00415510 Ry

     iteration #  8     ecut=    90.00 Ry     beta= 0.70
     Davidson diagonalization with overlap
     ethr =  5.19E-05,  avg # of iterations =  3.0

     negative rho (up, down):  1.809E-03 0.000E+00

     total cpu time spent up to now is        4.3 secs

     total energy              =     -34.59780611 Ry
     Harris-Foulkes estimate   =     -34.59777309 Ry
     estimated scf accuracy    <       0.00191115 Ry

     iteration #  9     ecut=    90.00 Ry     beta= 0.70
     Davidson diagonalization with overlap
     ethr =  2.39E-05,  avg # of iterations = 16.0

     negative rho (up, down):  1.830E-03 0.000E+00

     total cpu time spent up to now is        4.8 secs

     total energy              =     -34.59784253 Ry
     Harris-Foulkes estimate   =     -34.59784106 Ry
     estimated scf accuracy    <       0.00177021 Ry

     iteration # 10     ecut=    90.00 Ry     beta= 0.70
     Davidson diagonalization with overlap
     ethr =  2.21E-05,  avg # of iterations =  1.0

     negative rho (up, down):  2.031E-03 0.000E+00

     total cpu time spent up to now is        5.1 secs

     total energy              =     -34.59773055 Ry
     Harris-Foulkes estimate   =     -34.59784713 Ry
     estimated scf accuracy    <       0.00174800 Ry

     iteration # 11     ecut=    90.00 Ry     beta= 0.70
     Davidson diagonalization with overlap
     ethr =  2.18E-05,  avg # of iterations =  1.0

     negative rho (up, down):  2.287E-03 0.000E+00

     total cpu time spent up to now is        5.4 secs

     total energy              =     -34.59757559 Ry
     Harris-Foulkes estimate   =     -34.59774924 Ry
     estimated scf accuracy    <       0.00123311 Ry

     iteration # 12     ecut=    90.00 Ry     beta= 0.70
     Davidson diagonalization with overlap
     ethr =  1.54E-05,  avg # of iterations =  1.0

     negative rho (up, down):  2.245E-03 0.000E+00

     total cpu time spent up to now is        5.8 secs

     total energy              =     -34.59350450 Ry
     Harris-Foulkes estimate   =     -34.59355184 Ry
     estimated scf accuracy    <       0.00052840 Ry

     iteration # 13     ecut=    90.00 Ry     beta= 0.70
     Davidson diagonalization with overlap
     ethr =  6.61E-06,  avg # of iterations =  1.0

     negative rho (up, down):  2.247E-03 0.000E+00

     total cpu time spent up to now is        6.1 secs

     total energy              =     -34.59347160 Ry
     Harris-Foulkes estimate   =     -34.59351234 Ry
     estimated scf accuracy    <       0.00040393 Ry

     iteration # 14     ecut=    90.00 Ry     beta= 0.70
     Davidson diagonalization with overlap
     ethr =  5.05E-06,  avg # of iterations =  1.0

     negative rho (up, down):  2.248E-03 0.000E+00

     total cpu time spent up to now is        6.4 secs

     total energy              =     -34.59343916 Ry
     Harris-Foulkes estimate   =     -34.59347563 Ry
     estimated scf accuracy    <       0.00028444 Ry

     iteration # 15     ecut=    90.00 Ry     beta= 0.70
     Davidson diagonalization with overlap
     ethr =  3.56E-06,  avg # of iterations =  1.0

     negative rho (up, down):  2.269E-03 0.000E+00

     total cpu time spent up to now is        6.8 secs

     total energy              =     -34.59340189 Ry
     Harris-Foulkes estimate   =     -34.59344977 Ry
     estimated scf accuracy    <       0.00014882 Ry

     iteration # 16     ecut=    90.00 Ry     beta= 0.70
     Davidson diagonalization with overlap
     ethr =  1.86E-06,  avg # of iterations = 14.0

     negative rho (up, down):  2.280E-03 0.000E+00

     total cpu time spent up to now is        7.2 secs

     total energy              =     -34.59341101 Ry
     Harris-Foulkes estimate   =     -34.59342044 Ry
     estimated scf accuracy    <       0.00001796 Ry

     iteration # 17     ecut=    90.00 Ry     beta= 0.70
     Davidson diagonalization with overlap
     ethr =  2.24E-07,  avg # of iterations =  3.0

     negative rho (up, down):  2.258E-03 0.000E+00

     total cpu time spent up to now is        7.6 secs

     total energy              =     -34.59342392 Ry
     Harris-Foulkes estimate   =     -34.59343742 Ry
     estimated scf accuracy    <       0.00003483 Ry

     iteration # 18     ecut=    90.00 Ry     beta= 0.70
     Davidson diagonalization with overlap
     ethr =  2.24E-07,  avg # of iterations =  1.0

     negative rho (up, down):  2.259E-03 0.000E+00

     total cpu time spent up to now is        7.9 secs

     total energy              =     -34.59342182 Ry
     Harris-Foulkes estimate   =     -34.59342600 Ry
     estimated scf accuracy    <       0.00000642 Ry

     iteration # 19     ecut=    90.00 Ry     beta= 0.70
     Davidson diagonalization with overlap
     ethr =  8.03E-08,  avg # of iterations =  3.0

     negative rho (up, down):  2.259E-03 0.000E+00

     total cpu time spent up to now is        8.3 secs

     total energy              =     -34.59342753 Ry
     Harris-Foulkes estimate   =     -34.59343282 Ry
     estimated scf accuracy    <       0.00001864 Ry

     iteration # 20     ecut=    90.00 Ry     beta= 0.70
     Davidson diagonalization with overlap
     ethr =  8.03E-08,  avg # of iterations =  1.0

     negative rho (up, down):  2.254E-03 0.000E+00

     total cpu time spent up to now is        8.6 secs

     total energy              =     -34.59342506 Ry
     Harris-Foulkes estimate   =     -34.59342804 Ry
     estimated scf accuracy    <       0.00000651 Ry

     iteration # 21     ecut=    90.00 Ry     beta= 0.70
     Davidson diagonalization with overlap
     ethr =  8.03E-08,  avg # of iterations =  3.0

     negative rho (up, down):  2.255E-03 0.000E+00

     total cpu time spent up to now is        9.0 secs

     total energy              =     -34.59342767 Ry
     Harris-Foulkes estimate   =     -34.59342849 Ry
     estimated scf accuracy    <       0.00000193 Ry

     iteration # 22     ecut=    90.00 Ry     beta= 0.70
     Davidson diagonalization with overlap
     ethr =  2.41E-08,  avg # of iterations =  1.0

     negative rho (up, down):  2.256E-03 0.000E+00

     total cpu time spent up to now is        9.3 secs

     total energy              =     -34.59342774 Ry
     Harris-Foulkes estimate   =     -34.59342784 Ry
     estimated scf accuracy    <       0.00000023 Ry

     iteration # 23     ecut=    90.00 Ry     beta= 0.70
     Davidson diagonalization with overlap
     ethr =  2.85E-09,  avg # of iterations =  3.0

     negative rho (up, down):  2.255E-03 0.000E+00

     total cpu time spent up to now is        9.7 secs

     total energy              =     -34.59342787 Ry
     Harris-Foulkes estimate   =     -34.59342816 Ry
     estimated scf accuracy    <       0.00000062 Ry

     iteration # 24     ecut=    90.00 Ry     beta= 0.70
     Davidson diagonalization with overlap
     ethr =  2.85E-09,  avg # of iterations =  3.0

     negative rho (up, down):  2.256E-03 0.000E+00

     total cpu time spent up to now is       10.0 secs

     End of self-consistent calculation

          k = 0.0000 0.0000 0.0000 (115313 PWs)   bands (ev):

   -24.2206 -11.2915  -8.8529  -6.8260  -3.3850  -0.2805   0.4864   0.8867

     the Fermi energy is    -6.5127 ev

!    total energy              =     -34.59342796 Ry
     Harris-Foulkes estimate   =     -34.59342797 Ry
     estimated scf accuracy    <          8.9E-09 Ry

     The total energy is the sum of the following terms:

     one-electron contribution =     -60.52817107 Ry
     hartree contribution      =      31.85273101 Ry
     xc contribution           =      -8.59592701 Ry
     ewald contribution        =       2.67386164 Ry
     smearing contrib. (-TS)   =       0.00407747 Ry

     convergence has been achieved in  24 iterations

     Writing output data file pwscf.save
 
     init_run     :      0.68s CPU      0.75s WALL (       1 calls)
     electrons    :      7.56s CPU      8.63s WALL (       1 calls)

     Called by init_run:
     wfcinit      :      0.11s CPU      0.14s WALL (       1 calls)
     potinit      :      0.12s CPU      0.13s WALL (       1 calls)

     Called by electrons:
     c_bands      :      2.58s CPU      2.62s WALL (      24 calls)
     sum_band     :      1.72s CPU      1.76s WALL (      24 calls)
     v_of_rho     :      1.57s CPU      1.60s WALL (      25 calls)
     newd         :      0.73s CPU      0.75s WALL (      25 calls)
     mix_rho      :      0.93s CPU      1.70s WALL (      24 calls)

     Called by c_bands:
     init_us_2    :      0.06s CPU      0.07s WALL (      49 calls)
     cegterg      :      2.51s CPU      2.54s WALL (      24 calls)

     Called by sum_band:
     sum_band:bec :      0.00s CPU      0.00s WALL (      24 calls)
     addusdens    :      0.92s CPU      0.93s WALL (      24 calls)

     Called by *egterg:
     h_psi        :      2.33s CPU      2.36s WALL (     104 calls)
     s_psi        :      0.02s CPU      0.02s WALL (     104 calls)
     g_psi        :      0.01s CPU      0.01s WALL (      79 calls)
     cdiaghg      :      0.02s CPU      0.02s WALL (     103 calls)

     Called by h_psi:
     h_psi:pot    :      2.31s CPU      2.34s WALL (     104 calls)
     h_psi:calbec :      0.07s CPU      0.07s WALL (     104 calls)
     vloc_psi     :      2.22s CPU      2.25s WALL (     104 calls)
     add_vuspsi   :      0.02s CPU      0.02s WALL (     104 calls)

     General routines
     calbec       :      0.09s CPU      0.09s WALL (     128 calls)
     fft          :      1.34s CPU      1.37s WALL (     324 calls)
     fftw         :      2.30s CPU      2.33s WALL (    1186 calls)
     davcio       :      0.15s CPU      0.81s WALL (     387 calls)
 
     Parallel routines
     fft_scatt_xy :      0.46s CPU      0.46s WALL (    1510 calls)
     fft_scatt_yz :      1.07s CPU      1.11s WALL (    1510 calls)
 
     PWSCF        :     8.89s CPU        10.54s WALL

 
   This run was terminated on:   5:23:55  12May2018            

=------------------------------------------------------------------------------=
   JOB DONE.
=------------------------------------------------------------------------------=
