
     Program PWSCF v.6.2 (svn rev. 14038) starts on 12May2018 at 23:37:10 

     This program is part of the open-source Quantum ESPRESSO suite
     for quantum simulation of materials; please cite
         "P. Giannozzi et al., J. Phys.:Condens. Matter 21 395502 (2009);
         "P. Giannozzi et al., J. Phys.:Condens. Matter 29 465901 (2017);
          URL http://www.quantum-espresso.org", 
     in publications or presentations arising from this work. More details at
     http://www.quantum-espresso.org/quote

     Parallel version (MPI), running on    28 processors

     MPI processes distributed on     1 nodes
     R & G space division:  proc/nbgrp/npool/nimage =      28
     Reading input from ../ecut150/10500.in
Warning: card &IONS ignored
Warning: card     POT_EXTRAPOLATION='SECOND-ORDER' ignored
Warning: card     WFC_EXTRAPOLATION='SECOND-ORDER' ignored
Warning: card     ION_TEMPERATURE = 'ANDERSEN' ignored
Warning: card / ignored

     Current dimensions of program PWSCF are:
     Max number of different atomic species (ntypx) = 10
     Max number of k-points (npk) =  40000
     Max angular momentum in pseudopotentials (lmaxx) =  3

     Subspace diagonalization in iterative solution of the eigenvalue problem:
     a serial algorithm will be used

 
     Parallelization info
     --------------------
     sticks:   dense  smooth     PW     G-vecs:    dense   smooth      PW
     Min         681     681    170                70897    70897    8858
     Max         682     682    171                70904    70904    8861
     Sum       19089   19089   4765              1985227  1985227  248049
 


     bravais-lattice index     =            1
     lattice parameter (alat)  =      20.0000  a.u.
     unit-cell volume          =    8000.0000 (a.u.)^3
     number of atoms/cell      =            3
     number of atomic types    =            2
     number of electrons       =         8.00
     number of Kohn-Sham states=            8
     kinetic-energy cutoff     =     150.0000  Ry
     charge density cutoff     =     600.0000  Ry
     convergence threshold     =      1.0E-08
     mixing beta               =       0.7000
     number of iterations used =            8  plain     mixing
     Exchange-correlation      = PBE ( 1  4  3  4 0 0)

     celldm(1)=  20.000000  celldm(2)=   0.000000  celldm(3)=   0.000000
     celldm(4)=   0.000000  celldm(5)=   0.000000  celldm(6)=   0.000000

     crystal axes: (cart. coord. in units of alat)
               a(1) = (   1.000000   0.000000   0.000000 )  
               a(2) = (   0.000000   1.000000   0.000000 )  
               a(3) = (   0.000000   0.000000   1.000000 )  

     reciprocal axes: (cart. coord. in units 2 pi/alat)
               b(1) = (  1.000000  0.000000  0.000000 )  
               b(2) = (  0.000000  1.000000  0.000000 )  
               b(3) = (  0.000000  0.000000  1.000000 )  


     PseudoPot. # 1 for H  read from file:
     ../pslibrary/pbe/PSEUDOPOTENTIALS/H.pbe-rrkjus_psl.1.0.0.UPF
     MD5 check sum: b2b1ff84b4ceabe23335d1bf25025923
     Pseudo is Ultrasoft, Zval =  1.0
     Generated using "atomic" code by A. Dal Corso v.6.2 svn rev. 14038
     Using radial grid of  929 points,  2 beta functions with: 
                l(1) =   0
                l(2) =   0
     Q(r) pseudized with 0 coefficients 


     PseudoPot. # 2 for O  read from file:
     ../pslibrary/pbe/PSEUDOPOTENTIALS/O.pbe-n-rrkjus_psl.1.0.0.UPF
     MD5 check sum: 61455b21a47f6823f888c3bfb9bd1235
     Pseudo is Ultrasoft + core correction, Zval =  6.0
     Generated using "atomic" code by A. Dal Corso v.6.2 svn rev. 14038
     Using radial grid of 1095 points,  4 beta functions with: 
                l(1) =   0
                l(2) =   0
                l(3) =   1
                l(4) =   1
     Q(r) pseudized with 0 coefficients 


     atomic species   valence    mass     pseudopotential
        H              1.00     1.01000     H ( 1.00)
        O              6.00    16.00000     O ( 1.00)

     No symmetry found



   Cartesian axes

     site n.     atom                  positions (alat units)
         1           O   tau(   1) = (   0.0042177   0.0104666   0.0003017  )
         2           H   tau(   2) = (  -0.1082871  -0.1425812  -0.0212552  )
         3           H   tau(   3) = (   0.0414722  -0.0232270   0.1048398  )

     number of k points=     1  Marzari-Vanderbilt smearing, width (Ry)=  0.0250
                       cart. coord. in units 2pi/alat
        k(    1) = (   0.0000000   0.0000000   0.0000000), wk =   2.0000000

     Dense  grid:  1985227 G-vectors     FFT dimensions: ( 160, 160, 160)

     Estimated max dynamical RAM per process >      79.84 MB

     Estimated total dynamical RAM >       2.18 GB

     Initial potential from superposition of free atoms
     Check: negative starting charge=   -0.000130

     starting charge    7.99998, renormalised to    8.00000

     negative rho (up, down):  1.296E-04 0.000E+00
     Starting wfc are    6 randomized atomic wfcs +    2 random wfc

     total cpu time spent up to now is        2.6 secs

     Self-consistent Calculation

     iteration #  1     ecut=   150.00 Ry     beta= 0.70
     Davidson diagonalization with overlap
     ethr =  1.00E-02,  avg # of iterations =  8.0

     negative rho (up, down):  2.329E-04 0.000E+00

     total cpu time spent up to now is        3.9 secs

     total energy              =     -33.89104603 Ry
     Harris-Foulkes estimate   =     -34.51291430 Ry
     estimated scf accuracy    <       0.81359415 Ry

     iteration #  2     ecut=   150.00 Ry     beta= 0.70
     Davidson diagonalization with overlap
     ethr =  1.00E-02,  avg # of iterations =  4.0

     total cpu time spent up to now is        4.9 secs

     total energy              =     -33.68536992 Ry
     Harris-Foulkes estimate   =     -35.44597276 Ry
     estimated scf accuracy    <       6.12781000 Ry

     iteration #  3     ecut=   150.00 Ry     beta= 0.70
     Davidson diagonalization with overlap
     ethr =  1.00E-02,  avg # of iterations =  5.0

     total cpu time spent up to now is        6.0 secs

     total energy              =     -34.34830662 Ry
     Harris-Foulkes estimate   =     -34.36068059 Ry
     estimated scf accuracy    <       0.11117467 Ry

     iteration #  4     ecut=   150.00 Ry     beta= 0.70
     Davidson diagonalization with overlap
     ethr =  1.39E-03,  avg # of iterations =  3.0

     negative rho (up, down):  3.374E-04 0.000E+00

     total cpu time spent up to now is        7.0 secs

     total energy              =     -34.37446877 Ry
     Harris-Foulkes estimate   =     -34.38013875 Ry
     estimated scf accuracy    <       0.03849600 Ry

     iteration #  5     ecut=   150.00 Ry     beta= 0.70
     Davidson diagonalization with overlap
     ethr =  4.81E-04,  avg # of iterations =  1.0

     negative rho (up, down):  7.308E-03 0.000E+00

     total cpu time spent up to now is        7.9 secs

     total energy              =     -34.36880317 Ry
     Harris-Foulkes estimate   =     -34.37576317 Ry
     estimated scf accuracy    <       0.04951521 Ry

     iteration #  6     ecut=   150.00 Ry     beta= 0.70
     Davidson diagonalization with overlap
     ethr =  4.81E-04,  avg # of iterations =  1.0

     negative rho (up, down):  8.215E-03 0.000E+00

     total cpu time spent up to now is        9.0 secs

     total energy              =     -34.36946989 Ry
     Harris-Foulkes estimate   =     -34.37023546 Ry
     estimated scf accuracy    <       0.01037162 Ry

     iteration #  7     ecut=   150.00 Ry     beta= 0.70
     Davidson diagonalization with overlap
     ethr =  1.30E-04,  avg # of iterations =  1.0

     negative rho (up, down):  6.100E-03 0.000E+00

     total cpu time spent up to now is        9.9 secs

     total energy              =     -34.36947720 Ry
     Harris-Foulkes estimate   =     -34.36981399 Ry
     estimated scf accuracy    <       0.00440094 Ry

     iteration #  8     ecut=   150.00 Ry     beta= 0.70
     Davidson diagonalization with overlap
     ethr =  5.50E-05,  avg # of iterations =  8.0

     negative rho (up, down):  4.385E-03 0.000E+00

     total cpu time spent up to now is       11.1 secs

     total energy              =     -34.36951787 Ry
     Harris-Foulkes estimate   =     -34.36975002 Ry
     estimated scf accuracy    <       0.00285196 Ry

     iteration #  9     ecut=   150.00 Ry     beta= 0.70
     Davidson diagonalization with overlap
     ethr =  3.56E-05,  avg # of iterations =  1.0

     negative rho (up, down):  1.486E-03 0.000E+00

     total cpu time spent up to now is       12.1 secs

     total energy              =     -34.36929998 Ry
     Harris-Foulkes estimate   =     -34.36956635 Ry
     estimated scf accuracy    <       0.00172570 Ry

     iteration # 10     ecut=   150.00 Ry     beta= 0.70
     Davidson diagonalization with overlap
     ethr =  2.16E-05,  avg # of iterations =  1.0

     negative rho (up, down):  1.078E-03 0.000E+00

     total cpu time spent up to now is       13.1 secs

     total energy              =     -34.36933545 Ry
     Harris-Foulkes estimate   =     -34.36937158 Ry
     estimated scf accuracy    <       0.00038582 Ry

     iteration # 11     ecut=   150.00 Ry     beta= 0.70
     Davidson diagonalization with overlap
     ethr =  4.82E-06,  avg # of iterations =  5.0

     negative rho (up, down):  3.275E-04 0.000E+00

     total cpu time spent up to now is       14.2 secs

     total energy              =     -34.36933427 Ry
     Harris-Foulkes estimate   =     -34.36935377 Ry
     estimated scf accuracy    <       0.00010820 Ry

     iteration # 12     ecut=   150.00 Ry     beta= 0.70
     Davidson diagonalization with overlap
     ethr =  1.35E-06,  avg # of iterations =  8.0

     negative rho (up, down):  2.393E-04 0.000E+00

     total cpu time spent up to now is       15.4 secs

     total energy              =     -34.36934990 Ry
     Harris-Foulkes estimate   =     -34.36934967 Ry
     estimated scf accuracy    <       0.00000091 Ry

     iteration # 13     ecut=   150.00 Ry     beta= 0.70
     Davidson diagonalization with overlap
     ethr =  1.14E-08,  avg # of iterations =  4.0

     negative rho (up, down):  2.235E-04 0.000E+00

     total cpu time spent up to now is       16.6 secs

     total energy              =     -34.36935167 Ry
     Harris-Foulkes estimate   =     -34.36935196 Ry
     estimated scf accuracy    <       0.00000097 Ry

     iteration # 14     ecut=   150.00 Ry     beta= 0.70
     Davidson diagonalization with overlap
     ethr =  1.14E-08,  avg # of iterations =  1.0

     negative rho (up, down):  2.236E-04 0.000E+00

     total cpu time spent up to now is       17.6 secs

     total energy              =     -34.36935171 Ry
     Harris-Foulkes estimate   =     -34.36935171 Ry
     estimated scf accuracy    <       0.00000006 Ry

     iteration # 15     ecut=   150.00 Ry     beta= 0.70
     Davidson diagonalization with overlap
     ethr =  6.95E-10,  avg # of iterations =  4.0

     negative rho (up, down):  2.251E-04 0.000E+00

     total cpu time spent up to now is       18.9 secs

     total energy              =     -34.36935171 Ry
     Harris-Foulkes estimate   =     -34.36935177 Ry
     estimated scf accuracy    <       0.00000012 Ry

     iteration # 16     ecut=   150.00 Ry     beta= 0.70
     Davidson diagonalization with overlap
     ethr =  6.95E-10,  avg # of iterations =  1.0

     negative rho (up, down):  2.249E-04 0.000E+00

     total cpu time spent up to now is       19.7 secs

     End of self-consistent calculation

          k = 0.0000 0.0000 0.0000 (248049 PWs)   bands (ev):

   -22.5621  -9.8545  -8.3628  -6.6301  -5.6183  -1.3487  -0.0314   0.8218

     the Fermi energy is    -6.3170 ev

!    total energy              =     -34.36935171 Ry
     Harris-Foulkes estimate   =     -34.36935172 Ry
     estimated scf accuracy    <          8.4E-09 Ry

     The total energy is the sum of the following terms:

     one-electron contribution =     -55.01554244 Ry
     hartree contribution      =      29.14023157 Ry
     xc contribution           =      -8.23966984 Ry
     ewald contribution        =      -0.25841043 Ry
     smearing contrib. (-TS)   =       0.00403943 Ry

     convergence has been achieved in  16 iterations

     Writing output data file pwscf.save
 
     init_run     :      1.71s CPU      1.84s WALL (       1 calls)
     electrons    :     15.12s CPU     17.23s WALL (       1 calls)

     Called by init_run:
     wfcinit      :      0.18s CPU      0.22s WALL (       1 calls)
     potinit      :      0.31s CPU      0.34s WALL (       1 calls)

     Called by electrons:
     c_bands      :      6.05s CPU      6.11s WALL (      16 calls)
     sum_band     :      3.54s CPU      3.93s WALL (      16 calls)
     v_of_rho     :      2.85s CPU      2.99s WALL (      17 calls)
     newd         :      1.34s CPU      1.65s WALL (      17 calls)
     mix_rho      :      1.40s CPU      2.47s WALL (      16 calls)

     Called by c_bands:
     init_us_2    :      0.10s CPU      0.11s WALL (      33 calls)
     cegterg      :      5.95s CPU      6.00s WALL (      16 calls)

     Called by sum_band:
     sum_band:bec :      0.00s CPU      0.00s WALL (      16 calls)
     addusdens    :      1.78s CPU      2.12s WALL (      16 calls)

     Called by *egterg:
     h_psi        :      5.67s CPU      5.72s WALL (      73 calls)
     s_psi        :      0.04s CPU      0.04s WALL (      73 calls)
     g_psi        :      0.02s CPU      0.02s WALL (      56 calls)
     cdiaghg      :      0.02s CPU      0.02s WALL (      72 calls)

     Called by h_psi:
     h_psi:pot    :      5.64s CPU      5.69s WALL (      73 calls)
     h_psi:calbec :      0.08s CPU      0.08s WALL (      73 calls)
     vloc_psi     :      5.53s CPU      5.57s WALL (      73 calls)
     add_vuspsi   :      0.03s CPU      0.03s WALL (      73 calls)

     General routines
     calbec       :      0.10s CPU      0.10s WALL (      89 calls)
     fft          :      2.75s CPU      2.95s WALL (     220 calls)
     fftw         :      5.63s CPU      5.69s WALL (     802 calls)
     davcio       :      0.16s CPU      1.11s WALL (     227 calls)
 
     Parallel routines
     fft_scatt_xy :      1.33s CPU      1.34s WALL (    1022 calls)
     fft_scatt_yz :      1.72s CPU      1.90s WALL (    1022 calls)
 
     PWSCF        :    17.53s CPU        20.23s WALL

 
   This run was terminated on:  23:37:30  12May2018            

=------------------------------------------------------------------------------=
   JOB DONE.
=------------------------------------------------------------------------------=
