
     Program PWSCF v.6.2 (svn rev. 14038) starts on 12May2018 at 23:39:56 

     This program is part of the open-source Quantum ESPRESSO suite
     for quantum simulation of materials; please cite
         "P. Giannozzi et al., J. Phys.:Condens. Matter 21 395502 (2009);
         "P. Giannozzi et al., J. Phys.:Condens. Matter 29 465901 (2017);
          URL http://www.quantum-espresso.org", 
     in publications or presentations arising from this work. More details at
     http://www.quantum-espresso.org/quote

     Parallel version (MPI), running on    28 processors

     MPI processes distributed on     1 nodes
     R & G space division:  proc/nbgrp/npool/nimage =      28
     Reading input from ../ecut150/13000.in
Warning: card &IONS ignored
Warning: card     POT_EXTRAPOLATION='SECOND-ORDER' ignored
Warning: card     WFC_EXTRAPOLATION='SECOND-ORDER' ignored
Warning: card     ION_TEMPERATURE = 'ANDERSEN' ignored
Warning: card / ignored

     Current dimensions of program PWSCF are:
     Max number of different atomic species (ntypx) = 10
     Max number of k-points (npk) =  40000
     Max angular momentum in pseudopotentials (lmaxx) =  3

     Subspace diagonalization in iterative solution of the eigenvalue problem:
     a serial algorithm will be used

 
     Parallelization info
     --------------------
     sticks:   dense  smooth     PW     G-vecs:    dense   smooth      PW
     Min         681     681    170                70897    70897    8858
     Max         682     682    171                70904    70904    8861
     Sum       19089   19089   4765              1985227  1985227  248049
 


     bravais-lattice index     =            1
     lattice parameter (alat)  =      20.0000  a.u.
     unit-cell volume          =    8000.0000 (a.u.)^3
     number of atoms/cell      =            3
     number of atomic types    =            2
     number of electrons       =         8.00
     number of Kohn-Sham states=            8
     kinetic-energy cutoff     =     150.0000  Ry
     charge density cutoff     =     600.0000  Ry
     convergence threshold     =      1.0E-08
     mixing beta               =       0.7000
     number of iterations used =            8  plain     mixing
     Exchange-correlation      = PBE ( 1  4  3  4 0 0)

     celldm(1)=  20.000000  celldm(2)=   0.000000  celldm(3)=   0.000000
     celldm(4)=   0.000000  celldm(5)=   0.000000  celldm(6)=   0.000000

     crystal axes: (cart. coord. in units of alat)
               a(1) = (   1.000000   0.000000   0.000000 )  
               a(2) = (   0.000000   1.000000   0.000000 )  
               a(3) = (   0.000000   0.000000   1.000000 )  

     reciprocal axes: (cart. coord. in units 2 pi/alat)
               b(1) = (  1.000000  0.000000  0.000000 )  
               b(2) = (  0.000000  1.000000  0.000000 )  
               b(3) = (  0.000000  0.000000  1.000000 )  


     PseudoPot. # 1 for H  read from file:
     ../pslibrary/pbe/PSEUDOPOTENTIALS/H.pbe-rrkjus_psl.1.0.0.UPF
     MD5 check sum: b2b1ff84b4ceabe23335d1bf25025923
     Pseudo is Ultrasoft, Zval =  1.0
     Generated using "atomic" code by A. Dal Corso v.6.2 svn rev. 14038
     Using radial grid of  929 points,  2 beta functions with: 
                l(1) =   0
                l(2) =   0
     Q(r) pseudized with 0 coefficients 


     PseudoPot. # 2 for O  read from file:
     ../pslibrary/pbe/PSEUDOPOTENTIALS/O.pbe-n-rrkjus_psl.1.0.0.UPF
     MD5 check sum: 61455b21a47f6823f888c3bfb9bd1235
     Pseudo is Ultrasoft + core correction, Zval =  6.0
     Generated using "atomic" code by A. Dal Corso v.6.2 svn rev. 14038
     Using radial grid of 1095 points,  4 beta functions with: 
                l(1) =   0
                l(2) =   0
                l(3) =   1
                l(4) =   1
     Q(r) pseudized with 0 coefficients 


     atomic species   valence    mass     pseudopotential
        H              1.00     1.01000     H ( 1.00)
        O              6.00    16.00000     O ( 1.00)

     No symmetry found



   Cartesian axes

     site n.     atom                  positions (alat units)
         1           O   tau(   1) = (   0.0060535   0.0021101   0.0046109  )
         2           H   tau(   2) = (  -0.0062565  -0.0808981  -0.0131401  )
         3           H   tau(   3) = (  -0.0896404   0.0474709   0.0284593  )

     number of k points=     1  Marzari-Vanderbilt smearing, width (Ry)=  0.0250
                       cart. coord. in units 2pi/alat
        k(    1) = (   0.0000000   0.0000000   0.0000000), wk =   2.0000000

     Dense  grid:  1985227 G-vectors     FFT dimensions: ( 160, 160, 160)

     Estimated max dynamical RAM per process >      79.84 MB

     Estimated total dynamical RAM >       2.18 GB

     Initial potential from superposition of free atoms
     Check: negative starting charge=   -0.000144

     starting charge    7.99998, renormalised to    8.00000

     negative rho (up, down):  1.440E-04 0.000E+00
     Starting wfc are    6 randomized atomic wfcs +    2 random wfc

     total cpu time spent up to now is        2.6 secs

     Self-consistent Calculation

     iteration #  1     ecut=   150.00 Ry     beta= 0.70
     Davidson diagonalization with overlap
     ethr =  1.00E-02,  avg # of iterations =  7.0

     negative rho (up, down):  2.759E-04 0.000E+00

     total cpu time spent up to now is        3.9 secs

     total energy              =     -34.52018172 Ry
     Harris-Foulkes estimate   =     -34.88090556 Ry
     estimated scf accuracy    <       0.48687945 Ry

     iteration #  2     ecut=   150.00 Ry     beta= 0.70
     Davidson diagonalization with overlap
     ethr =  6.09E-03,  avg # of iterations =  3.0

     negative rho (up, down):  9.225E-05 0.000E+00

     total cpu time spent up to now is        5.0 secs

     total energy              =     -34.58271963 Ry
     Harris-Foulkes estimate   =     -34.88273296 Ry
     estimated scf accuracy    <       0.65616538 Ry

     iteration #  3     ecut=   150.00 Ry     beta= 0.70
     Davidson diagonalization with overlap
     ethr =  6.09E-03,  avg # of iterations =  1.0

     negative rho (up, down):  3.704E-06 0.000E+00

     total cpu time spent up to now is        5.9 secs

     total energy              =     -34.63690220 Ry
     Harris-Foulkes estimate   =     -34.66493751 Ry
     estimated scf accuracy    <       0.06033158 Ry

     iteration #  4     ecut=   150.00 Ry     beta= 0.70
     Davidson diagonalization with overlap
     ethr =  7.54E-04,  avg # of iterations =  3.0

     negative rho (up, down):  7.349E-06 0.000E+00

     total cpu time spent up to now is        7.0 secs

     total energy              =     -34.73754007 Ry
     Harris-Foulkes estimate   =     -34.76146674 Ry
     estimated scf accuracy    <       0.09964724 Ry

     iteration #  5     ecut=   150.00 Ry     beta= 0.70
     Davidson diagonalization with overlap
     ethr =  7.54E-04,  avg # of iterations =  1.0

     negative rho (up, down):  1.606E-05 0.000E+00

     total cpu time spent up to now is        7.9 secs

     total energy              =     -34.72487688 Ry
     Harris-Foulkes estimate   =     -34.73929694 Ry
     estimated scf accuracy    <       0.04921516 Ry

     iteration #  6     ecut=   150.00 Ry     beta= 0.70
     Davidson diagonalization with overlap
     ethr =  6.15E-04,  avg # of iterations =  2.0

     negative rho (up, down):  2.535E-05 0.000E+00

     total cpu time spent up to now is        8.9 secs

     total energy              =     -34.73217272 Ry
     Harris-Foulkes estimate   =     -34.73244837 Ry
     estimated scf accuracy    <       0.00314248 Ry

     iteration #  7     ecut=   150.00 Ry     beta= 0.70
     Davidson diagonalization with overlap
     ethr =  3.93E-05,  avg # of iterations =  8.0

     negative rho (up, down):  2.785E-05 0.000E+00

     total cpu time spent up to now is       10.2 secs

     total energy              =     -34.73328926 Ry
     Harris-Foulkes estimate   =     -34.73332127 Ry
     estimated scf accuracy    <       0.00126419 Ry

     iteration #  8     ecut=   150.00 Ry     beta= 0.70
     Davidson diagonalization with overlap
     ethr =  1.58E-05,  avg # of iterations =  1.0

     negative rho (up, down):  8.091E-05 0.000E+00

     total cpu time spent up to now is       11.2 secs

     total energy              =     -34.73300351 Ry
     Harris-Foulkes estimate   =     -34.73330185 Ry
     estimated scf accuracy    <       0.00108127 Ry

     iteration #  9     ecut=   150.00 Ry     beta= 0.70
     Davidson diagonalization with overlap
     ethr =  1.35E-05,  avg # of iterations =  1.0

     negative rho (up, down):  2.714E-04 0.000E+00

     total cpu time spent up to now is       12.2 secs

     total energy              =     -34.73300281 Ry
     Harris-Foulkes estimate   =     -34.73304562 Ry
     estimated scf accuracy    <       0.00032695 Ry

     iteration # 10     ecut=   150.00 Ry     beta= 0.70
     Davidson diagonalization with overlap
     ethr =  4.09E-06,  avg # of iterations =  7.0

     negative rho (up, down):  2.638E-04 0.000E+00

     total cpu time spent up to now is       13.5 secs

     total energy              =     -34.72897719 Ry
     Harris-Foulkes estimate   =     -34.72897115 Ry
     estimated scf accuracy    <       0.00012485 Ry

     iteration # 11     ecut=   150.00 Ry     beta= 0.70
     Davidson diagonalization with overlap
     ethr =  1.56E-06,  avg # of iterations =  1.0

     negative rho (up, down):  2.848E-04 0.000E+00

     total cpu time spent up to now is       14.5 secs

     total energy              =     -34.73305003 Ry
     Harris-Foulkes estimate   =     -34.73305934 Ry
     estimated scf accuracy    <       0.00011946 Ry

     iteration # 12     ecut=   150.00 Ry     beta= 0.70
     Davidson diagonalization with overlap
     ethr =  1.49E-06,  avg # of iterations =  1.0

     negative rho (up, down):  2.880E-04 0.000E+00

     total cpu time spent up to now is       15.5 secs

     total energy              =     -34.72899702 Ry
     Harris-Foulkes estimate   =     -34.72897492 Ry
     estimated scf accuracy    <       0.00009173 Ry

     iteration # 13     ecut=   150.00 Ry     beta= 0.70
     Davidson diagonalization with overlap
     ethr =  1.15E-06,  avg # of iterations =  1.0

     negative rho (up, down):  2.959E-04 0.000E+00

     total cpu time spent up to now is       16.5 secs

     total energy              =     -34.73310295 Ry
     Harris-Foulkes estimate   =     -34.73307695 Ry
     estimated scf accuracy    <       0.00013872 Ry

     iteration # 14     ecut=   150.00 Ry     beta= 0.70
     Davidson diagonalization with overlap
     ethr =  1.15E-06,  avg # of iterations =  1.0

     negative rho (up, down):  2.983E-04 0.000E+00

     total cpu time spent up to now is       17.6 secs

     total energy              =     -34.73309053 Ry
     Harris-Foulkes estimate   =     -34.73310549 Ry
     estimated scf accuracy    <       0.00021913 Ry

     iteration # 15     ecut=   150.00 Ry     beta= 0.70
     Davidson diagonalization with overlap
     ethr =  1.15E-06,  avg # of iterations =  1.0

     negative rho (up, down):  2.842E-04 0.000E+00

     total cpu time spent up to now is       18.6 secs

     total energy              =     -34.73298703 Ry
     Harris-Foulkes estimate   =     -34.73309143 Ry
     estimated scf accuracy    <       0.00018739 Ry

     iteration # 16     ecut=   150.00 Ry     beta= 0.70
     Davidson diagonalization with overlap
     ethr =  1.15E-06,  avg # of iterations =  3.0

     negative rho (up, down):  2.947E-04 0.000E+00

     total cpu time spent up to now is       19.7 secs

     total energy              =     -34.72895300 Ry
     Harris-Foulkes estimate   =     -34.72895427 Ry
     estimated scf accuracy    <       0.00000617 Ry

     iteration # 17     ecut=   150.00 Ry     beta= 0.70
     Davidson diagonalization with overlap
     ethr =  7.71E-08,  avg # of iterations =  4.0

     negative rho (up, down):  2.922E-04 0.000E+00

     total cpu time spent up to now is       20.8 secs

     total energy              =     -34.72895537 Ry
     Harris-Foulkes estimate   =     -34.72895906 Ry
     estimated scf accuracy    <       0.00000996 Ry

     iteration # 18     ecut=   150.00 Ry     beta= 0.70
     Davidson diagonalization with overlap
     ethr =  7.71E-08,  avg # of iterations =  4.0

     negative rho (up, down):  2.934E-04 0.000E+00

     total cpu time spent up to now is       21.9 secs

     total energy              =     -34.72895619 Ry
     Harris-Foulkes estimate   =     -34.72895664 Ry
     estimated scf accuracy    <       0.00000097 Ry

     iteration # 19     ecut=   150.00 Ry     beta= 0.70
     Davidson diagonalization with overlap
     ethr =  1.22E-08,  avg # of iterations =  3.0

     negative rho (up, down):  2.947E-04 0.000E+00

     total cpu time spent up to now is       23.0 secs

     total energy              =     -34.72895688 Ry
     Harris-Foulkes estimate   =     -34.72895709 Ry
     estimated scf accuracy    <       0.00000111 Ry

     iteration # 20     ecut=   150.00 Ry     beta= 0.70
     Davidson diagonalization with overlap
     ethr =  1.22E-08,  avg # of iterations =  1.0

     negative rho (up, down):  2.943E-04 0.000E+00

     total cpu time spent up to now is       24.1 secs

     total energy              =     -34.72895673 Ry
     Harris-Foulkes estimate   =     -34.72895690 Ry
     estimated scf accuracy    <       0.00000061 Ry

     iteration # 21     ecut=   150.00 Ry     beta= 0.70
     Davidson diagonalization with overlap
     ethr =  7.59E-09,  avg # of iterations =  2.0

     negative rho (up, down):  2.939E-04 0.000E+00

     total cpu time spent up to now is       25.1 secs

     total energy              =     -34.72895674 Ry
     Harris-Foulkes estimate   =     -34.72895680 Ry
     estimated scf accuracy    <       0.00000008 Ry

     iteration # 22     ecut=   150.00 Ry     beta= 0.70
     Davidson diagonalization with overlap
     ethr =  1.04E-09,  avg # of iterations =  5.0

     negative rho (up, down):  2.937E-04 0.000E+00

     total cpu time spent up to now is       26.3 secs

     total energy              =     -34.72895680 Ry
     Harris-Foulkes estimate   =     -34.72895682 Ry
     estimated scf accuracy    <       0.00000005 Ry

     iteration # 23     ecut=   150.00 Ry     beta= 0.70
     Davidson diagonalization with overlap
     ethr =  6.50E-10,  avg # of iterations =  1.0

     negative rho (up, down):  2.938E-04 0.000E+00

     total cpu time spent up to now is       27.3 secs

     total energy              =     -34.72895680 Ry
     Harris-Foulkes estimate   =     -34.72895680 Ry
     estimated scf accuracy    <       0.00000003 Ry

     iteration # 24     ecut=   150.00 Ry     beta= 0.70
     Davidson diagonalization with overlap
     ethr =  3.63E-10,  avg # of iterations =  2.0

     negative rho (up, down):  2.939E-04 0.000E+00

     total cpu time spent up to now is       28.1 secs

     End of self-consistent calculation

          k = 0.0000 0.0000 0.0000 (248049 PWs)   bands (ev):

   -24.7948 -12.6418  -8.8840  -6.9967  -1.3459   0.0812   0.5795   0.9465

     the Fermi energy is    -6.6834 ev

!    total energy              =     -34.72895680 Ry
     Harris-Foulkes estimate   =     -34.72895680 Ry
     estimated scf accuracy    <          3.4E-09 Ry

     The total energy is the sum of the following terms:

     one-electron contribution =     -63.22159977 Ry
     hartree contribution      =      33.16031216 Ry
     xc contribution           =      -8.77467392 Ry
     ewald contribution        =       4.10292727 Ry
     smearing contrib. (-TS)   =       0.00407747 Ry

     convergence has been achieved in  24 iterations

     Writing output data file pwscf.save
 
     init_run     :      1.70s CPU      1.87s WALL (       1 calls)
     electrons    :     22.44s CPU     25.73s WALL (       1 calls)

     Called by init_run:
     wfcinit      :      0.19s CPU      0.29s WALL (       1 calls)
     potinit      :      0.28s CPU      0.30s WALL (       1 calls)

     Called by electrons:
     c_bands      :      8.95s CPU      9.03s WALL (      24 calls)
     sum_band     :      5.35s CPU      5.91s WALL (      24 calls)
     v_of_rho     :      4.03s CPU      4.22s WALL (      25 calls)
     newd         :      1.90s CPU      2.38s WALL (      25 calls)
     mix_rho      :      2.24s CPU      4.05s WALL (      24 calls)

     Called by c_bands:
     init_us_2    :      0.16s CPU      0.16s WALL (      49 calls)
     cegterg      :      8.79s CPU      8.85s WALL (      24 calls)

     Called by sum_band:
     sum_band:bec :      0.00s CPU      0.00s WALL (      24 calls)
     addusdens    :      2.67s CPU      3.17s WALL (      24 calls)

     Called by *egterg:
     h_psi        :      8.37s CPU      8.43s WALL (      89 calls)
     s_psi        :      0.05s CPU      0.05s WALL (      89 calls)
     g_psi        :      0.02s CPU      0.02s WALL (      64 calls)
     cdiaghg      :      0.02s CPU      0.02s WALL (      88 calls)

     Called by h_psi:
     h_psi:pot    :      8.33s CPU      8.38s WALL (      89 calls)
     h_psi:calbec :      0.10s CPU      0.10s WALL (      89 calls)
     vloc_psi     :      8.19s CPU      8.24s WALL (      89 calls)
     add_vuspsi   :      0.04s CPU      0.04s WALL (      89 calls)

     General routines
     calbec       :      0.12s CPU      0.13s WALL (     113 calls)
     fft          :      4.03s CPU      4.28s WALL (     324 calls)
     fftw         :      8.50s CPU      8.55s WALL (    1146 calls)
     davcio       :      0.26s CPU      1.89s WALL (     387 calls)
 
     Parallel routines
     fft_scatt_xy :      1.91s CPU      1.92s WALL (    1470 calls)
     fft_scatt_yz :      2.53s CPU      2.78s WALL (    1470 calls)
 
     PWSCF        :    24.80s CPU        28.69s WALL

 
   This run was terminated on:  23:40:24  12May2018            

=------------------------------------------------------------------------------=
   JOB DONE.
=------------------------------------------------------------------------------=
