
     Program PWSCF v.6.2 (svn rev. 14038) starts on 12May2018 at 23:43: 7 

     This program is part of the open-source Quantum ESPRESSO suite
     for quantum simulation of materials; please cite
         "P. Giannozzi et al., J. Phys.:Condens. Matter 21 395502 (2009);
         "P. Giannozzi et al., J. Phys.:Condens. Matter 29 465901 (2017);
          URL http://www.quantum-espresso.org", 
     in publications or presentations arising from this work. More details at
     http://www.quantum-espresso.org/quote

     Parallel version (MPI), running on    28 processors

     MPI processes distributed on     1 nodes
     R & G space division:  proc/nbgrp/npool/nimage =      28
     Reading input from ../ecut150/16500.in
Warning: card &IONS ignored
Warning: card     POT_EXTRAPOLATION='SECOND-ORDER' ignored
Warning: card     WFC_EXTRAPOLATION='SECOND-ORDER' ignored
Warning: card     ION_TEMPERATURE = 'ANDERSEN' ignored
Warning: card / ignored

     Current dimensions of program PWSCF are:
     Max number of different atomic species (ntypx) = 10
     Max number of k-points (npk) =  40000
     Max angular momentum in pseudopotentials (lmaxx) =  3

     Subspace diagonalization in iterative solution of the eigenvalue problem:
     a serial algorithm will be used

 
     Parallelization info
     --------------------
     sticks:   dense  smooth     PW     G-vecs:    dense   smooth      PW
     Min         681     681    170                70897    70897    8858
     Max         682     682    171                70904    70904    8861
     Sum       19089   19089   4765              1985227  1985227  248049
 


     bravais-lattice index     =            1
     lattice parameter (alat)  =      20.0000  a.u.
     unit-cell volume          =    8000.0000 (a.u.)^3
     number of atoms/cell      =            3
     number of atomic types    =            2
     number of electrons       =         8.00
     number of Kohn-Sham states=            8
     kinetic-energy cutoff     =     150.0000  Ry
     charge density cutoff     =     600.0000  Ry
     convergence threshold     =      1.0E-08
     mixing beta               =       0.7000
     number of iterations used =            8  plain     mixing
     Exchange-correlation      = PBE ( 1  4  3  4 0 0)

     celldm(1)=  20.000000  celldm(2)=   0.000000  celldm(3)=   0.000000
     celldm(4)=   0.000000  celldm(5)=   0.000000  celldm(6)=   0.000000

     crystal axes: (cart. coord. in units of alat)
               a(1) = (   1.000000   0.000000   0.000000 )  
               a(2) = (   0.000000   1.000000   0.000000 )  
               a(3) = (   0.000000   0.000000   1.000000 )  

     reciprocal axes: (cart. coord. in units 2 pi/alat)
               b(1) = (  1.000000  0.000000  0.000000 )  
               b(2) = (  0.000000  1.000000  0.000000 )  
               b(3) = (  0.000000  0.000000  1.000000 )  


     PseudoPot. # 1 for H  read from file:
     ../pslibrary/pbe/PSEUDOPOTENTIALS/H.pbe-rrkjus_psl.1.0.0.UPF
     MD5 check sum: b2b1ff84b4ceabe23335d1bf25025923
     Pseudo is Ultrasoft, Zval =  1.0
     Generated using "atomic" code by A. Dal Corso v.6.2 svn rev. 14038
     Using radial grid of  929 points,  2 beta functions with: 
                l(1) =   0
                l(2) =   0
     Q(r) pseudized with 0 coefficients 


     PseudoPot. # 2 for O  read from file:
     ../pslibrary/pbe/PSEUDOPOTENTIALS/O.pbe-n-rrkjus_psl.1.0.0.UPF
     MD5 check sum: 61455b21a47f6823f888c3bfb9bd1235
     Pseudo is Ultrasoft + core correction, Zval =  6.0
     Generated using "atomic" code by A. Dal Corso v.6.2 svn rev. 14038
     Using radial grid of 1095 points,  4 beta functions with: 
                l(1) =   0
                l(2) =   0
                l(3) =   1
                l(4) =   1
     Q(r) pseudized with 0 coefficients 


     atomic species   valence    mass     pseudopotential
        H              1.00     1.01000     H ( 1.00)
        O              6.00    16.00000     O ( 1.00)

     No symmetry found



   Cartesian axes

     site n.     atom                  positions (alat units)
         1           O   tau(   1) = (  -0.0057217  -0.0020898   0.0052862  )
         2           H   tau(   2) = (   0.0264999   0.0928899   0.0233784  )
         3           H   tau(   3) = (   0.0641408  -0.0597833  -0.0187566  )

     number of k points=     1  Marzari-Vanderbilt smearing, width (Ry)=  0.0250
                       cart. coord. in units 2pi/alat
        k(    1) = (   0.0000000   0.0000000   0.0000000), wk =   2.0000000

     Dense  grid:  1985227 G-vectors     FFT dimensions: ( 160, 160, 160)

     Estimated max dynamical RAM per process >      79.84 MB

     Estimated total dynamical RAM >       2.18 GB

     Initial potential from superposition of free atoms
     Check: negative starting charge=   -0.000144

     starting charge    7.99998, renormalised to    8.00000

     negative rho (up, down):  1.441E-04 0.000E+00
     Starting wfc are    6 randomized atomic wfcs +    2 random wfc

     total cpu time spent up to now is        2.6 secs

     Self-consistent Calculation

     iteration #  1     ecut=   150.00 Ry     beta= 0.70
     Davidson diagonalization with overlap
     ethr =  1.00E-02,  avg # of iterations =  7.0

     negative rho (up, down):  2.724E-04 0.000E+00

     total cpu time spent up to now is        4.0 secs

     total energy              =     -34.56708157 Ry
     Harris-Foulkes estimate   =     -34.89678305 Ry
     estimated scf accuracy    <       0.44674407 Ry

     iteration #  2     ecut=   150.00 Ry     beta= 0.70
     Davidson diagonalization with overlap
     ethr =  5.58E-03,  avg # of iterations =  3.0

     negative rho (up, down):  1.942E-04 0.000E+00

     total cpu time spent up to now is        5.1 secs

     total energy              =     -34.62379858 Ry
     Harris-Foulkes estimate   =     -34.91227165 Ry
     estimated scf accuracy    <       0.64133322 Ry

     iteration #  3     ecut=   150.00 Ry     beta= 0.70
     Davidson diagonalization with overlap
     ethr =  5.58E-03,  avg # of iterations =  1.0

     negative rho (up, down):  3.841E-04 0.000E+00

     total cpu time spent up to now is        6.0 secs

     total energy              =     -34.62364594 Ry
     Harris-Foulkes estimate   =     -34.68385666 Ry
     estimated scf accuracy    <       0.09492694 Ry

     iteration #  4     ecut=   150.00 Ry     beta= 0.70
     Davidson diagonalization with overlap
     ethr =  1.19E-03,  avg # of iterations =  3.0

     negative rho (up, down):  2.561E-05 0.000E+00

     total cpu time spent up to now is        7.1 secs

     total energy              =     -34.75050559 Ry
     Harris-Foulkes estimate   =     -34.84941399 Ry
     estimated scf accuracy    <       0.31586610 Ry

     iteration #  5     ecut=   150.00 Ry     beta= 0.70
     Davidson diagonalization with overlap
     ethr =  1.19E-03,  avg # of iterations =  1.0

     negative rho (up, down):  2.406E-05 0.000E+00

     total cpu time spent up to now is        8.0 secs

     total energy              =     -34.74890981 Ry
     Harris-Foulkes estimate   =     -34.76100359 Ry
     estimated scf accuracy    <       0.11297459 Ry

     iteration #  6     ecut=   150.00 Ry     beta= 0.70
     Davidson diagonalization with overlap
     ethr =  1.19E-03,  avg # of iterations =  2.0

     negative rho (up, down):  2.408E-05 0.000E+00

     total cpu time spent up to now is        9.0 secs

     total energy              =     -34.75858501 Ry
     Harris-Foulkes estimate   =     -34.75864206 Ry
     estimated scf accuracy    <       0.05245936 Ry

     iteration #  7     ecut=   150.00 Ry     beta= 0.70
     Davidson diagonalization with overlap
     ethr =  6.56E-04,  avg # of iterations =  3.0

     negative rho (up, down):  2.582E-05 0.000E+00

     total cpu time spent up to now is       10.0 secs

     total energy              =     -34.76508332 Ry
     Harris-Foulkes estimate   =     -34.76340016 Ry
     estimated scf accuracy    <       0.03419735 Ry

     iteration #  8     ecut=   150.00 Ry     beta= 0.70
     Davidson diagonalization with overlap
     ethr =  4.27E-04,  avg # of iterations =  1.0

     negative rho (up, down):  2.826E-05 0.000E+00

     total cpu time spent up to now is       11.0 secs

     total energy              =     -34.76462135 Ry
     Harris-Foulkes estimate   =     -34.76582221 Ry
     estimated scf accuracy    <       0.03690658 Ry

     iteration #  9     ecut=   150.00 Ry     beta= 0.70
     Davidson diagonalization with overlap
     ethr =  4.27E-04,  avg # of iterations =  1.0

     negative rho (up, down):  4.535E-05 0.000E+00

     total cpu time spent up to now is       12.0 secs

     total energy              =     -34.76515926 Ry
     Harris-Foulkes estimate   =     -34.76547092 Ry
     estimated scf accuracy    <       0.03040756 Ry

     iteration # 10     ecut=   150.00 Ry     beta= 0.70
     Davidson diagonalization with overlap
     ethr =  3.80E-04,  avg # of iterations =  1.0

     negative rho (up, down):  1.801E-03 0.000E+00

     total cpu time spent up to now is       13.0 secs

     total energy              =     -34.76123144 Ry
     Harris-Foulkes estimate   =     -34.76556354 Ry
     estimated scf accuracy    <       0.02868891 Ry

     iteration # 11     ecut=   150.00 Ry     beta= 0.70
     Davidson diagonalization with overlap
     ethr =  3.59E-04,  avg # of iterations =  1.0

     negative rho (up, down):  2.478E-03 0.000E+00

     total cpu time spent up to now is       14.0 secs

     total energy              =     -34.76644957 Ry
     Harris-Foulkes estimate   =     -34.76191656 Ry
     estimated scf accuracy    <       0.01798664 Ry

     iteration # 12     ecut=   150.00 Ry     beta= 0.70
     Davidson diagonalization with overlap
     ethr =  2.25E-04,  avg # of iterations =  1.0

     negative rho (up, down):  2.611E-03 0.000E+00

     total cpu time spent up to now is       15.0 secs

     total energy              =     -34.76742671 Ry
     Harris-Foulkes estimate   =     -34.76685997 Ry
     estimated scf accuracy    <       0.02782180 Ry

     iteration # 13     ecut=   150.00 Ry     beta= 0.70
     Davidson diagonalization with overlap
     ethr =  2.25E-04,  avg # of iterations =  1.0

     negative rho (up, down):  2.286E-03 0.000E+00

     total cpu time spent up to now is       16.0 secs

     total energy              =     -34.76517247 Ry
     Harris-Foulkes estimate   =     -34.76762681 Ry
     estimated scf accuracy    <       0.02898063 Ry

     iteration # 14     ecut=   150.00 Ry     beta= 0.70
     Davidson diagonalization with overlap
     ethr =  2.25E-04,  avg # of iterations =  1.0

     negative rho (up, down):  1.143E-03 0.000E+00

     total cpu time spent up to now is       17.0 secs

     total energy              =     -34.75481183 Ry
     Harris-Foulkes estimate   =     -34.76541453 Ry
     estimated scf accuracy    <       0.02283081 Ry

     iteration # 15     ecut=   150.00 Ry     beta= 0.70
     Davidson diagonalization with overlap
     ethr =  2.25E-04,  avg # of iterations =  3.0

     negative rho (up, down):  6.406E-04 0.000E+00

     total cpu time spent up to now is       18.1 secs

     total energy              =     -34.75518712 Ry
     Harris-Foulkes estimate   =     -34.75538436 Ry
     estimated scf accuracy    <       0.00120103 Ry

     iteration # 16     ecut=   150.00 Ry     beta= 0.70
     Davidson diagonalization with overlap
     ethr =  1.50E-05,  avg # of iterations =  5.0

     negative rho (up, down):  4.623E-04 0.000E+00

     total cpu time spent up to now is       19.4 secs

     total energy              =     -34.75687699 Ry
     Harris-Foulkes estimate   =     -34.75781012 Ry
     estimated scf accuracy    <       0.00343063 Ry

     iteration # 17     ecut=   150.00 Ry     beta= 0.70
     Davidson diagonalization with overlap
     ethr =  1.50E-05,  avg # of iterations =  8.0

     negative rho (up, down):  3.580E-04 0.000E+00

     total cpu time spent up to now is       20.5 secs

     total energy              =     -34.76040182 Ry
     Harris-Foulkes estimate   =     -34.76106683 Ry
     estimated scf accuracy    <       0.00132534 Ry

     iteration # 18     ecut=   150.00 Ry     beta= 0.70
     Davidson diagonalization with overlap
     ethr =  1.50E-05,  avg # of iterations =  3.0

     negative rho (up, down):  4.040E-04 0.000E+00

     total cpu time spent up to now is       21.7 secs

     total energy              =     -34.76170042 Ry
     Harris-Foulkes estimate   =     -34.76129384 Ry
     estimated scf accuracy    <       0.00131487 Ry

     iteration # 19     ecut=   150.00 Ry     beta= 0.70
     Davidson diagonalization with overlap
     ethr =  1.50E-05,  avg # of iterations =  3.0

     negative rho (up, down):  3.576E-04 0.000E+00

     total cpu time spent up to now is       22.8 secs

     total energy              =     -34.76184243 Ry
     Harris-Foulkes estimate   =     -34.76197589 Ry
     estimated scf accuracy    <       0.00328283 Ry

     iteration # 20     ecut=   150.00 Ry     beta= 0.70
     Davidson diagonalization with overlap
     ethr =  1.50E-05,  avg # of iterations =  1.0

     negative rho (up, down):  6.299E-04 0.000E+00

     total cpu time spent up to now is       23.8 secs

     total energy              =     -34.76201845 Ry
     Harris-Foulkes estimate   =     -34.76184734 Ry
     estimated scf accuracy    <       0.00301717 Ry

     iteration # 21     ecut=   150.00 Ry     beta= 0.70
     Davidson diagonalization with overlap
     ethr =  1.50E-05,  avg # of iterations =  1.0

     negative rho (up, down):  6.765E-04 0.000E+00

     total cpu time spent up to now is       24.7 secs

     total energy              =     -34.76239189 Ry
     Harris-Foulkes estimate   =     -34.76203470 Ry
     estimated scf accuracy    <       0.00351489 Ry

     iteration # 22     ecut=   150.00 Ry     beta= 0.70
     Davidson diagonalization with overlap
     ethr =  1.50E-05,  avg # of iterations =  1.0

     negative rho (up, down):  6.620E-04 0.000E+00

     total cpu time spent up to now is       25.7 secs

     total energy              =     -34.76231058 Ry
     Harris-Foulkes estimate   =     -34.76244133 Ry
     estimated scf accuracy    <       0.00488849 Ry

     iteration # 23     ecut=   150.00 Ry     beta= 0.70
     Davidson diagonalization with overlap
     ethr =  1.50E-05,  avg # of iterations =  1.0

     negative rho (up, down):  5.300E-04 0.000E+00

     total cpu time spent up to now is       26.7 secs

     total energy              =     -34.76179208 Ry
     Harris-Foulkes estimate   =     -34.76232282 Ry
     estimated scf accuracy    <       0.00459183 Ry

     iteration # 24     ecut=   150.00 Ry     beta= 0.70
     Davidson diagonalization with overlap
     ethr =  1.50E-05,  avg # of iterations =  1.0

     negative rho (up, down):  2.939E-04 0.000E+00

     total cpu time spent up to now is       27.7 secs

     total energy              =     -34.76020695 Ry
     Harris-Foulkes estimate   =     -34.76180746 Ry
     estimated scf accuracy    <       0.00350119 Ry

     iteration # 25     ecut=   150.00 Ry     beta= 0.70
     Davidson diagonalization with overlap
     ethr =  1.50E-05,  avg # of iterations =  3.0

     negative rho (up, down):  2.770E-04 0.000E+00

     total cpu time spent up to now is       28.9 secs

     total energy              =     -34.76103038 Ry
     Harris-Foulkes estimate   =     -34.76101257 Ry
     estimated scf accuracy    <       0.00015894 Ry

     iteration # 26     ecut=   150.00 Ry     beta= 0.70
     Davidson diagonalization with overlap
     ethr =  1.99E-06,  avg # of iterations =  1.0

     negative rho (up, down):  2.499E-04 0.000E+00

     total cpu time spent up to now is       29.9 secs

     total energy              =     -34.76109070 Ry
     Harris-Foulkes estimate   =     -34.76103219 Ry
     estimated scf accuracy    <       0.00020263 Ry

     iteration # 27     ecut=   150.00 Ry     beta= 0.70
     Davidson diagonalization with overlap
     ethr =  1.99E-06,  avg # of iterations =  1.0

     negative rho (up, down):  2.629E-04 0.000E+00

     total cpu time spent up to now is       30.9 secs

     total energy              =     -34.75698539 Ry
     Harris-Foulkes estimate   =     -34.75702482 Ry
     estimated scf accuracy    <       0.00039536 Ry

     iteration # 28     ecut=   150.00 Ry     beta= 0.70
     Davidson diagonalization with overlap
     ethr =  1.99E-06,  avg # of iterations =  1.0

     negative rho (up, down):  2.436E-04 0.000E+00

     total cpu time spent up to now is       31.9 secs

     total energy              =     -34.75698955 Ry
     Harris-Foulkes estimate   =     -34.75698913 Ry
     estimated scf accuracy    <       0.00029812 Ry

     iteration # 29     ecut=   150.00 Ry     beta= 0.70
     Davidson diagonalization with overlap
     ethr =  1.99E-06,  avg # of iterations =  1.0

     negative rho (up, down):  2.450E-04 0.000E+00

     total cpu time spent up to now is       32.9 secs

     total energy              =     -34.75695816 Ry
     Harris-Foulkes estimate   =     -34.75699752 Ry
     estimated scf accuracy    <       0.00036326 Ry

     iteration # 30     ecut=   150.00 Ry     beta= 0.70
     Davidson diagonalization with overlap
     ethr =  1.99E-06,  avg # of iterations =  1.0

     negative rho (up, down):  2.530E-04 0.000E+00

     total cpu time spent up to now is       33.9 secs

     total energy              =     -34.76099938 Ry
     Harris-Foulkes estimate   =     -34.76103872 Ry
     estimated scf accuracy    <       0.00025914 Ry

     iteration # 31     ecut=   150.00 Ry     beta= 0.70
     Davidson diagonalization with overlap
     ethr =  1.99E-06,  avg # of iterations =  1.0

     negative rho (up, down):  2.791E-04 0.000E+00

     total cpu time spent up to now is       35.0 secs

     total energy              =     -34.76092893 Ry
     Harris-Foulkes estimate   =     -34.76100148 Ry
     estimated scf accuracy    <       0.00016545 Ry

     iteration # 32     ecut=   150.00 Ry     beta= 0.70
     Davidson diagonalization with overlap
     ethr =  1.99E-06,  avg # of iterations =  1.0

     negative rho (up, down):  2.929E-04 0.000E+00

     total cpu time spent up to now is       36.0 secs

     total energy              =     -34.76093343 Ry
     Harris-Foulkes estimate   =     -34.76094275 Ry
     estimated scf accuracy    <       0.00002019 Ry

     iteration # 33     ecut=   150.00 Ry     beta= 0.70
     Davidson diagonalization with overlap
     ethr =  2.52E-07,  avg # of iterations =  3.0

     negative rho (up, down):  2.910E-04 0.000E+00

     total cpu time spent up to now is       37.1 secs

     total energy              =     -34.76096530 Ry
     Harris-Foulkes estimate   =     -34.76097193 Ry
     estimated scf accuracy    <       0.00003107 Ry

     iteration # 34     ecut=   150.00 Ry     beta= 0.70
     Davidson diagonalization with overlap
     ethr =  2.52E-07,  avg # of iterations =  1.0

     negative rho (up, down):  2.869E-04 0.000E+00

     total cpu time spent up to now is       38.1 secs

     total energy              =     -34.76095735 Ry
     Harris-Foulkes estimate   =     -34.76096576 Ry
     estimated scf accuracy    <       0.00001673 Ry

     iteration # 35     ecut=   150.00 Ry     beta= 0.70
     Davidson diagonalization with overlap
     ethr =  2.09E-07,  avg # of iterations =  6.0

     negative rho (up, down):  2.895E-04 0.000E+00

     total cpu time spent up to now is       39.2 secs

     total energy              =     -34.76096348 Ry
     Harris-Foulkes estimate   =     -34.76096461 Ry
     estimated scf accuracy    <       0.00000305 Ry

     iteration # 36     ecut=   150.00 Ry     beta= 0.70
     Davidson diagonalization with overlap
     ethr =  3.81E-08,  avg # of iterations =  1.0

     negative rho (up, down):  2.903E-04 0.000E+00

     total cpu time spent up to now is       40.2 secs

     total energy              =     -34.76096309 Ry
     Harris-Foulkes estimate   =     -34.76096361 Ry
     estimated scf accuracy    <       0.00000086 Ry

     iteration # 37     ecut=   150.00 Ry     beta= 0.70
     Davidson diagonalization with overlap
     ethr =  1.08E-08,  avg # of iterations =  3.0

     negative rho (up, down):  2.897E-04 0.000E+00

     total cpu time spent up to now is       41.3 secs

     total energy              =     -34.76096377 Ry
     Harris-Foulkes estimate   =     -34.76096401 Ry
     estimated scf accuracy    <       0.00000088 Ry

     iteration # 38     ecut=   150.00 Ry     beta= 0.70
     Davidson diagonalization with overlap
     ethr =  1.08E-08,  avg # of iterations =  1.0

     negative rho (up, down):  2.895E-04 0.000E+00

     total cpu time spent up to now is       42.4 secs

     total energy              =     -34.76096367 Ry
     Harris-Foulkes estimate   =     -34.76096379 Ry
     estimated scf accuracy    <       0.00000039 Ry

     iteration # 39     ecut=   150.00 Ry     beta= 0.70
     Davidson diagonalization with overlap
     ethr =  4.91E-09,  avg # of iterations =  3.0

     negative rho (up, down):  2.895E-04 0.000E+00

     total cpu time spent up to now is       43.3 secs

     End of self-consistent calculation

          k = 0.0000 0.0000 0.0000 (248049 PWs)   bands (ev):

   -24.4329 -12.7458  -8.6999  -6.9493  -1.1891   0.1983   0.5017   0.9484

     the Fermi energy is    -5.0568 ev

!    total energy              =     -34.76096377 Ry
     Harris-Foulkes estimate   =     -34.76096377 Ry
     estimated scf accuracy    <          8.9E-10 Ry

     The total energy is the sum of the following terms:

     one-electron contribution =     -62.87316452 Ry
     hartree contribution      =      33.00094280 Ry
     xc contribution           =      -8.74131454 Ry
     ewald contribution        =       3.85257249 Ry
     smearing contrib. (-TS)   =       0.00000000 Ry

     convergence has been achieved in  39 iterations

     Writing output data file pwscf.save
 
     init_run     :      1.72s CPU      1.86s WALL (       1 calls)
     electrons    :     35.46s CPU     40.82s WALL (       1 calls)

     Called by init_run:
     wfcinit      :      0.20s CPU      0.25s WALL (       1 calls)
     potinit      :      0.27s CPU      0.30s WALL (       1 calls)

     Called by electrons:
     c_bands      :     13.30s CPU     13.43s WALL (      39 calls)
     sum_band     :      8.70s CPU      9.60s WALL (      39 calls)
     v_of_rho     :      6.51s CPU      6.82s WALL (      40 calls)
     newd         :      3.04s CPU      3.77s WALL (      40 calls)
     mix_rho      :      3.75s CPU      6.87s WALL (      39 calls)

     Called by c_bands:
     init_us_2    :      0.26s CPU      0.27s WALL (      79 calls)
     cegterg      :     13.06s CPU     13.15s WALL (      39 calls)

     Called by sum_band:
     sum_band:bec :      0.00s CPU      0.00s WALL (      39 calls)
     addusdens    :      4.36s CPU      5.15s WALL (      39 calls)

     Called by *egterg:
     h_psi        :     12.41s CPU     12.49s WALL (     122 calls)
     s_psi        :      0.07s CPU      0.08s WALL (     122 calls)
     g_psi        :      0.04s CPU      0.04s WALL (      82 calls)
     cdiaghg      :      0.03s CPU      0.03s WALL (     121 calls)

     Called by h_psi:
     h_psi:pot    :     12.34s CPU     12.42s WALL (     122 calls)
     h_psi:calbec :      0.17s CPU      0.17s WALL (     122 calls)
     vloc_psi     :     12.10s CPU     12.18s WALL (     122 calls)
     add_vuspsi   :      0.06s CPU      0.06s WALL (     122 calls)

     General routines
     calbec       :      0.22s CPU      0.23s WALL (     161 calls)
     fft          :      6.52s CPU      6.95s WALL (     519 calls)
     fftw         :     12.61s CPU     12.70s WALL (    1782 calls)
     davcio       :      0.48s CPU      3.31s WALL (     687 calls)
 
     Parallel routines
     fft_scatt_xy :      2.98s CPU      3.00s WALL (    2301 calls)
     fft_scatt_yz :      4.06s CPU      4.49s WALL (    2301 calls)
 
     PWSCF        :    37.83s CPU        43.84s WALL

 
   This run was terminated on:  23:43:51  12May2018            

=------------------------------------------------------------------------------=
   JOB DONE.
=------------------------------------------------------------------------------=
