
     Program PWSCF v.6.2 (svn rev. 14038) starts on 12May2018 at 23:49:48 

     This program is part of the open-source Quantum ESPRESSO suite
     for quantum simulation of materials; please cite
         "P. Giannozzi et al., J. Phys.:Condens. Matter 21 395502 (2009);
         "P. Giannozzi et al., J. Phys.:Condens. Matter 29 465901 (2017);
          URL http://www.quantum-espresso.org", 
     in publications or presentations arising from this work. More details at
     http://www.quantum-espresso.org/quote

     Parallel version (MPI), running on    28 processors

     MPI processes distributed on     1 nodes
     R & G space division:  proc/nbgrp/npool/nimage =      28
     Reading input from ../ecut150/22500.in
Warning: card &IONS ignored
Warning: card     POT_EXTRAPOLATION='SECOND-ORDER' ignored
Warning: card     WFC_EXTRAPOLATION='SECOND-ORDER' ignored
Warning: card     ION_TEMPERATURE = 'ANDERSEN' ignored
Warning: card / ignored

     Current dimensions of program PWSCF are:
     Max number of different atomic species (ntypx) = 10
     Max number of k-points (npk) =  40000
     Max angular momentum in pseudopotentials (lmaxx) =  3

     Subspace diagonalization in iterative solution of the eigenvalue problem:
     a serial algorithm will be used

 
     Parallelization info
     --------------------
     sticks:   dense  smooth     PW     G-vecs:    dense   smooth      PW
     Min         681     681    170                70897    70897    8858
     Max         682     682    171                70904    70904    8861
     Sum       19089   19089   4765              1985227  1985227  248049
 


     bravais-lattice index     =            1
     lattice parameter (alat)  =      20.0000  a.u.
     unit-cell volume          =    8000.0000 (a.u.)^3
     number of atoms/cell      =            3
     number of atomic types    =            2
     number of electrons       =         8.00
     number of Kohn-Sham states=            8
     kinetic-energy cutoff     =     150.0000  Ry
     charge density cutoff     =     600.0000  Ry
     convergence threshold     =      1.0E-08
     mixing beta               =       0.7000
     number of iterations used =            8  plain     mixing
     Exchange-correlation      = PBE ( 1  4  3  4 0 0)

     celldm(1)=  20.000000  celldm(2)=   0.000000  celldm(3)=   0.000000
     celldm(4)=   0.000000  celldm(5)=   0.000000  celldm(6)=   0.000000

     crystal axes: (cart. coord. in units of alat)
               a(1) = (   1.000000   0.000000   0.000000 )  
               a(2) = (   0.000000   1.000000   0.000000 )  
               a(3) = (   0.000000   0.000000   1.000000 )  

     reciprocal axes: (cart. coord. in units 2 pi/alat)
               b(1) = (  1.000000  0.000000  0.000000 )  
               b(2) = (  0.000000  1.000000  0.000000 )  
               b(3) = (  0.000000  0.000000  1.000000 )  


     PseudoPot. # 1 for H  read from file:
     ../pslibrary/pbe/PSEUDOPOTENTIALS/H.pbe-rrkjus_psl.1.0.0.UPF
     MD5 check sum: b2b1ff84b4ceabe23335d1bf25025923
     Pseudo is Ultrasoft, Zval =  1.0
     Generated using "atomic" code by A. Dal Corso v.6.2 svn rev. 14038
     Using radial grid of  929 points,  2 beta functions with: 
                l(1) =   0
                l(2) =   0
     Q(r) pseudized with 0 coefficients 


     PseudoPot. # 2 for O  read from file:
     ../pslibrary/pbe/PSEUDOPOTENTIALS/O.pbe-n-rrkjus_psl.1.0.0.UPF
     MD5 check sum: 61455b21a47f6823f888c3bfb9bd1235
     Pseudo is Ultrasoft + core correction, Zval =  6.0
     Generated using "atomic" code by A. Dal Corso v.6.2 svn rev. 14038
     Using radial grid of 1095 points,  4 beta functions with: 
                l(1) =   0
                l(2) =   0
                l(3) =   1
                l(4) =   1
     Q(r) pseudized with 0 coefficients 


     atomic species   valence    mass     pseudopotential
        H              1.00     1.01000     H ( 1.00)
        O              6.00    16.00000     O ( 1.00)

     No symmetry found



   Cartesian axes

     site n.     atom                  positions (alat units)
         1           O   tau(   1) = (  -0.0057188   0.0097813   0.0032202  )
         2           H   tau(   2) = (   0.1200451  -0.0779390  -0.0421601  )
         3           H   tau(   3) = (  -0.0294511  -0.0770122   0.0795115  )

     number of k points=     1  Marzari-Vanderbilt smearing, width (Ry)=  0.0250
                       cart. coord. in units 2pi/alat
        k(    1) = (   0.0000000   0.0000000   0.0000000), wk =   2.0000000

     Dense  grid:  1985227 G-vectors     FFT dimensions: ( 160, 160, 160)

     Estimated max dynamical RAM per process >      79.84 MB

     Estimated total dynamical RAM >       2.18 GB

     Initial potential from superposition of free atoms
     Check: negative starting charge=   -0.000137

     starting charge    7.99998, renormalised to    8.00000

     negative rho (up, down):  1.368E-04 0.000E+00
     Starting wfc are    6 randomized atomic wfcs +    2 random wfc

     total cpu time spent up to now is        2.6 secs

     Self-consistent Calculation

     iteration #  1     ecut=   150.00 Ry     beta= 0.70
     Davidson diagonalization with overlap
     ethr =  1.00E-02,  avg # of iterations =  8.0

     negative rho (up, down):  2.286E-04 0.000E+00

     total cpu time spent up to now is        3.9 secs

     total energy              =     -34.14443226 Ry
     Harris-Foulkes estimate   =     -34.56861024 Ry
     estimated scf accuracy    <       0.56158225 Ry

     iteration #  2     ecut=   150.00 Ry     beta= 0.70
     Davidson diagonalization with overlap
     ethr =  7.02E-03,  avg # of iterations =  4.0

     negative rho (up, down):  1.348E-04 0.000E+00

     total cpu time spent up to now is        4.9 secs

     total energy              =     -34.01977453 Ry
     Harris-Foulkes estimate   =     -35.06881980 Ry
     estimated scf accuracy    <       3.44983773 Ry

     iteration #  3     ecut=   150.00 Ry     beta= 0.70
     Davidson diagonalization with overlap
     ethr =  7.02E-03,  avg # of iterations =  4.0

     negative rho (up, down):  6.153E-05 0.000E+00

     total cpu time spent up to now is        5.9 secs

     total energy              =     -34.33629859 Ry
     Harris-Foulkes estimate   =     -34.35272440 Ry
     estimated scf accuracy    <       0.10543330 Ry

     iteration #  4     ecut=   150.00 Ry     beta= 0.70
     Davidson diagonalization with overlap
     ethr =  1.32E-03,  avg # of iterations =  4.0

     negative rho (up, down):  7.822E-05 0.000E+00

     total cpu time spent up to now is        6.9 secs

     total energy              =     -34.45824636 Ry
     Harris-Foulkes estimate   =     -34.46305311 Ry
     estimated scf accuracy    <       0.03238713 Ry

     iteration #  5     ecut=   150.00 Ry     beta= 0.70
     Davidson diagonalization with overlap
     ethr =  4.05E-04,  avg # of iterations =  1.0

     negative rho (up, down):  9.273E-05 0.000E+00

     total cpu time spent up to now is        7.9 secs

     total energy              =     -34.45696999 Ry
     Harris-Foulkes estimate   =     -34.45918757 Ry
     estimated scf accuracy    <       0.01903853 Ry

     iteration #  6     ecut=   150.00 Ry     beta= 0.70
     Davidson diagonalization with overlap
     ethr =  2.38E-04,  avg # of iterations =  1.0

     negative rho (up, down):  1.090E-04 0.000E+00

     total cpu time spent up to now is        8.9 secs

     total energy              =     -34.45619912 Ry
     Harris-Foulkes estimate   =     -34.45723857 Ry
     estimated scf accuracy    <       0.01044844 Ry

     iteration #  7     ecut=   150.00 Ry     beta= 0.70
     Davidson diagonalization with overlap
     ethr =  1.31E-04,  avg # of iterations =  1.0

     negative rho (up, down):  1.195E-04 0.000E+00

     total cpu time spent up to now is        9.8 secs

     total energy              =     -34.45617739 Ry
     Harris-Foulkes estimate   =     -34.45649470 Ry
     estimated scf accuracy    <       0.00571769 Ry

     iteration #  8     ecut=   150.00 Ry     beta= 0.70
     Davidson diagonalization with overlap
     ethr =  7.15E-05,  avg # of iterations =  1.0

     negative rho (up, down):  1.259E-04 0.000E+00

     total cpu time spent up to now is       10.9 secs

     total energy              =     -34.45630778 Ry
     Harris-Foulkes estimate   =     -34.45632400 Ry
     estimated scf accuracy    <       0.00378238 Ry

     iteration #  9     ecut=   150.00 Ry     beta= 0.70
     Davidson diagonalization with overlap
     ethr =  4.73E-05,  avg # of iterations =  1.0

     negative rho (up, down):  1.758E-04 0.000E+00

     total cpu time spent up to now is       11.9 secs

     total energy              =     -34.45578179 Ry
     Harris-Foulkes estimate   =     -34.45635979 Ry
     estimated scf accuracy    <       0.00338475 Ry

     iteration # 10     ecut=   150.00 Ry     beta= 0.70
     Davidson diagonalization with overlap
     ethr =  4.23E-05,  avg # of iterations =  1.0

     negative rho (up, down):  1.886E-04 0.000E+00

     total cpu time spent up to now is       12.9 secs

     total energy              =     -34.45577272 Ry
     Harris-Foulkes estimate   =     -34.45590133 Ry
     estimated scf accuracy    <       0.00117015 Ry

     iteration # 11     ecut=   150.00 Ry     beta= 0.70
     Davidson diagonalization with overlap
     ethr =  1.46E-05,  avg # of iterations =  9.0

     negative rho (up, down):  1.899E-04 0.000E+00

     total cpu time spent up to now is       14.2 secs

     total energy              =     -34.45602354 Ry
     Harris-Foulkes estimate   =     -34.45602400 Ry
     estimated scf accuracy    <       0.00012421 Ry

     iteration # 12     ecut=   150.00 Ry     beta= 0.70
     Davidson diagonalization with overlap
     c_bands:  1 eigenvalues not converged
     ethr =  1.55E-06,  avg # of iterations = 20.0

     negative rho (up, down):  2.355E-04 0.000E+00

     total cpu time spent up to now is       15.7 secs

     total energy              =     -34.45599068 Ry
     Harris-Foulkes estimate   =     -34.45602463 Ry
     estimated scf accuracy    <       0.00011737 Ry

     iteration # 13     ecut=   150.00 Ry     beta= 0.70
     Davidson diagonalization with overlap
     ethr =  1.47E-06,  avg # of iterations =  8.0

     negative rho (up, down):  2.351E-04 0.000E+00

     total cpu time spent up to now is       16.8 secs

     total energy              =     -34.45599987 Ry
     Harris-Foulkes estimate   =     -34.45600053 Ry
     estimated scf accuracy    <       0.00000529 Ry

     iteration # 14     ecut=   150.00 Ry     beta= 0.70
     Davidson diagonalization with overlap
     ethr =  6.62E-08,  avg # of iterations =  4.0

     negative rho (up, down):  2.357E-04 0.000E+00

     total cpu time spent up to now is       18.0 secs

     total energy              =     -34.45600426 Ry
     Harris-Foulkes estimate   =     -34.45600434 Ry
     estimated scf accuracy    <       0.00000278 Ry

     iteration # 15     ecut=   150.00 Ry     beta= 0.70
     Davidson diagonalization with overlap
     ethr =  3.47E-08,  avg # of iterations =  1.0

     negative rho (up, down):  2.366E-04 0.000E+00

     total cpu time spent up to now is       19.0 secs

     total energy              =     -34.45600392 Ry
     Harris-Foulkes estimate   =     -34.45600427 Ry
     estimated scf accuracy    <       0.00000239 Ry

     iteration # 16     ecut=   150.00 Ry     beta= 0.70
     Davidson diagonalization with overlap
     ethr =  2.99E-08,  avg # of iterations =  1.0

     negative rho (up, down):  2.372E-04 0.000E+00

     total cpu time spent up to now is       20.0 secs

     total energy              =     -34.45600374 Ry
     Harris-Foulkes estimate   =     -34.45600394 Ry
     estimated scf accuracy    <       0.00000114 Ry

     iteration # 17     ecut=   150.00 Ry     beta= 0.70
     Davidson diagonalization with overlap
     ethr =  1.43E-08,  avg # of iterations =  1.0

     negative rho (up, down):  2.372E-04 0.000E+00

     total cpu time spent up to now is       21.1 secs

     total energy              =     -34.45600368 Ry
     Harris-Foulkes estimate   =     -34.45600378 Ry
     estimated scf accuracy    <       0.00000049 Ry

     iteration # 18     ecut=   150.00 Ry     beta= 0.70
     Davidson diagonalization with overlap
     ethr =  6.18E-09,  avg # of iterations =  3.0

     negative rho (up, down):  2.371E-04 0.000E+00

     total cpu time spent up to now is       22.1 secs

     total energy              =     -34.45600375 Ry
     Harris-Foulkes estimate   =     -34.45600377 Ry
     estimated scf accuracy    <       0.00000006 Ry

     iteration # 19     ecut=   150.00 Ry     beta= 0.70
     Davidson diagonalization with overlap
     ethr =  7.85E-10,  avg # of iterations =  1.0

     negative rho (up, down):  2.376E-04 0.000E+00

     total cpu time spent up to now is       23.0 secs

     End of self-consistent calculation

          k = 0.0000 0.0000 0.0000 (248049 PWs)   bands (ev):

   -22.5962  -9.8375  -8.9445  -6.6630  -4.4110  -1.4221  -0.0339   0.8353

     the Fermi energy is    -6.3497 ev

!    total energy              =     -34.45600375 Ry
     Harris-Foulkes estimate   =     -34.45600376 Ry
     estimated scf accuracy    <          5.3E-09 Ry

     The total energy is the sum of the following terms:

     one-electron contribution =     -56.25323320 Ry
     hartree contribution      =      29.74323520 Ry
     xc contribution           =      -8.28457532 Ry
     ewald contribution        =       0.33449209 Ry
     smearing contrib. (-TS)   =       0.00407747 Ry

     convergence has been achieved in  19 iterations

     Writing output data file pwscf.save
 
     init_run     :      1.70s CPU      1.84s WALL (       1 calls)
     electrons    :     17.81s CPU     20.53s WALL (       1 calls)

     Called by init_run:
     wfcinit      :      0.18s CPU      0.23s WALL (       1 calls)
     potinit      :      0.28s CPU      0.30s WALL (       1 calls)

     Called by electrons:
     c_bands      :      7.16s CPU      7.26s WALL (      19 calls)
     sum_band     :      4.24s CPU      4.70s WALL (      19 calls)
     v_of_rho     :      3.32s CPU      3.48s WALL (      20 calls)
     newd         :      1.54s CPU      1.91s WALL (      20 calls)
     mix_rho      :      1.63s CPU      3.03s WALL (      19 calls)

     Called by c_bands:
     init_us_2    :      0.12s CPU      0.13s WALL (      39 calls)
     cegterg      :      7.03s CPU      7.12s WALL (      19 calls)

     Called by sum_band:
     sum_band:bec :      0.00s CPU      0.00s WALL (      19 calls)
     addusdens    :      2.12s CPU      2.51s WALL (      19 calls)

     Called by *egterg:
     h_psi        :      6.65s CPU      6.73s WALL (      94 calls)
     s_psi        :      0.04s CPU      0.04s WALL (      94 calls)
     g_psi        :      0.02s CPU      0.02s WALL (      74 calls)
     cdiaghg      :      0.02s CPU      0.02s WALL (      93 calls)

     Called by h_psi:
     h_psi:pot    :      6.62s CPU      6.70s WALL (      94 calls)
     h_psi:calbec :      0.12s CPU      0.12s WALL (      94 calls)
     vloc_psi     :      6.46s CPU      6.53s WALL (      94 calls)
     add_vuspsi   :      0.04s CPU      0.04s WALL (      94 calls)

     General routines
     calbec       :      0.15s CPU      0.16s WALL (     113 calls)
     fft          :      3.26s CPU      3.48s WALL (     259 calls)
     fftw         :      6.67s CPU      6.75s WALL (     936 calls)
     davcio       :      0.19s CPU      1.46s WALL (     287 calls)
 
     Parallel routines
     fft_scatt_xy :      1.58s CPU      1.59s WALL (    1195 calls)
     fft_scatt_yz :      2.05s CPU      2.28s WALL (    1195 calls)
 
     PWSCF        :    20.25s CPU        23.51s WALL

 
   This run was terminated on:  23:50:11  12May2018            

=------------------------------------------------------------------------------=
   JOB DONE.
=------------------------------------------------------------------------------=
