
     Program PWSCF v.6.2 (svn rev. 14038) starts on 12May2018 at 23:30:22 

     This program is part of the open-source Quantum ESPRESSO suite
     for quantum simulation of materials; please cite
         "P. Giannozzi et al., J. Phys.:Condens. Matter 21 395502 (2009);
         "P. Giannozzi et al., J. Phys.:Condens. Matter 29 465901 (2017);
          URL http://www.quantum-espresso.org", 
     in publications or presentations arising from this work. More details at
     http://www.quantum-espresso.org/quote

     Parallel version (MPI), running on    28 processors

     MPI processes distributed on     1 nodes
     R & G space division:  proc/nbgrp/npool/nimage =      28
     Reading input from ../ecut150/3500.in
Warning: card &IONS ignored
Warning: card     POT_EXTRAPOLATION='SECOND-ORDER' ignored
Warning: card     WFC_EXTRAPOLATION='SECOND-ORDER' ignored
Warning: card     ION_TEMPERATURE = 'ANDERSEN' ignored
Warning: card / ignored

     Current dimensions of program PWSCF are:
     Max number of different atomic species (ntypx) = 10
     Max number of k-points (npk) =  40000
     Max angular momentum in pseudopotentials (lmaxx) =  3

     Subspace diagonalization in iterative solution of the eigenvalue problem:
     a serial algorithm will be used

 
     Parallelization info
     --------------------
     sticks:   dense  smooth     PW     G-vecs:    dense   smooth      PW
     Min         681     681    170                70897    70897    8858
     Max         682     682    171                70904    70904    8861
     Sum       19089   19089   4765              1985227  1985227  248049
 


     bravais-lattice index     =            1
     lattice parameter (alat)  =      20.0000  a.u.
     unit-cell volume          =    8000.0000 (a.u.)^3
     number of atoms/cell      =            3
     number of atomic types    =            2
     number of electrons       =         8.00
     number of Kohn-Sham states=            8
     kinetic-energy cutoff     =     150.0000  Ry
     charge density cutoff     =     600.0000  Ry
     convergence threshold     =      1.0E-08
     mixing beta               =       0.7000
     number of iterations used =            8  plain     mixing
     Exchange-correlation      = PBE ( 1  4  3  4 0 0)

     celldm(1)=  20.000000  celldm(2)=   0.000000  celldm(3)=   0.000000
     celldm(4)=   0.000000  celldm(5)=   0.000000  celldm(6)=   0.000000

     crystal axes: (cart. coord. in units of alat)
               a(1) = (   1.000000   0.000000   0.000000 )  
               a(2) = (   0.000000   1.000000   0.000000 )  
               a(3) = (   0.000000   0.000000   1.000000 )  

     reciprocal axes: (cart. coord. in units 2 pi/alat)
               b(1) = (  1.000000  0.000000  0.000000 )  
               b(2) = (  0.000000  1.000000  0.000000 )  
               b(3) = (  0.000000  0.000000  1.000000 )  


     PseudoPot. # 1 for H  read from file:
     ../pslibrary/pbe/PSEUDOPOTENTIALS/H.pbe-rrkjus_psl.1.0.0.UPF
     MD5 check sum: b2b1ff84b4ceabe23335d1bf25025923
     Pseudo is Ultrasoft, Zval =  1.0
     Generated using "atomic" code by A. Dal Corso v.6.2 svn rev. 14038
     Using radial grid of  929 points,  2 beta functions with: 
                l(1) =   0
                l(2) =   0
     Q(r) pseudized with 0 coefficients 


     PseudoPot. # 2 for O  read from file:
     ../pslibrary/pbe/PSEUDOPOTENTIALS/O.pbe-n-rrkjus_psl.1.0.0.UPF
     MD5 check sum: 61455b21a47f6823f888c3bfb9bd1235
     Pseudo is Ultrasoft + core correction, Zval =  6.0
     Generated using "atomic" code by A. Dal Corso v.6.2 svn rev. 14038
     Using radial grid of 1095 points,  4 beta functions with: 
                l(1) =   0
                l(2) =   0
                l(3) =   1
                l(4) =   1
     Q(r) pseudized with 0 coefficients 


     atomic species   valence    mass     pseudopotential
        H              1.00     1.01000     H ( 1.00)
        O              6.00    16.00000     O ( 1.00)

     No symmetry found



   Cartesian axes

     site n.     atom                  positions (alat units)
         1           O   tau(   1) = (  -0.0086675   0.0056183   0.0056536  )
         2           H   tau(   2) = (   0.0514957  -0.0999554   0.0132292  )
         3           H   tau(   3) = (   0.0858112   0.0109529  -0.0144269  )

     number of k points=     1  Marzari-Vanderbilt smearing, width (Ry)=  0.0250
                       cart. coord. in units 2pi/alat
        k(    1) = (   0.0000000   0.0000000   0.0000000), wk =   2.0000000

     Dense  grid:  1985227 G-vectors     FFT dimensions: ( 160, 160, 160)

     Estimated max dynamical RAM per process >      79.84 MB

     Estimated total dynamical RAM >       2.18 GB

     Initial potential from superposition of free atoms
     Check: negative starting charge=   -0.000150

     starting charge    7.99998, renormalised to    8.00000

     negative rho (up, down):  1.497E-04 0.000E+00
     Starting wfc are    6 randomized atomic wfcs +    2 random wfc

     total cpu time spent up to now is        2.6 secs

     Self-consistent Calculation

     iteration #  1     ecut=   150.00 Ry     beta= 0.70
     Davidson diagonalization with overlap
     ethr =  1.00E-02,  avg # of iterations =  7.0

     negative rho (up, down):  2.631E-04 0.000E+00

     total cpu time spent up to now is        3.9 secs

     total energy              =     -34.42911502 Ry
     Harris-Foulkes estimate   =     -34.75340112 Ry
     estimated scf accuracy    <       0.43598878 Ry

     iteration #  2     ecut=   150.00 Ry     beta= 0.70
     Davidson diagonalization with overlap
     ethr =  5.45E-03,  avg # of iterations =  3.0

     negative rho (up, down):  1.139E-04 0.000E+00

     total cpu time spent up to now is        4.9 secs

     total energy              =     -34.42377767 Ry
     Harris-Foulkes estimate   =     -34.86049810 Ry
     estimated scf accuracy    <       1.11253264 Ry

     iteration #  3     ecut=   150.00 Ry     beta= 0.70
     Davidson diagonalization with overlap
     ethr =  5.45E-03,  avg # of iterations =  3.0

     negative rho (up, down):  1.580E-05 0.000E+00

     total cpu time spent up to now is        5.9 secs

     total energy              =     -34.58284954 Ry
     Harris-Foulkes estimate   =     -34.59103464 Ry
     estimated scf accuracy    <       0.02528094 Ry

     iteration #  4     ecut=   150.00 Ry     beta= 0.70
     Davidson diagonalization with overlap
     ethr =  3.16E-04,  avg # of iterations =  4.0

     negative rho (up, down):  3.164E-05 0.000E+00

     total cpu time spent up to now is        7.1 secs

     total energy              =     -34.63820909 Ry
     Harris-Foulkes estimate   =     -34.64557183 Ry
     estimated scf accuracy    <       0.03023110 Ry

     iteration #  5     ecut=   150.00 Ry     beta= 0.70
     Davidson diagonalization with overlap
     ethr =  3.16E-04,  avg # of iterations =  1.0

     negative rho (up, down):  4.400E-05 0.000E+00

     total cpu time spent up to now is        8.1 secs

     total energy              =     -34.63681275 Ry
     Harris-Foulkes estimate   =     -34.63909796 Ry
     estimated scf accuracy    <       0.01193354 Ry

     iteration #  6     ecut=   150.00 Ry     beta= 0.70
     Davidson diagonalization with overlap
     ethr =  1.49E-04,  avg # of iterations =  1.0

     negative rho (up, down):  5.628E-05 0.000E+00

     total cpu time spent up to now is        9.1 secs

     total energy              =     -34.63710573 Ry
     Harris-Foulkes estimate   =     -34.63757015 Ry
     estimated scf accuracy    <       0.00439455 Ry

     iteration #  7     ecut=   150.00 Ry     beta= 0.70
     Davidson diagonalization with overlap
     ethr =  5.49E-05,  avg # of iterations =  3.0

     negative rho (up, down):  8.692E-05 0.000E+00

     total cpu time spent up to now is       10.1 secs

     total energy              =     -34.63760020 Ry
     Harris-Foulkes estimate   =     -34.63773682 Ry
     estimated scf accuracy    <       0.00119197 Ry

     iteration #  8     ecut=   150.00 Ry     beta= 0.70
     Davidson diagonalization with overlap
     ethr =  1.49E-05,  avg # of iterations =  9.0

     negative rho (up, down):  1.014E-04 0.000E+00

     total cpu time spent up to now is       11.4 secs

     total energy              =     -34.63771287 Ry
     Harris-Foulkes estimate   =     -34.63767450 Ry
     estimated scf accuracy    <       0.00053056 Ry

     iteration #  9     ecut=   150.00 Ry     beta= 0.70
     Davidson diagonalization with overlap
     ethr =  6.63E-06,  avg # of iterations =  1.0

     negative rho (up, down):  2.782E-04 0.000E+00

     total cpu time spent up to now is       12.4 secs

     total energy              =     -34.63765617 Ry
     Harris-Foulkes estimate   =     -34.63771663 Ry
     estimated scf accuracy    <       0.00060952 Ry

     iteration # 10     ecut=   150.00 Ry     beta= 0.70
     Davidson diagonalization with overlap
     ethr =  6.63E-06,  avg # of iterations =  1.0

     negative rho (up, down):  2.816E-04 0.000E+00

     total cpu time spent up to now is       13.4 secs

     total energy              =     -34.63756948 Ry
     Harris-Foulkes estimate   =     -34.63766147 Ry
     estimated scf accuracy    <       0.00038303 Ry

     iteration # 11     ecut=   150.00 Ry     beta= 0.70
     Davidson diagonalization with overlap
     ethr =  4.79E-06,  avg # of iterations =  1.0

     negative rho (up, down):  2.806E-04 0.000E+00

     total cpu time spent up to now is       14.4 secs

     total energy              =     -34.63758163 Ry
     Harris-Foulkes estimate   =     -34.63758538 Ry
     estimated scf accuracy    <       0.00011466 Ry

     iteration # 12     ecut=   150.00 Ry     beta= 0.70
     Davidson diagonalization with overlap
     ethr =  1.43E-06,  avg # of iterations =  1.0

     negative rho (up, down):  2.901E-04 0.000E+00

     total cpu time spent up to now is       15.4 secs

     total energy              =     -34.63757988 Ry
     Harris-Foulkes estimate   =     -34.63758459 Ry
     estimated scf accuracy    <       0.00009740 Ry

     iteration # 13     ecut=   150.00 Ry     beta= 0.70
     Davidson diagonalization with overlap
     ethr =  1.22E-06,  avg # of iterations =  1.0

     negative rho (up, down):  2.904E-04 0.000E+00

     total cpu time spent up to now is       16.4 secs

     total energy              =     -34.63758104 Ry
     Harris-Foulkes estimate   =     -34.63758108 Ry
     estimated scf accuracy    <       0.00007697 Ry

     iteration # 14     ecut=   150.00 Ry     beta= 0.70
     Davidson diagonalization with overlap
     ethr =  9.62E-07,  avg # of iterations =  1.0

     negative rho (up, down):  2.913E-04 0.000E+00

     total cpu time spent up to now is       17.5 secs

     total energy              =     -34.63758367 Ry
     Harris-Foulkes estimate   =     -34.63758222 Ry
     estimated scf accuracy    <       0.00007373 Ry

     iteration # 15     ecut=   150.00 Ry     beta= 0.70
     Davidson diagonalization with overlap
     ethr =  9.22E-07,  avg # of iterations =  1.0

     negative rho (up, down):  2.794E-04 0.000E+00

     total cpu time spent up to now is       18.5 secs

     total energy              =     -34.63754803 Ry
     Harris-Foulkes estimate   =     -34.63758427 Ry
     estimated scf accuracy    <       0.00007080 Ry

     iteration # 16     ecut=   150.00 Ry     beta= 0.70
     Davidson diagonalization with overlap
     ethr =  8.85E-07,  avg # of iterations =  3.0

     negative rho (up, down):  2.783E-04 0.000E+00

     total cpu time spent up to now is       19.6 secs

     total energy              =     -34.63756976 Ry
     Harris-Foulkes estimate   =     -34.63757401 Ry
     estimated scf accuracy    <       0.00001295 Ry

     iteration # 17     ecut=   150.00 Ry     beta= 0.70
     Davidson diagonalization with overlap
     ethr =  1.62E-07,  avg # of iterations =  3.0

     negative rho (up, down):  2.752E-04 0.000E+00

     total cpu time spent up to now is       20.8 secs

     total energy              =     -34.63756984 Ry
     Harris-Foulkes estimate   =     -34.63757172 Ry
     estimated scf accuracy    <       0.00000497 Ry

     iteration # 18     ecut=   150.00 Ry     beta= 0.70
     Davidson diagonalization with overlap
     ethr =  6.21E-08,  avg # of iterations =  3.0

     negative rho (up, down):  2.784E-04 0.000E+00

     total cpu time spent up to now is       21.9 secs

     total energy              =     -34.63757145 Ry
     Harris-Foulkes estimate   =     -34.63757169 Ry
     estimated scf accuracy    <       0.00000074 Ry

     iteration # 19     ecut=   150.00 Ry     beta= 0.70
     Davidson diagonalization with overlap
     ethr =  9.29E-09,  avg # of iterations =  3.0

     negative rho (up, down):  2.750E-04 0.000E+00

     total cpu time spent up to now is       22.9 secs

     total energy              =     -34.63757156 Ry
     Harris-Foulkes estimate   =     -34.63757159 Ry
     estimated scf accuracy    <       0.00000030 Ry

     iteration # 20     ecut=   150.00 Ry     beta= 0.70
     Davidson diagonalization with overlap
     ethr =  3.74E-09,  avg # of iterations =  3.0

     negative rho (up, down):  2.749E-04 0.000E+00

     total cpu time spent up to now is       24.0 secs

     total energy              =     -34.63757165 Ry
     Harris-Foulkes estimate   =     -34.63757167 Ry
     estimated scf accuracy    <       0.00000039 Ry

     iteration # 21     ecut=   150.00 Ry     beta= 0.70
     Davidson diagonalization with overlap
     ethr =  3.74E-09,  avg # of iterations =  1.0

     negative rho (up, down):  2.747E-04 0.000E+00

     total cpu time spent up to now is       25.0 secs

     total energy              =     -34.63757159 Ry
     Harris-Foulkes estimate   =     -34.63757165 Ry
     estimated scf accuracy    <       0.00000033 Ry

     iteration # 22     ecut=   150.00 Ry     beta= 0.70
     Davidson diagonalization with overlap
     ethr =  3.74E-09,  avg # of iterations =  1.0

     negative rho (up, down):  2.766E-04 0.000E+00

     total cpu time spent up to now is       26.1 secs

     total energy              =     -34.63757192 Ry
     Harris-Foulkes estimate   =     -34.63757161 Ry
     estimated scf accuracy    <       0.00000020 Ry

     iteration # 23     ecut=   150.00 Ry     beta= 0.70
     Davidson diagonalization with overlap
     ethr =  2.44E-09,  avg # of iterations =  3.0

     negative rho (up, down):  2.744E-04 0.000E+00

     total cpu time spent up to now is       27.3 secs

     total energy              =     -34.63757108 Ry
     Harris-Foulkes estimate   =     -34.63757215 Ry
     estimated scf accuracy    <       0.00000217 Ry

     iteration # 24     ecut=   150.00 Ry     beta= 0.70
     Davidson diagonalization with overlap
     ethr =  2.44E-09,  avg # of iterations =  3.0

     negative rho (up, down):  2.742E-04 0.000E+00

     total cpu time spent up to now is       28.4 secs

     total energy              =     -34.63757156 Ry
     Harris-Foulkes estimate   =     -34.63757163 Ry
     estimated scf accuracy    <       0.00000025 Ry

     iteration # 25     ecut=   150.00 Ry     beta= 0.70
     Davidson diagonalization with overlap
     ethr =  2.44E-09,  avg # of iterations =  1.0

     negative rho (up, down):  2.744E-04 0.000E+00

     total cpu time spent up to now is       29.5 secs

     total energy              =     -34.63757154 Ry
     Harris-Foulkes estimate   =     -34.63757157 Ry
     estimated scf accuracy    <       0.00000007 Ry

     iteration # 26     ecut=   150.00 Ry     beta= 0.70
     Davidson diagonalization with overlap
     ethr =  8.74E-10,  avg # of iterations =  4.0

     negative rho (up, down):  2.746E-04 0.000E+00

     total cpu time spent up to now is       30.4 secs

     End of self-consistent calculation

          k = 0.0000 0.0000 0.0000 (248049 PWs)   bands (ev):

   -24.3729 -11.0860  -9.7078  -7.0411  -2.5238  -0.1440   0.3654   0.8872

     the Fermi energy is    -5.0877 ev

!    total energy              =     -34.63757156 Ry
     Harris-Foulkes estimate   =     -34.63757156 Ry
     estimated scf accuracy    <          7.1E-09 Ry

     The total energy is the sum of the following terms:

     one-electron contribution =     -60.96409637 Ry
     hartree contribution      =      31.99341248 Ry
     xc contribution           =      -8.58959603 Ry
     ewald contribution        =       2.92270837 Ry
     smearing contrib. (-TS)   =       0.00000000 Ry

     convergence has been achieved in  26 iterations

     Writing output data file pwscf.save
 
     init_run     :      1.68s CPU      1.82s WALL (       1 calls)
     electrons    :     24.32s CPU     27.90s WALL (       1 calls)

     Called by init_run:
     wfcinit      :      0.18s CPU      0.24s WALL (       1 calls)
     potinit      :      0.28s CPU      0.30s WALL (       1 calls)

     Called by electrons:
     c_bands      :      9.30s CPU      9.40s WALL (      26 calls)
     sum_band     :      5.84s CPU      6.50s WALL (      26 calls)
     v_of_rho     :      4.48s CPU      4.69s WALL (      27 calls)
     newd         :      2.10s CPU      2.60s WALL (      27 calls)
     mix_rho      :      2.61s CPU      4.56s WALL (      26 calls)

     Called by c_bands:
     init_us_2    :      0.17s CPU      0.18s WALL (      53 calls)
     cegterg      :      9.13s CPU      9.21s WALL (      26 calls)

     Called by sum_band:
     sum_band:bec :      0.00s CPU      0.00s WALL (      26 calls)
     addusdens    :      2.89s CPU      3.45s WALL (      26 calls)

     Called by *egterg:
     h_psi        :      8.67s CPU      8.74s WALL (      93 calls)
     s_psi        :      0.05s CPU      0.05s WALL (      93 calls)
     g_psi        :      0.03s CPU      0.03s WALL (      66 calls)
     cdiaghg      :      0.02s CPU      0.02s WALL (      92 calls)

     Called by h_psi:
     h_psi:pot    :      8.63s CPU      8.69s WALL (      93 calls)
     h_psi:calbec :      0.12s CPU      0.12s WALL (      93 calls)
     vloc_psi     :      8.46s CPU      8.52s WALL (      93 calls)
     add_vuspsi   :      0.04s CPU      0.04s WALL (      93 calls)

     General routines
     calbec       :      0.15s CPU      0.15s WALL (     119 calls)
     fft          :      4.55s CPU      4.84s WALL (     350 calls)
     fftw         :      8.76s CPU      8.83s WALL (    1230 calls)
     davcio       :      0.30s CPU      2.07s WALL (     427 calls)
 
     Parallel routines
     fft_scatt_xy :      2.12s CPU      2.13s WALL (    1580 calls)
     fft_scatt_yz :      2.74s CPU      3.03s WALL (    1580 calls)
 
     PWSCF        :    26.73s CPU        30.91s WALL

 
   This run was terminated on:  23:30:53  12May2018            

=------------------------------------------------------------------------------=
   JOB DONE.
=------------------------------------------------------------------------------=
