
     Program PWSCF v.6.2 (svn rev. 14038) starts on 12May2018 at 23:30:54 

     This program is part of the open-source Quantum ESPRESSO suite
     for quantum simulation of materials; please cite
         "P. Giannozzi et al., J. Phys.:Condens. Matter 21 395502 (2009);
         "P. Giannozzi et al., J. Phys.:Condens. Matter 29 465901 (2017);
          URL http://www.quantum-espresso.org", 
     in publications or presentations arising from this work. More details at
     http://www.quantum-espresso.org/quote

     Parallel version (MPI), running on    28 processors

     MPI processes distributed on     1 nodes
     R & G space division:  proc/nbgrp/npool/nimage =      28
     Reading input from ../ecut150/4000.in
Warning: card &IONS ignored
Warning: card     POT_EXTRAPOLATION='SECOND-ORDER' ignored
Warning: card     WFC_EXTRAPOLATION='SECOND-ORDER' ignored
Warning: card     ION_TEMPERATURE = 'ANDERSEN' ignored
Warning: card / ignored

     Current dimensions of program PWSCF are:
     Max number of different atomic species (ntypx) = 10
     Max number of k-points (npk) =  40000
     Max angular momentum in pseudopotentials (lmaxx) =  3

     Subspace diagonalization in iterative solution of the eigenvalue problem:
     a serial algorithm will be used

 
     Parallelization info
     --------------------
     sticks:   dense  smooth     PW     G-vecs:    dense   smooth      PW
     Min         681     681    170                70897    70897    8858
     Max         682     682    171                70904    70904    8861
     Sum       19089   19089   4765              1985227  1985227  248049
 


     bravais-lattice index     =            1
     lattice parameter (alat)  =      20.0000  a.u.
     unit-cell volume          =    8000.0000 (a.u.)^3
     number of atoms/cell      =            3
     number of atomic types    =            2
     number of electrons       =         8.00
     number of Kohn-Sham states=            8
     kinetic-energy cutoff     =     150.0000  Ry
     charge density cutoff     =     600.0000  Ry
     convergence threshold     =      1.0E-08
     mixing beta               =       0.7000
     number of iterations used =            8  plain     mixing
     Exchange-correlation      = PBE ( 1  4  3  4 0 0)

     celldm(1)=  20.000000  celldm(2)=   0.000000  celldm(3)=   0.000000
     celldm(4)=   0.000000  celldm(5)=   0.000000  celldm(6)=   0.000000

     crystal axes: (cart. coord. in units of alat)
               a(1) = (   1.000000   0.000000   0.000000 )  
               a(2) = (   0.000000   1.000000   0.000000 )  
               a(3) = (   0.000000   0.000000   1.000000 )  

     reciprocal axes: (cart. coord. in units 2 pi/alat)
               b(1) = (  1.000000  0.000000  0.000000 )  
               b(2) = (  0.000000  1.000000  0.000000 )  
               b(3) = (  0.000000  0.000000  1.000000 )  


     PseudoPot. # 1 for H  read from file:
     ../pslibrary/pbe/PSEUDOPOTENTIALS/H.pbe-rrkjus_psl.1.0.0.UPF
     MD5 check sum: b2b1ff84b4ceabe23335d1bf25025923
     Pseudo is Ultrasoft, Zval =  1.0
     Generated using "atomic" code by A. Dal Corso v.6.2 svn rev. 14038
     Using radial grid of  929 points,  2 beta functions with: 
                l(1) =   0
                l(2) =   0
     Q(r) pseudized with 0 coefficients 


     PseudoPot. # 2 for O  read from file:
     ../pslibrary/pbe/PSEUDOPOTENTIALS/O.pbe-n-rrkjus_psl.1.0.0.UPF
     MD5 check sum: 61455b21a47f6823f888c3bfb9bd1235
     Pseudo is Ultrasoft + core correction, Zval =  6.0
     Generated using "atomic" code by A. Dal Corso v.6.2 svn rev. 14038
     Using radial grid of 1095 points,  4 beta functions with: 
                l(1) =   0
                l(2) =   0
                l(3) =   1
                l(4) =   1
     Q(r) pseudized with 0 coefficients 


     atomic species   valence    mass     pseudopotential
        H              1.00     1.01000     H ( 1.00)
        O              6.00    16.00000     O ( 1.00)

     No symmetry found



   Cartesian axes

     site n.     atom                  positions (alat units)
         1           O   tau(   1) = (  -0.0016941  -0.0018954  -0.0020678  )
         2           H   tau(   2) = (  -0.0105588  -0.0481291   0.0934797  )
         3           H   tau(   3) = (   0.0373965   0.0781554   0.0276420  )

     number of k points=     1  Marzari-Vanderbilt smearing, width (Ry)=  0.0250
                       cart. coord. in units 2pi/alat
        k(    1) = (   0.0000000   0.0000000   0.0000000), wk =   2.0000000

     Dense  grid:  1985227 G-vectors     FFT dimensions: ( 160, 160, 160)

     Estimated max dynamical RAM per process >      79.84 MB

     Estimated total dynamical RAM >       2.18 GB

     Initial potential from superposition of free atoms
     Check: negative starting charge=   -0.000146

     starting charge    7.99998, renormalised to    8.00000

     negative rho (up, down):  1.461E-04 0.000E+00
     Starting wfc are    6 randomized atomic wfcs +    2 random wfc

     total cpu time spent up to now is        2.6 secs

     Self-consistent Calculation

     iteration #  1     ecut=   150.00 Ry     beta= 0.70
     Davidson diagonalization with overlap
     ethr =  1.00E-02,  avg # of iterations =  6.0

     negative rho (up, down):  2.711E-04 0.000E+00

     total cpu time spent up to now is        4.0 secs

     total energy              =     -34.56055314 Ry
     Harris-Foulkes estimate   =     -34.87733323 Ry
     estimated scf accuracy    <       0.42915652 Ry

     iteration #  2     ecut=   150.00 Ry     beta= 0.70
     Davidson diagonalization with overlap
     ethr =  5.36E-03,  avg # of iterations =  3.0

     negative rho (up, down):  1.364E-04 0.000E+00

     total cpu time spent up to now is        5.0 secs

     total energy              =     -34.61093928 Ry
     Harris-Foulkes estimate   =     -34.88857128 Ry
     estimated scf accuracy    <       0.61317241 Ry

     iteration #  3     ecut=   150.00 Ry     beta= 0.70
     Davidson diagonalization with overlap
     ethr =  5.36E-03,  avg # of iterations =  1.0

     negative rho (up, down):  3.854E-05 0.000E+00

     total cpu time spent up to now is        6.0 secs

     total energy              =     -34.66659345 Ry
     Harris-Foulkes estimate   =     -34.69158819 Ry
     estimated scf accuracy    <       0.05264860 Ry

     iteration #  4     ecut=   150.00 Ry     beta= 0.70
     Davidson diagonalization with overlap
     ethr =  6.58E-04,  avg # of iterations =  3.0

     negative rho (up, down):  2.960E-05 0.000E+00

     total cpu time spent up to now is        7.1 secs

     total energy              =     -34.75288373 Ry
     Harris-Foulkes estimate   =     -34.77661340 Ry
     estimated scf accuracy    <       0.09541361 Ry

     iteration #  5     ecut=   150.00 Ry     beta= 0.70
     Davidson diagonalization with overlap
     ethr =  6.58E-04,  avg # of iterations =  1.0

     negative rho (up, down):  4.088E-05 0.000E+00

     total cpu time spent up to now is        8.1 secs

     total energy              =     -34.74343958 Ry
     Harris-Foulkes estimate   =     -34.75490800 Ry
     estimated scf accuracy    <       0.04379857 Ry

     iteration #  6     ecut=   150.00 Ry     beta= 0.70
     Davidson diagonalization with overlap
     ethr =  5.47E-04,  avg # of iterations =  2.0

     negative rho (up, down):  4.354E-05 0.000E+00

     total cpu time spent up to now is        9.1 secs

     total energy              =     -34.75098167 Ry
     Harris-Foulkes estimate   =     -34.75097164 Ry
     estimated scf accuracy    <       0.00216911 Ry

     iteration #  7     ecut=   150.00 Ry     beta= 0.70
     Davidson diagonalization with overlap
     ethr =  2.71E-05,  avg # of iterations = 10.0

     negative rho (up, down):  4.559E-05 0.000E+00

     total cpu time spent up to now is       10.4 secs

     total energy              =     -34.75111535 Ry
     Harris-Foulkes estimate   =     -34.75117411 Ry
     estimated scf accuracy    <       0.00204765 Ry

     iteration #  8     ecut=   150.00 Ry     beta= 0.70
     Davidson diagonalization with overlap
     ethr =  2.56E-05,  avg # of iterations =  1.0

     negative rho (up, down):  9.583E-05 0.000E+00

     total cpu time spent up to now is       11.4 secs

     total energy              =     -34.75100681 Ry
     Harris-Foulkes estimate   =     -34.75112236 Ry
     estimated scf accuracy    <       0.00178688 Ry

     iteration #  9     ecut=   150.00 Ry     beta= 0.70
     Davidson diagonalization with overlap
     ethr =  2.23E-05,  avg # of iterations =  1.0

     negative rho (up, down):  2.376E-04 0.000E+00

     total cpu time spent up to now is       12.4 secs

     total energy              =     -34.75093960 Ry
     Harris-Foulkes estimate   =     -34.75102784 Ry
     estimated scf accuracy    <       0.00137474 Ry

     iteration # 10     ecut=   150.00 Ry     beta= 0.70
     Davidson diagonalization with overlap
     ethr =  1.72E-05,  avg # of iterations =  1.0

     negative rho (up, down):  2.966E-04 0.000E+00

     total cpu time spent up to now is       13.5 secs

     total energy              =     -34.75087867 Ry
     Harris-Foulkes estimate   =     -34.75099101 Ry
     estimated scf accuracy    <       0.00105208 Ry

     iteration # 11     ecut=   150.00 Ry     beta= 0.70
     Davidson diagonalization with overlap
     ethr =  1.32E-05,  avg # of iterations =  1.0

     negative rho (up, down):  2.976E-04 0.000E+00

     total cpu time spent up to now is       14.5 secs

     total energy              =     -34.75076130 Ry
     Harris-Foulkes estimate   =     -34.75090548 Ry
     estimated scf accuracy    <       0.00077327 Ry

     iteration # 12     ecut=   150.00 Ry     beta= 0.70
     Davidson diagonalization with overlap
     ethr =  9.67E-06,  avg # of iterations =  1.0

     negative rho (up, down):  3.054E-04 0.000E+00

     total cpu time spent up to now is       15.5 secs

     total energy              =     -34.75074798 Ry
     Harris-Foulkes estimate   =     -34.75078360 Ry
     estimated scf accuracy    <       0.00042626 Ry

     iteration # 13     ecut=   150.00 Ry     beta= 0.70
     Davidson diagonalization with overlap
     ethr =  5.33E-06,  avg # of iterations =  1.0

     negative rho (up, down):  3.042E-04 0.000E+00

     total cpu time spent up to now is       16.5 secs

     total energy              =     -34.75075007 Ry
     Harris-Foulkes estimate   =     -34.75076098 Ry
     estimated scf accuracy    <       0.00030672 Ry

     iteration # 14     ecut=   150.00 Ry     beta= 0.70
     Davidson diagonalization with overlap
     ethr =  3.83E-06,  avg # of iterations = 10.0

     negative rho (up, down):  3.036E-04 0.000E+00

     total cpu time spent up to now is       17.7 secs

     total energy              =     -34.75078597 Ry
     Harris-Foulkes estimate   =     -34.75075914 Ry
     estimated scf accuracy    <       0.00025303 Ry

     iteration # 15     ecut=   150.00 Ry     beta= 0.70
     Davidson diagonalization with overlap
     ethr =  3.16E-06,  avg # of iterations =  1.0

     negative rho (up, down):  2.891E-04 0.000E+00

     total cpu time spent up to now is       18.8 secs

     total energy              =     -34.75066739 Ry
     Harris-Foulkes estimate   =     -34.75078947 Ry
     estimated scf accuracy    <       0.00028648 Ry

     iteration # 16     ecut=   150.00 Ry     beta= 0.70
     Davidson diagonalization with overlap
     ethr =  3.16E-06,  avg # of iterations =  2.0

     negative rho (up, down):  2.881E-04 0.000E+00

     total cpu time spent up to now is       19.8 secs

     total energy              =     -34.75068762 Ry
     Harris-Foulkes estimate   =     -34.75069164 Ry
     estimated scf accuracy    <       0.00003065 Ry

     iteration # 17     ecut=   150.00 Ry     beta= 0.70
     Davidson diagonalization with overlap
     ethr =  3.83E-07,  avg # of iterations =  4.0

     negative rho (up, down):  2.867E-04 0.000E+00

     total cpu time spent up to now is       20.9 secs

     total energy              =     -34.75071080 Ry
     Harris-Foulkes estimate   =     -34.75071042 Ry
     estimated scf accuracy    <       0.00000851 Ry

     iteration # 18     ecut=   150.00 Ry     beta= 0.70
     Davidson diagonalization with overlap
     ethr =  1.06E-07,  avg # of iterations =  3.0

     negative rho (up, down):  2.886E-04 0.000E+00

     total cpu time spent up to now is       22.0 secs

     total energy              =     -34.75071101 Ry
     Harris-Foulkes estimate   =     -34.75071173 Ry
     estimated scf accuracy    <       0.00000944 Ry

     iteration # 19     ecut=   150.00 Ry     beta= 0.70
     Davidson diagonalization with overlap
     ethr =  1.06E-07,  avg # of iterations =  1.0

     negative rho (up, down):  2.945E-04 0.000E+00

     total cpu time spent up to now is       23.0 secs

     total energy              =     -34.75070694 Ry
     Harris-Foulkes estimate   =     -34.75071104 Ry
     estimated scf accuracy    <       0.00000782 Ry

     iteration # 20     ecut=   150.00 Ry     beta= 0.70
     Davidson diagonalization with overlap
     ethr =  9.77E-08,  avg # of iterations =  3.0

     negative rho (up, down):  2.879E-04 0.000E+00

     total cpu time spent up to now is       24.1 secs

     total energy              =     -34.75070847 Ry
     Harris-Foulkes estimate   =     -34.75070941 Ry
     estimated scf accuracy    <       0.00000318 Ry

     iteration # 21     ecut=   150.00 Ry     beta= 0.70
     Davidson diagonalization with overlap
     ethr =  3.98E-08,  avg # of iterations =  1.0

     negative rho (up, down):  2.879E-04 0.000E+00

     total cpu time spent up to now is       25.1 secs

     total energy              =     -34.75070834 Ry
     Harris-Foulkes estimate   =     -34.75070860 Ry
     estimated scf accuracy    <       0.00000082 Ry

     iteration # 22     ecut=   150.00 Ry     beta= 0.70
     Davidson diagonalization with overlap
     ethr =  1.03E-08,  avg # of iterations =  2.0

     negative rho (up, down):  2.876E-04 0.000E+00

     total cpu time spent up to now is       26.2 secs

     total energy              =     -34.75070860 Ry
     Harris-Foulkes estimate   =     -34.75070861 Ry
     estimated scf accuracy    <       0.00000014 Ry

     iteration # 23     ecut=   150.00 Ry     beta= 0.70
     Davidson diagonalization with overlap
     ethr =  1.73E-09,  avg # of iterations =  1.0

     negative rho (up, down):  2.884E-04 0.000E+00

     total cpu time spent up to now is       27.2 secs

     total energy              =     -34.75070858 Ry
     Harris-Foulkes estimate   =     -34.75070860 Ry
     estimated scf accuracy    <       0.00000006 Ry

     iteration # 24     ecut=   150.00 Ry     beta= 0.70
     Davidson diagonalization with overlap
     ethr =  7.31E-10,  avg # of iterations =  3.0

     negative rho (up, down):  2.882E-04 0.000E+00

     total cpu time spent up to now is       28.0 secs

     End of self-consistent calculation

          k = 0.0000 0.0000 0.0000 (248049 PWs)   bands (ev):

   -24.4826 -11.8860  -9.4348  -6.9930  -1.3371   0.1249   0.4734   0.9408

     the Fermi energy is    -5.0749 ev

!    total energy              =     -34.75070858 Ry
     Harris-Foulkes estimate   =     -34.75070859 Ry
     estimated scf accuracy    <          7.3E-09 Ry

     The total energy is the sum of the following terms:

     one-electron contribution =     -62.45319970 Ry
     hartree contribution      =      32.77073509 Ry
     xc contribution           =      -8.70660711 Ry
     ewald contribution        =       3.63836314 Ry
     smearing contrib. (-TS)   =       0.00000000 Ry

     convergence has been achieved in  24 iterations

     Writing output data file pwscf.save
 
     init_run     :      1.76s CPU      1.89s WALL (       1 calls)
     electrons    :     22.29s CPU     25.61s WALL (       1 calls)

     Called by init_run:
     wfcinit      :      0.27s CPU      0.31s WALL (       1 calls)
     potinit      :      0.28s CPU      0.30s WALL (       1 calls)

     Called by electrons:
     c_bands      :      8.65s CPU      8.75s WALL (      24 calls)
     sum_band     :      5.33s CPU      5.92s WALL (      24 calls)
     v_of_rho     :      4.09s CPU      4.29s WALL (      25 calls)
     newd         :      1.94s CPU      2.39s WALL (      25 calls)
     mix_rho      :      2.19s CPU      4.02s WALL (      24 calls)

     Called by c_bands:
     init_us_2    :      0.16s CPU      0.16s WALL (      49 calls)
     cegterg      :      8.50s CPU      8.58s WALL (      24 calls)

     Called by sum_band:
     sum_band:bec :      0.00s CPU      0.00s WALL (      24 calls)
     addusdens    :      2.66s CPU      3.18s WALL (      24 calls)

     Called by *egterg:
     h_psi        :      8.18s CPU      8.24s WALL (      88 calls)
     s_psi        :      0.05s CPU      0.05s WALL (      88 calls)
     g_psi        :      0.02s CPU      0.02s WALL (      63 calls)
     cdiaghg      :      0.02s CPU      0.02s WALL (      87 calls)

     Called by h_psi:
     h_psi:pot    :      8.13s CPU      8.19s WALL (      88 calls)
     h_psi:calbec :      0.09s CPU      0.09s WALL (      88 calls)
     vloc_psi     :      8.01s CPU      8.06s WALL (      88 calls)
     add_vuspsi   :      0.04s CPU      0.04s WALL (      88 calls)

     General routines
     calbec       :      0.11s CPU      0.11s WALL (     112 calls)
     fft          :      4.12s CPU      4.39s WALL (     324 calls)
     fftw         :      8.24s CPU      8.30s WALL (    1134 calls)
     davcio       :      0.25s CPU      1.91s WALL (     387 calls)
 
     Parallel routines
     fft_scatt_xy :      1.94s CPU      1.95s WALL (    1458 calls)
     fft_scatt_yz :      2.57s CPU      2.84s WALL (    1458 calls)
 
     PWSCF        :    24.74s CPU        28.58s WALL

 
   This run was terminated on:  23:31:22  12May2018            

=------------------------------------------------------------------------------=
   JOB DONE.
=------------------------------------------------------------------------------=
