
     Program PWSCF v.6.2 (svn rev. 14038) starts on 12May2018 at 23:31:23 

     This program is part of the open-source Quantum ESPRESSO suite
     for quantum simulation of materials; please cite
         "P. Giannozzi et al., J. Phys.:Condens. Matter 21 395502 (2009);
         "P. Giannozzi et al., J. Phys.:Condens. Matter 29 465901 (2017);
          URL http://www.quantum-espresso.org", 
     in publications or presentations arising from this work. More details at
     http://www.quantum-espresso.org/quote

     Parallel version (MPI), running on    28 processors

     MPI processes distributed on     1 nodes
     R & G space division:  proc/nbgrp/npool/nimage =      28
     Reading input from ../ecut150/4500.in
Warning: card &IONS ignored
Warning: card     POT_EXTRAPOLATION='SECOND-ORDER' ignored
Warning: card     WFC_EXTRAPOLATION='SECOND-ORDER' ignored
Warning: card     ION_TEMPERATURE = 'ANDERSEN' ignored
Warning: card / ignored

     Current dimensions of program PWSCF are:
     Max number of different atomic species (ntypx) = 10
     Max number of k-points (npk) =  40000
     Max angular momentum in pseudopotentials (lmaxx) =  3

     Subspace diagonalization in iterative solution of the eigenvalue problem:
     a serial algorithm will be used

 
     Parallelization info
     --------------------
     sticks:   dense  smooth     PW     G-vecs:    dense   smooth      PW
     Min         681     681    170                70897    70897    8858
     Max         682     682    171                70904    70904    8861
     Sum       19089   19089   4765              1985227  1985227  248049
 


     bravais-lattice index     =            1
     lattice parameter (alat)  =      20.0000  a.u.
     unit-cell volume          =    8000.0000 (a.u.)^3
     number of atoms/cell      =            3
     number of atomic types    =            2
     number of electrons       =         8.00
     number of Kohn-Sham states=            8
     kinetic-energy cutoff     =     150.0000  Ry
     charge density cutoff     =     600.0000  Ry
     convergence threshold     =      1.0E-08
     mixing beta               =       0.7000
     number of iterations used =            8  plain     mixing
     Exchange-correlation      = PBE ( 1  4  3  4 0 0)

     celldm(1)=  20.000000  celldm(2)=   0.000000  celldm(3)=   0.000000
     celldm(4)=   0.000000  celldm(5)=   0.000000  celldm(6)=   0.000000

     crystal axes: (cart. coord. in units of alat)
               a(1) = (   1.000000   0.000000   0.000000 )  
               a(2) = (   0.000000   1.000000   0.000000 )  
               a(3) = (   0.000000   0.000000   1.000000 )  

     reciprocal axes: (cart. coord. in units 2 pi/alat)
               b(1) = (  1.000000  0.000000  0.000000 )  
               b(2) = (  0.000000  1.000000  0.000000 )  
               b(3) = (  0.000000  0.000000  1.000000 )  


     PseudoPot. # 1 for H  read from file:
     ../pslibrary/pbe/PSEUDOPOTENTIALS/H.pbe-rrkjus_psl.1.0.0.UPF
     MD5 check sum: b2b1ff84b4ceabe23335d1bf25025923
     Pseudo is Ultrasoft, Zval =  1.0
     Generated using "atomic" code by A. Dal Corso v.6.2 svn rev. 14038
     Using radial grid of  929 points,  2 beta functions with: 
                l(1) =   0
                l(2) =   0
     Q(r) pseudized with 0 coefficients 


     PseudoPot. # 2 for O  read from file:
     ../pslibrary/pbe/PSEUDOPOTENTIALS/O.pbe-n-rrkjus_psl.1.0.0.UPF
     MD5 check sum: 61455b21a47f6823f888c3bfb9bd1235
     Pseudo is Ultrasoft + core correction, Zval =  6.0
     Generated using "atomic" code by A. Dal Corso v.6.2 svn rev. 14038
     Using radial grid of 1095 points,  4 beta functions with: 
                l(1) =   0
                l(2) =   0
                l(3) =   1
                l(4) =   1
     Q(r) pseudized with 0 coefficients 


     atomic species   valence    mass     pseudopotential
        H              1.00     1.01000     H ( 1.00)
        O              6.00    16.00000     O ( 1.00)

     No symmetry found



   Cartesian axes

     site n.     atom                  positions (alat units)
         1           O   tau(   1) = (   0.0076969  -0.0021366  -0.0014557  )
         2           H   tau(   2) = (  -0.1212828  -0.0062313   0.0138048  )
         3           H   tau(   3) = (  -0.0006486   0.0400783   0.0976189  )

     number of k points=     1  Marzari-Vanderbilt smearing, width (Ry)=  0.0250
                       cart. coord. in units 2pi/alat
        k(    1) = (   0.0000000   0.0000000   0.0000000), wk =   2.0000000

     Dense  grid:  1985227 G-vectors     FFT dimensions: ( 160, 160, 160)

     Estimated max dynamical RAM per process >      79.84 MB

     Estimated total dynamical RAM >       2.18 GB

     Initial potential from superposition of free atoms
     Check: negative starting charge=   -0.000144

     starting charge    7.99998, renormalised to    8.00000

     negative rho (up, down):  1.437E-04 0.000E+00
     Starting wfc are    6 randomized atomic wfcs +    2 random wfc

     total cpu time spent up to now is        2.6 secs

     Self-consistent Calculation

     iteration #  1     ecut=   150.00 Ry     beta= 0.70
     Davidson diagonalization with overlap
     ethr =  1.00E-02,  avg # of iterations =  7.0

     negative rho (up, down):  2.532E-04 0.000E+00

     total cpu time spent up to now is        3.9 secs

     total energy              =     -34.39934780 Ry
     Harris-Foulkes estimate   =     -34.71674477 Ry
     estimated scf accuracy    <       0.42590591 Ry

     iteration #  2     ecut=   150.00 Ry     beta= 0.70
     Davidson diagonalization with overlap
     ethr =  5.32E-03,  avg # of iterations =  3.0

     negative rho (up, down):  1.456E-04 0.000E+00

     total cpu time spent up to now is        4.9 secs

     total energy              =     -34.35514446 Ry
     Harris-Foulkes estimate   =     -34.89416818 Ry
     estimated scf accuracy    <       1.50169784 Ry

     iteration #  3     ecut=   150.00 Ry     beta= 0.70
     Davidson diagonalization with overlap
     ethr =  5.32E-03,  avg # of iterations =  1.0

     negative rho (up, down):  1.815E-05 0.000E+00

     total cpu time spent up to now is        5.9 secs

     total energy              =     -34.49970487 Ry
     Harris-Foulkes estimate   =     -34.52223355 Ry
     estimated scf accuracy    <       0.10405110 Ry

     iteration #  4     ecut=   150.00 Ry     beta= 0.70
     Davidson diagonalization with overlap
     ethr =  1.30E-03,  avg # of iterations =  3.0

     negative rho (up, down):  2.860E-05 0.000E+00

     total cpu time spent up to now is        7.0 secs

     total energy              =     -34.61319018 Ry
     Harris-Foulkes estimate   =     -34.62460153 Ry
     estimated scf accuracy    <       0.05826562 Ry

     iteration #  5     ecut=   150.00 Ry     beta= 0.70
     Davidson diagonalization with overlap
     ethr =  7.28E-04,  avg # of iterations =  1.0

     negative rho (up, down):  4.048E-05 0.000E+00

     total cpu time spent up to now is        7.9 secs

     total energy              =     -34.61162513 Ry
     Harris-Foulkes estimate   =     -34.61457213 Ry
     estimated scf accuracy    <       0.02412075 Ry

     iteration #  6     ecut=   150.00 Ry     beta= 0.70
     Davidson diagonalization with overlap
     ethr =  3.02E-04,  avg # of iterations =  1.0

     negative rho (up, down):  4.503E-05 0.000E+00

     total cpu time spent up to now is        8.9 secs

     total energy              =     -34.61147095 Ry
     Harris-Foulkes estimate   =     -34.61213520 Ry
     estimated scf accuracy    <       0.01448630 Ry

     iteration #  7     ecut=   150.00 Ry     beta= 0.70
     Davidson diagonalization with overlap
     ethr =  1.81E-04,  avg # of iterations =  1.0

     negative rho (up, down):  5.057E-05 0.000E+00

     total cpu time spent up to now is        9.8 secs

     total energy              =     -34.61125051 Ry
     Harris-Foulkes estimate   =     -34.61173253 Ry
     estimated scf accuracy    <       0.01089922 Ry

     iteration #  8     ecut=   150.00 Ry     beta= 0.70
     Davidson diagonalization with overlap
     ethr =  1.36E-04,  avg # of iterations =  1.0

     negative rho (up, down):  5.102E-05 0.000E+00

     total cpu time spent up to now is       10.8 secs

     total energy              =     -34.61164137 Ry
     Harris-Foulkes estimate   =     -34.61161504 Ry
     estimated scf accuracy    <       0.00783065 Ry

     iteration #  9     ecut=   150.00 Ry     beta= 0.70
     Davidson diagonalization with overlap
     ethr =  9.79E-05,  avg # of iterations =  9.0

     negative rho (up, down):  6.182E-05 0.000E+00

     total cpu time spent up to now is       12.0 secs

     total energy              =     -34.61161146 Ry
     Harris-Foulkes estimate   =     -34.61198599 Ry
     estimated scf accuracy    <       0.00598446 Ry

     iteration # 10     ecut=   150.00 Ry     beta= 0.70
     Davidson diagonalization with overlap
     ethr =  7.48E-05,  avg # of iterations =  1.0

     negative rho (up, down):  8.712E-05 0.000E+00

     total cpu time spent up to now is       13.0 secs

     total energy              =     -34.61163558 Ry
     Harris-Foulkes estimate   =     -34.61184197 Ry
     estimated scf accuracy    <       0.00387625 Ry

     iteration # 11     ecut=   150.00 Ry     beta= 0.70
     Davidson diagonalization with overlap
     ethr =  4.85E-05,  avg # of iterations =  1.0

     negative rho (up, down):  1.824E-04 0.000E+00

     total cpu time spent up to now is       14.0 secs

     total energy              =     -34.61137631 Ry
     Harris-Foulkes estimate   =     -34.61173524 Ry
     estimated scf accuracy    <       0.00274379 Ry

     iteration # 12     ecut=   150.00 Ry     beta= 0.70
     Davidson diagonalization with overlap
     ethr =  3.43E-05,  avg # of iterations =  2.0

     negative rho (up, down):  2.224E-04 0.000E+00

     total cpu time spent up to now is       15.1 secs

     total energy              =     -34.61156288 Ry
     Harris-Foulkes estimate   =     -34.61169642 Ry
     estimated scf accuracy    <       0.00072964 Ry

     iteration # 13     ecut=   150.00 Ry     beta= 0.70
     Davidson diagonalization with overlap
     ethr =  9.12E-06,  avg # of iterations =  2.0

     negative rho (up, down):  2.288E-04 0.000E+00

     total cpu time spent up to now is       16.1 secs

     total energy              =     -34.61159923 Ry
     Harris-Foulkes estimate   =     -34.61160798 Ry
     estimated scf accuracy    <       0.00022435 Ry

     iteration # 14     ecut=   150.00 Ry     beta= 0.70
     Davidson diagonalization with overlap
     ethr =  2.80E-06,  avg # of iterations = 14.0

     negative rho (up, down):  2.476E-04 0.000E+00

     total cpu time spent up to now is       17.4 secs

     total energy              =     -34.61161055 Ry
     Harris-Foulkes estimate   =     -34.61160785 Ry
     estimated scf accuracy    <       0.00015910 Ry

     iteration # 15     ecut=   150.00 Ry     beta= 0.70
     Davidson diagonalization with overlap
     ethr =  1.99E-06,  avg # of iterations =  1.0

     negative rho (up, down):  2.567E-04 0.000E+00

     total cpu time spent up to now is       18.4 secs

     total energy              =     -34.61159677 Ry
     Harris-Foulkes estimate   =     -34.61161385 Ry
     estimated scf accuracy    <       0.00013848 Ry

     iteration # 16     ecut=   150.00 Ry     beta= 0.70
     Davidson diagonalization with overlap
     ethr =  1.73E-06,  avg # of iterations =  1.0

     negative rho (up, down):  2.547E-04 0.000E+00

     total cpu time spent up to now is       19.5 secs

     total energy              =     -34.61158937 Ry
     Harris-Foulkes estimate   =     -34.61160003 Ry
     estimated scf accuracy    <       0.00007037 Ry

     iteration # 17     ecut=   150.00 Ry     beta= 0.70
     Davidson diagonalization with overlap
     ethr =  8.80E-07,  avg # of iterations =  1.0

     negative rho (up, down):  2.591E-04 0.000E+00

     total cpu time spent up to now is       20.6 secs

     total energy              =     -34.61157958 Ry
     Harris-Foulkes estimate   =     -34.61159148 Ry
     estimated scf accuracy    <       0.00003351 Ry

     iteration # 18     ecut=   150.00 Ry     beta= 0.70
     Davidson diagonalization with overlap
     ethr =  4.19E-07,  avg # of iterations =  3.0

     negative rho (up, down):  2.608E-04 0.000E+00

     total cpu time spent up to now is       21.7 secs

     total energy              =     -34.61158728 Ry
     Harris-Foulkes estimate   =     -34.61158860 Ry
     estimated scf accuracy    <       0.00000884 Ry

     iteration # 19     ecut=   150.00 Ry     beta= 0.70
     Davidson diagonalization with overlap
     ethr =  1.10E-07,  avg # of iterations =  1.0

     negative rho (up, down):  2.538E-04 0.000E+00

     total cpu time spent up to now is       22.7 secs

     total energy              =     -34.61158626 Ry
     Harris-Foulkes estimate   =     -34.61158753 Ry
     estimated scf accuracy    <       0.00000383 Ry

     iteration # 20     ecut=   150.00 Ry     beta= 0.70
     Davidson diagonalization with overlap
     ethr =  4.79E-08,  avg # of iterations =  2.0

     negative rho (up, down):  2.563E-04 0.000E+00

     total cpu time spent up to now is       23.7 secs

     total energy              =     -34.61158673 Ry
     Harris-Foulkes estimate   =     -34.61158682 Ry
     estimated scf accuracy    <       0.00000027 Ry

     iteration # 21     ecut=   150.00 Ry     beta= 0.70
     Davidson diagonalization with overlap
     ethr =  3.42E-09,  avg # of iterations =  3.0

     negative rho (up, down):  2.584E-04 0.000E+00

     total cpu time spent up to now is       24.8 secs

     total energy              =     -34.61158686 Ry
     Harris-Foulkes estimate   =     -34.61158687 Ry
     estimated scf accuracy    <       0.00000002 Ry

     iteration # 22     ecut=   150.00 Ry     beta= 0.70
     Davidson diagonalization with overlap
     ethr =  2.34E-10,  avg # of iterations =  3.0

     negative rho (up, down):  2.592E-04 0.000E+00

     total cpu time spent up to now is       25.7 secs

     End of self-consistent calculation

          k = 0.0000 0.0000 0.0000 (248049 PWs)   bands (ev):

   -23.3263 -10.2276  -9.7646  -6.8268  -2.7466  -0.6020   0.0751   0.8794

     the Fermi energy is    -4.8319 ev

!    total energy              =     -34.61158687 Ry
     Harris-Foulkes estimate   =     -34.61158687 Ry
     estimated scf accuracy    <          7.0E-09 Ry

     The total energy is the sum of the following terms:

     one-electron contribution =     -59.02954782 Ry
     hartree contribution      =      31.08806459 Ry
     xc contribution           =      -8.45348612 Ry
     ewald contribution        =       1.78338248 Ry
     smearing contrib. (-TS)   =       0.00000000 Ry

     convergence has been achieved in  22 iterations

     Writing output data file pwscf.save
 
     init_run     :      1.71s CPU      1.83s WALL (       1 calls)
     electrons    :     19.94s CPU     23.42s WALL (       1 calls)

     Called by init_run:
     wfcinit      :      0.21s CPU      0.25s WALL (       1 calls)
     potinit      :      0.28s CPU      0.30s WALL (       1 calls)

     Called by electrons:
     c_bands      :      7.73s CPU      7.79s WALL (      22 calls)
     sum_band     :      4.98s CPU      5.56s WALL (      22 calls)
     v_of_rho     :      3.78s CPU      3.95s WALL (      23 calls)
     newd         :      1.76s CPU      2.21s WALL (      23 calls)
     mix_rho      :      1.77s CPU      3.67s WALL (      22 calls)

     Called by c_bands:
     init_us_2    :      0.15s CPU      0.15s WALL (      45 calls)
     cegterg      :      7.58s CPU      7.63s WALL (      22 calls)

     Called by sum_band:
     sum_band:bec :      0.00s CPU      0.00s WALL (      22 calls)
     addusdens    :      2.46s CPU      2.97s WALL (      22 calls)

     Called by *egterg:
     h_psi        :      7.24s CPU      7.28s WALL (      85 calls)
     s_psi        :      0.04s CPU      0.05s WALL (      85 calls)
     g_psi        :      0.02s CPU      0.02s WALL (      62 calls)
     cdiaghg      :      0.02s CPU      0.02s WALL (      84 calls)

     Called by h_psi:
     h_psi:pot    :      7.20s CPU      7.24s WALL (      85 calls)
     h_psi:calbec :      0.08s CPU      0.08s WALL (      85 calls)
     vloc_psi     :      7.08s CPU      7.12s WALL (      85 calls)
     add_vuspsi   :      0.04s CPU      0.04s WALL (      85 calls)

     General routines
     calbec       :      0.11s CPU      0.11s WALL (     107 calls)
     fft          :      3.86s CPU      4.12s WALL (     298 calls)
     fftw         :      7.41s CPU      7.47s WALL (    1028 calls)
     davcio       :      0.24s CPU      2.00s WALL (     347 calls)
 
     Parallel routines
     fft_scatt_xy :      1.75s CPU      1.76s WALL (    1326 calls)
     fft_scatt_yz :      2.39s CPU      2.63s WALL (    1326 calls)
 
     PWSCF        :    22.41s CPU        26.84s WALL

 
   This run was terminated on:  23:31:50  12May2018            

=------------------------------------------------------------------------------=
   JOB DONE.
=------------------------------------------------------------------------------=
