
     Program PWSCF v.6.0 (svn rev. 13079) starts on  5Feb2018 at 12:14:53 

     This program is part of the open-source Quantum ESPRESSO suite
     for quantum simulation of materials; please cite
         "P. Giannozzi et al., J. Phys.:Condens. Matter 21 395502 (2009);
          URL http://www.quantum-espresso.org", 
     in publications or presentations arising from this work. More details at
     http://www.quantum-espresso.org/quote

     Parallel version (MPI), running on    28 processors
     R & G space division:  proc/nbgrp/npool/nimage =      28
     Reading input from input/rand-water-2/10.in
Warning: card &IONS ignored
Warning: card     POT_EXTRAPOLATION='SECOND-ORDER' ignored
Warning: card     WFC_EXTRAPOLATION='SECOND-ORDER' ignored
Warning: card     ION_TEMPERATURE = 'ANDERSEN' ignored
Warning: card     TEMPW = 1000 ignored
Warning: card / ignored

     Current dimensions of program PWSCF are:
     Max number of different atomic species (ntypx) = 10
     Max number of k-points (npk) =  40000
     Max angular momentum in pseudopotentials (lmaxx) =  3

     Subspace diagonalization in iterative solution of the eigenvalue problem:
     a serial algorithm will be used

 
     Parallelization info
     --------------------
     sticks:   dense  smooth     PW     G-vecs:    dense   smooth      PW
     Min         136     136     33                 6338     6338     787
     Max         137     137     34                 6341     6341     792
     Sum        3809    3809    949               177509   177509   22119
 


     bravais-lattice index     =            1
     lattice parameter (alat)  =      20.0000  a.u.
     unit-cell volume          =    8000.0000 (a.u.)^3
     number of atoms/cell      =            6
     number of atomic types    =            2
     number of electrons       =        16.00
     number of Kohn-Sham states=           12
     kinetic-energy cutoff     =      30.0000  Ry
     charge density cutoff     =     120.0000  Ry
     convergence threshold     =      1.0E-08
     mixing beta               =       0.7000
     number of iterations used =            8  plain     mixing
     Exchange-correlation      = BLYP ( 1  3  1  3 0 0)

     celldm(1)=  20.000000  celldm(2)=   0.000000  celldm(3)=   0.000000
     celldm(4)=   0.000000  celldm(5)=   0.000000  celldm(6)=   0.000000

     crystal axes: (cart. coord. in units of alat)
               a(1) = (   1.000000   0.000000   0.000000 )  
               a(2) = (   0.000000   1.000000   0.000000 )  
               a(3) = (   0.000000   0.000000   1.000000 )  

     reciprocal axes: (cart. coord. in units 2 pi/alat)
               b(1) = (  1.000000  0.000000  0.000000 )  
               b(2) = (  0.000000  1.000000  0.000000 )  
               b(3) = (  0.000000  0.000000  1.000000 )  


     PseudoPot. # 1 for  H read from file:
     ./H.blyp-hgh.UPF
     MD5 check sum: c576e69559cde411e611be972c763230
     Pseudo is Norm-conserving, Zval =  1.0
     Generated in analytical, separable form
     Using radial grid of  929 points,  0 beta functions with: 

     PseudoPot. # 2 for  O read from file:
     ./O.blyp-hgh.UPF
     MD5 check sum: d0b7156309aa9befef28faac7bc56342
     Pseudo is Norm-conserving, Zval =  6.0
     Generated in analytical, separable form
     Using radial grid of 1095 points,  1 beta functions with: 
                l(1) =   0

     atomic species   valence    mass     pseudopotential
        H              1.00     1.01000      H( 1.00)
        O              6.00    16.00000      O( 1.00)

     No symmetry found



   Cartesian axes

     site n.     atom                  positions (alat units)
         1           H   tau(   1) = (   0.5625576   0.2644189   0.3591865  )
         2           H   tau(   2) = (   0.6820106   0.8803819   0.0010581  )
         3           O   tau(   3) = (   0.0382608   0.3495730   0.4228761  )
         4           H   tau(   4) = (   0.1269095   0.3039853   0.0203494  )
         5           H   tau(   5) = (   0.8835219   0.1166629   0.4401227  )
         6           O   tau(   6) = (   0.9152874   0.9461357   0.5266044  )

     number of k points=     1  Marzari-Vanderbilt smearing, width (Ry)=  0.0250
                       cart. coord. in units 2pi/alat
        k(    1) = (   0.0000000   0.0000000   0.0000000), wk =   2.0000000

     Dense  grid:   177509 G-vectors     FFT dimensions: (  72,  72,  72)

     Estimated max dynamical RAM per process >       6.09Mb

     Estimated total allocated dynamical RAM >     170.64Mb

     Initial potential from superposition of free atoms
     Check: negative starting charge=   -0.432754

     starting charge   15.99996, renormalised to   16.00000

     negative rho (up, down):  4.328E-01 0.000E+00
     Starting wfc are   12 randomized atomic wfcs

     total cpu time spent up to now is        0.3 secs

     per-process dynamical memory:    14.8 Mb

     Self-consistent Calculation

     iteration #  1     ecut=    30.00 Ry     beta=0.70
     Davidson diagonalization with overlap
     ethr =  1.00E-02,  avg # of iterations =  2.0

     negative rho (up, down):  9.271E-02 0.000E+00

     total cpu time spent up to now is        0.4 secs

     total energy              =     -57.93666174 Ry
     Harris-Foulkes estimate   =     -64.40861424 Ry
     estimated scf accuracy    <       7.28664235 Ry

     iteration #  2     ecut=    30.00 Ry     beta=0.70
     Davidson diagonalization with overlap
     ethr =  1.00E-02,  avg # of iterations =  8.0

     negative rho (up, down):  6.813E-02 0.000E+00

     total cpu time spent up to now is        0.5 secs

     total energy              =     -64.58833484 Ry
     Harris-Foulkes estimate   =     -73.23324045 Ry
     estimated scf accuracy    <      21.51259104 Ry

     iteration #  3     ecut=    30.00 Ry     beta=0.70
     Davidson diagonalization with overlap
     ethr =  1.00E-02,  avg # of iterations =  2.0

     negative rho (up, down):  6.914E-02 0.000E+00

     total cpu time spent up to now is        0.5 secs

     total energy              =     -65.39562296 Ry
     Harris-Foulkes estimate   =     -65.26206478 Ry
     estimated scf accuracy    <       7.54623262 Ry

     iteration #  4     ecut=    30.00 Ry     beta=0.70
     Davidson diagonalization with overlap
     ethr =  1.00E-02,  avg # of iterations =  1.0

     negative rho (up, down):  4.797E-02 0.000E+00

     total cpu time spent up to now is        0.6 secs

     total energy              =     -62.92733317 Ry
     Harris-Foulkes estimate   =     -65.39594463 Ry
     estimated scf accuracy    <       7.76885473 Ry

     iteration #  5     ecut=    30.00 Ry     beta=0.70
     Davidson diagonalization with overlap
     ethr =  1.00E-02,  avg # of iterations =  5.0

     negative rho (up, down):  4.616E-02 0.000E+00

     total cpu time spent up to now is        0.7 secs

     total energy              =     -63.40410519 Ry
     Harris-Foulkes estimate   =     -63.39937761 Ry
     estimated scf accuracy    <      12.23829602 Ry

     iteration #  6     ecut=    30.00 Ry     beta=0.70
     Davidson diagonalization with overlap
     ethr =  1.00E-02,  avg # of iterations =  1.0

     negative rho (up, down):  2.975E-02 0.000E+00

     total cpu time spent up to now is        0.7 secs

     total energy              =     -63.92630832 Ry
     Harris-Foulkes estimate   =     -63.40678018 Ry
     estimated scf accuracy    <      12.00242704 Ry

     iteration #  7     ecut=    30.00 Ry     beta=0.70
     Davidson diagonalization with overlap
     ethr =  1.00E-02,  avg # of iterations =  1.0

     negative rho (up, down):  6.485E-02 0.000E+00

     total cpu time spent up to now is        0.9 secs

     total energy              =     -61.59761316 Ry
     Harris-Foulkes estimate   =     -63.90611357 Ry
     estimated scf accuracy    <      11.95480753 Ry

     iteration #  8     ecut=    30.00 Ry     beta=0.70
     Davidson diagonalization with overlap
     ethr =  1.00E-02,  avg # of iterations =  2.0

     negative rho (up, down):  5.660E-02 0.000E+00

     total cpu time spent up to now is        1.0 secs

     total energy              =     -61.17770174 Ry
     Harris-Foulkes estimate   =     -64.38979339 Ry
     estimated scf accuracy    <       6.19917380 Ry

     iteration #  9     ecut=    30.00 Ry     beta=0.70
     Davidson diagonalization with overlap
     ethr =  1.00E-02,  avg # of iterations =  2.0

     negative rho (up, down):  3.885E-02 0.000E+00

     total cpu time spent up to now is        1.1 secs

     total energy              =     -64.73573350 Ry
     Harris-Foulkes estimate   =     -66.20302041 Ry
     estimated scf accuracy    <      14.92981628 Ry

     iteration # 10     ecut=    30.00 Ry     beta=0.70
     Davidson diagonalization with overlap
     ethr =  1.00E-02,  avg # of iterations =  1.0

     negative rho (up, down):  3.715E-02 0.000E+00

     total cpu time spent up to now is        1.2 secs

     total energy              =     -64.58278655 Ry
     Harris-Foulkes estimate   =     -64.78756415 Ry
     estimated scf accuracy    <       8.99368545 Ry

     iteration # 11     ecut=    30.00 Ry     beta=0.70
     Davidson diagonalization with overlap
     ethr =  1.00E-02,  avg # of iterations =  1.0

     negative rho (up, down):  4.039E-02 0.000E+00

     total cpu time spent up to now is        1.3 secs

     total energy              =     -64.42015010 Ry
     Harris-Foulkes estimate   =     -64.58642881 Ry
     estimated scf accuracy    <       7.99113587 Ry

     iteration # 12     ecut=    30.00 Ry     beta=0.70
     Davidson diagonalization with overlap
     ethr =  1.00E-02,  avg # of iterations =  1.0

     negative rho (up, down):  2.450E-02 0.000E+00

     total cpu time spent up to now is        1.3 secs

     total energy              =     -62.82529089 Ry
     Harris-Foulkes estimate   =     -64.43171691 Ry
     estimated scf accuracy    <       7.35697067 Ry

     iteration # 13     ecut=    30.00 Ry     beta=0.70
     Davidson diagonalization with overlap
     ethr =  1.00E-02,  avg # of iterations =  1.0

     negative rho (up, down):  4.036E-02 0.000E+00

     total cpu time spent up to now is        1.4 secs

     total energy              =     -63.36867645 Ry
     Harris-Foulkes estimate   =     -63.39422198 Ry
     estimated scf accuracy    <       3.07463190 Ry

     iteration # 14     ecut=    30.00 Ry     beta=0.70
     Davidson diagonalization with overlap
     ethr =  1.00E-02,  avg # of iterations =  1.0

     negative rho (up, down):  6.656E-02 0.000E+00

     total cpu time spent up to now is        1.5 secs

     total energy              =     -63.63735837 Ry
     Harris-Foulkes estimate   =     -63.73059057 Ry
     estimated scf accuracy    <       9.68378937 Ry

     iteration # 15     ecut=    30.00 Ry     beta=0.70
     Davidson diagonalization with overlap
     ethr =  1.00E-02,  avg # of iterations =  1.0

     negative rho (up, down):  1.522E-02 0.000E+00

     total cpu time spent up to now is        1.6 secs

     total energy              =     -63.30364377 Ry
     Harris-Foulkes estimate   =     -63.64899111 Ry
     estimated scf accuracy    <       8.81080379 Ry

     iteration # 16     ecut=    30.00 Ry     beta=0.70
     Davidson diagonalization with overlap
     ethr =  1.00E-02,  avg # of iterations =  1.0

     negative rho (up, down):  7.965E-03 0.000E+00

     total cpu time spent up to now is        1.7 secs

     total energy              =     -63.38486885 Ry
     Harris-Foulkes estimate   =     -63.35876932 Ry
     estimated scf accuracy    <       2.41658820 Ry

     iteration # 17     ecut=    30.00 Ry     beta=0.70
     Davidson diagonalization with overlap
     ethr =  1.00E-02,  avg # of iterations =  1.0

     negative rho (up, down):  1.725E-01 0.000E+00

     total cpu time spent up to now is        1.8 secs

     total energy              =     -62.12737222 Ry
     Harris-Foulkes estimate   =     -63.40168386 Ry
     estimated scf accuracy    <       4.46212417 Ry

     iteration # 18     ecut=    30.00 Ry     beta=0.70
     Davidson diagonalization with overlap
     ethr =  1.00E-02,  avg # of iterations =  2.0

     negative rho (up, down):  8.497E-02 0.000E+00

     total cpu time spent up to now is        1.8 secs

     total energy              =     -63.92183979 Ry
     Harris-Foulkes estimate   =     -64.91434209 Ry
     estimated scf accuracy    <       5.48021601 Ry

     iteration # 19     ecut=    30.00 Ry     beta=0.70
     Davidson diagonalization with overlap
     ethr =  1.00E-02,  avg # of iterations =  1.0

     negative rho (up, down):  7.231E-03 0.000E+00

     total cpu time spent up to now is        1.9 secs

     total energy              =     -62.96825969 Ry
     Harris-Foulkes estimate   =     -63.95971318 Ry
     estimated scf accuracy    <       4.64272679 Ry

     iteration # 20     ecut=    30.00 Ry     beta=0.70
     Davidson diagonalization with overlap
     ethr =  1.00E-02,  avg # of iterations =  1.0

     negative rho (up, down):  2.436E-03 0.000E+00

     total cpu time spent up to now is        2.0 secs

     total energy              =     -63.17679615 Ry
     Harris-Foulkes estimate   =     -63.34227262 Ry
     estimated scf accuracy    <       7.13590214 Ry

     iteration # 21     ecut=    30.00 Ry     beta=0.70
     Davidson diagonalization with overlap
     ethr =  1.00E-02,  avg # of iterations =  1.0

     negative rho (up, down):  4.186E-03 0.000E+00

     total cpu time spent up to now is        2.0 secs

     total energy              =     -63.31894090 Ry
     Harris-Foulkes estimate   =     -63.30652472 Ry
     estimated scf accuracy    <       4.23593577 Ry

     iteration # 22     ecut=    30.00 Ry     beta=0.70
     Davidson diagonalization with overlap
     ethr =  1.00E-02,  avg # of iterations =  1.0

     negative rho (up, down):  3.410E-03 0.000E+00

     total cpu time spent up to now is        2.1 secs

     total energy              =     -63.10938439 Ry
     Harris-Foulkes estimate   =     -63.34205024 Ry
     estimated scf accuracy    <       2.80448910 Ry

     iteration # 23     ecut=    30.00 Ry     beta=0.70
     Davidson diagonalization with overlap
     ethr =  1.00E-02,  avg # of iterations =  1.0

     negative rho (up, down):  2.350E-04 0.000E+00

     total cpu time spent up to now is        2.2 secs

     total energy              =     -63.08360373 Ry
     Harris-Foulkes estimate   =     -63.30626624 Ry
     estimated scf accuracy    <       5.73211483 Ry

     iteration # 24     ecut=    30.00 Ry     beta=0.70
     Davidson diagonalization with overlap
     ethr =  1.00E-02,  avg # of iterations =  1.0

     negative rho (up, down):  1.292E-03 0.000E+00

     total cpu time spent up to now is        2.3 secs

     total energy              =     -63.17699209 Ry
     Harris-Foulkes estimate   =     -63.22207814 Ry
     estimated scf accuracy    <       2.86233632 Ry

     iteration # 25     ecut=    30.00 Ry     beta=0.70
     Davidson diagonalization with overlap
     ethr =  1.00E-02,  avg # of iterations =  1.0

     negative rho (up, down):  1.068E-03 0.000E+00

     total cpu time spent up to now is        2.4 secs

     total energy              =     -63.16575325 Ry
     Harris-Foulkes estimate   =     -63.18928111 Ry
     estimated scf accuracy    <       2.17019516 Ry

     iteration # 26     ecut=    30.00 Ry     beta=0.70
     Davidson diagonalization with overlap
     ethr =  1.00E-02,  avg # of iterations =  1.0

     negative rho (up, down):  8.784E-04 0.000E+00

     total cpu time spent up to now is        2.4 secs

     total energy              =     -63.14242400 Ry
     Harris-Foulkes estimate   =     -63.17411415 Ry
     estimated scf accuracy    <       1.09161304 Ry

     iteration # 27     ecut=    30.00 Ry     beta=0.70
     Davidson diagonalization with overlap
     ethr =  6.82E-03,  avg # of iterations =  1.0

     negative rho (up, down):  4.740E-04 0.000E+00

     total cpu time spent up to now is        2.5 secs

     total energy              =     -63.17945006 Ry
     Harris-Foulkes estimate   =     -63.18910247 Ry
     estimated scf accuracy    <       2.10778309 Ry

     iteration # 28     ecut=    30.00 Ry     beta=0.70
     Davidson diagonalization with overlap
     ethr =  6.82E-03,  avg # of iterations =  1.0

     negative rho (up, down):  5.259E-05 0.000E+00

     total cpu time spent up to now is        2.6 secs

     total energy              =     -63.14748211 Ry
     Harris-Foulkes estimate   =     -63.18075260 Ry
     estimated scf accuracy    <       1.72440400 Ry

     iteration # 29     ecut=    30.00 Ry     beta=0.70
     Davidson diagonalization with overlap
     ethr =  6.82E-03,  avg # of iterations =  1.0

     negative rho (up, down):  1.481E-04 0.000E+00

     total cpu time spent up to now is        2.6 secs

     total energy              =     -63.11960695 Ry
     Harris-Foulkes estimate   =     -63.17148869 Ry
     estimated scf accuracy    <       1.41500968 Ry

     iteration # 30     ecut=    30.00 Ry     beta=0.70
     Davidson diagonalization with overlap
     ethr =  6.82E-03,  avg # of iterations =  1.0

     negative rho (up, down):  1.122E-04 0.000E+00

     total cpu time spent up to now is        2.7 secs

     total energy              =     -63.09313870 Ry
     Harris-Foulkes estimate   =     -63.16678937 Ry
     estimated scf accuracy    <       1.14271018 Ry

     iteration # 31     ecut=    30.00 Ry     beta=0.70
     Davidson diagonalization with overlap
     ethr =  6.82E-03,  avg # of iterations =  1.0

     negative rho (up, down):  1.210E-04 0.000E+00

     total cpu time spent up to now is        2.8 secs

     total energy              =     -63.11835722 Ry
     Harris-Foulkes estimate   =     -63.18496627 Ry
     estimated scf accuracy    <       1.78907858 Ry

     iteration # 32     ecut=    30.00 Ry     beta=0.70
     Davidson diagonalization with overlap
     ethr =  6.82E-03,  avg # of iterations =  1.0

     negative rho (up, down):  5.816E-05 0.000E+00

     total cpu time spent up to now is        2.9 secs

     total energy              =     -63.14758410 Ry
     Harris-Foulkes estimate   =     -63.15562841 Ry
     estimated scf accuracy    <       0.32885653 Ry

     iteration # 33     ecut=    30.00 Ry     beta=0.70
     Davidson diagonalization with overlap
     ethr =  2.06E-03,  avg # of iterations =  1.0

     negative rho (up, down):  4.419E-07 0.000E+00

     total cpu time spent up to now is        3.0 secs

     WARNING: integrated charge=    15.99986673, expected=    16.00000000

     total energy              =     -63.15205435 Ry
     Harris-Foulkes estimate   =     -63.15251017 Ry
     estimated scf accuracy    <       0.01851432 Ry

     iteration # 34     ecut=    30.00 Ry     beta=0.70
     Davidson diagonalization with overlap
     ethr =  1.16E-04,  avg # of iterations =  1.0

     negative rho (up, down):  4.581E-03 0.000E+00

     total cpu time spent up to now is        3.2 secs

     WARNING: integrated charge=    16.00341603, expected=    16.00000000

     total energy              =     -63.15117089 Ry
     Harris-Foulkes estimate   =     -63.15224681 Ry
     estimated scf accuracy    <       0.00498307 Ry

     iteration # 35     ecut=    30.00 Ry     beta=0.70
     Davidson diagonalization with overlap
     ethr =  3.11E-05,  avg # of iterations =  1.0

     negative rho (up, down):  3.258E-03 0.000E+00

     total cpu time spent up to now is        3.3 secs

     WARNING: integrated charge=    15.99814038, expected=    16.00000000

     total energy              =     -63.14966697 Ry
     Harris-Foulkes estimate   =     -63.15202594 Ry
     estimated scf accuracy    <       0.05785180 Ry

     iteration # 36     ecut=    30.00 Ry     beta=0.70
     Davidson diagonalization with overlap
     ethr =  3.11E-05,  avg # of iterations =  1.0

     negative rho (up, down):  9.432E-03 0.000E+00

     total cpu time spent up to now is        3.4 secs

     WARNING: integrated charge=    16.00028380, expected=    16.00000000

     total energy              =     -63.14912342 Ry
     Harris-Foulkes estimate   =     -63.15214030 Ry
     estimated scf accuracy    <       0.05015281 Ry

     iteration # 37     ecut=    30.00 Ry     beta=0.70
     Davidson diagonalization with overlap
     ethr =  3.11E-05,  avg # of iterations =  1.0

     negative rho (up, down):  1.056E-02 0.000E+00

     total cpu time spent up to now is        3.4 secs

     WARNING: integrated charge=    16.00115817, expected=    16.00000000

     total energy              =     -63.15026397 Ry
     Harris-Foulkes estimate   =     -63.15047465 Ry
     estimated scf accuracy    <       0.01829164 Ry

     iteration # 38     ecut=    30.00 Ry     beta=0.70
     Davidson diagonalization with overlap
     ethr =  3.11E-05,  avg # of iterations =  1.0

     negative rho (up, down):  2.364E-02 0.000E+00

     total cpu time spent up to now is        3.5 secs

     WARNING: integrated charge=    16.00847243, expected=    16.00000000

     total energy              =     -63.14981679 Ry
     Harris-Foulkes estimate   =     -63.15033411 Ry
     estimated scf accuracy    <       0.02433992 Ry

     iteration # 39     ecut=    30.00 Ry     beta=0.70
     Davidson diagonalization with overlap
     ethr =  3.11E-05,  avg # of iterations =  1.0

     negative rho (up, down):  2.219E-03 0.000E+00

     total cpu time spent up to now is        3.6 secs

     WARNING: integrated charge=    15.99810190, expected=    16.00000000

     total energy              =     -63.14506821 Ry
     Harris-Foulkes estimate   =     -63.15322804 Ry
     estimated scf accuracy    <       0.47507635 Ry

     iteration # 40     ecut=    30.00 Ry     beta=0.70
     Davidson diagonalization with overlap
     ethr =  3.11E-05,  avg # of iterations =  1.0

     negative rho (up, down):  8.957E-03 0.000E+00

     total cpu time spent up to now is        3.7 secs

     WARNING: integrated charge=    16.00151418, expected=    16.00000000

     total energy              =     -63.14956017 Ry
     Harris-Foulkes estimate   =     -63.15204385 Ry
     estimated scf accuracy    <       0.02097827 Ry

     iteration # 41     ecut=    30.00 Ry     beta=0.70
     Davidson diagonalization with overlap
     ethr =  3.11E-05,  avg # of iterations =  1.0

     negative rho (up, down):  4.529E-03 0.000E+00

     total cpu time spent up to now is        3.8 secs

     WARNING: integrated charge=    16.00025326, expected=    16.00000000

     total energy              =     -63.15117712 Ry
     Harris-Foulkes estimate   =     -63.15085132 Ry
     estimated scf accuracy    <       0.04128367 Ry

     iteration # 42     ecut=    30.00 Ry     beta=0.70
     Davidson diagonalization with overlap
     ethr =  3.11E-05,  avg # of iterations =  1.0

     negative rho (up, down):  7.144E-04 0.000E+00

     total cpu time spent up to now is        3.8 secs

     WARNING: integrated charge=    16.00097436, expected=    16.00000000

     total energy              =     -63.15201504 Ry
     Harris-Foulkes estimate   =     -63.15136890 Ry
     estimated scf accuracy    <       0.00511795 Ry

     iteration # 43     ecut=    30.00 Ry     beta=0.70
     Davidson diagonalization with overlap
     ethr =  3.11E-05,  avg # of iterations =  1.0

     negative rho (up, down):  5.113E-05 0.000E+00

     total cpu time spent up to now is        3.9 secs

     WARNING: integrated charge=    16.00032218, expected=    16.00000000

     total energy              =     -63.15216499 Ry
     Harris-Foulkes estimate   =     -63.15205721 Ry
     estimated scf accuracy    <       0.00034445 Ry

     iteration # 44     ecut=    30.00 Ry     beta=0.70
     Davidson diagonalization with overlap
     ethr =  2.15E-06,  avg # of iterations =  1.0

     negative rho (up, down):  2.643E-05 0.000E+00

     total cpu time spent up to now is        4.0 secs

     WARNING: integrated charge=    16.00016187, expected=    16.00000000

     total energy              =     -63.15217360 Ry
     Harris-Foulkes estimate   =     -63.15217136 Ry
     estimated scf accuracy    <       0.00001036 Ry

     iteration # 45     ecut=    30.00 Ry     beta=0.70
     Davidson diagonalization with overlap
     ethr =  6.48E-08,  avg # of iterations =  1.0

     negative rho (up, down):  1.829E-05 0.000E+00

     total cpu time spent up to now is        4.1 secs

     WARNING: integrated charge=    16.00009939, expected=    16.00000000

     total energy              =     -63.15217496 Ry
     Harris-Foulkes estimate   =     -63.15217393 Ry
     estimated scf accuracy    <       0.00000142 Ry

     iteration # 46     ecut=    30.00 Ry     beta=0.70
     Davidson diagonalization with overlap
     ethr =  8.85E-09,  avg # of iterations =  2.0

     negative rho (up, down):  7.225E-06 0.000E+00

     total cpu time spent up to now is        4.2 secs

     WARNING: integrated charge=    16.00003367, expected=    16.00000000

     total energy              =     -63.15217570 Ry
     Harris-Foulkes estimate   =     -63.15217503 Ry
     estimated scf accuracy    <       0.00000030 Ry

     iteration # 47     ecut=    30.00 Ry     beta=0.70
     Davidson diagonalization with overlap
     ethr =  1.87E-09,  avg # of iterations =  2.0

     negative rho (up, down):  4.138E-06 0.000E+00

     total cpu time spent up to now is        4.3 secs

     WARNING: integrated charge=    16.00003443, expected=    16.00000000

     total energy              =     -63.15217524 Ry
     Harris-Foulkes estimate   =     -63.15217575 Ry
     estimated scf accuracy    <       0.00000222 Ry

     iteration # 48     ecut=    30.00 Ry     beta=0.70
     Davidson diagonalization with overlap
     ethr =  1.87E-09,  avg # of iterations =  1.0

     negative rho (up, down):  1.680E-06 0.000E+00

     total cpu time spent up to now is        4.4 secs

     WARNING: integrated charge=    16.00001611, expected=    16.00000000

     total energy              =     -63.15217509 Ry
     Harris-Foulkes estimate   =     -63.15217531 Ry
     estimated scf accuracy    <       0.00000144 Ry

     iteration # 49     ecut=    30.00 Ry     beta=0.70
     Davidson diagonalization with overlap
     ethr =  1.87E-09,  avg # of iterations =  1.0

     total cpu time spent up to now is        4.5 secs

     total energy              =     -63.15217463 Ry
     Harris-Foulkes estimate   =     -63.15217511 Ry
     estimated scf accuracy    <       0.00000012 Ry

     iteration # 50     ecut=    30.00 Ry     beta=0.70
     Davidson diagonalization with overlap
     ethr =  7.21E-10,  avg # of iterations =  1.0

     total cpu time spent up to now is        4.5 secs

     WARNING: integrated charge=    15.99999669, expected=    16.00000000

     total energy              =     -63.15217453 Ry
     Harris-Foulkes estimate   =     -63.15217464 Ry
     estimated scf accuracy    <       0.00000002 Ry

     iteration # 51     ecut=    30.00 Ry     beta=0.70
     Davidson diagonalization with overlap
     ethr =  1.17E-10,  avg # of iterations =  1.0

     total cpu time spent up to now is        4.6 secs

     total energy              =     -63.15217455 Ry
     Harris-Foulkes estimate   =     -63.15217453 Ry
     estimated scf accuracy    <       0.00000007 Ry

     iteration # 52     ecut=    30.00 Ry     beta=0.70
     Davidson diagonalization with overlap
     ethr =  1.17E-10,  avg # of iterations =  1.0

     total cpu time spent up to now is        4.7 secs

     End of self-consistent calculation

          k = 0.0000 0.0000 0.0000 ( 22119 PWs)   bands (ev):

   -23.5442 -23.4190  -8.1536  -6.8941  -6.8796  -6.8716  -6.8692  -6.8475
    -6.7594  -6.7438  -6.7314  -5.1490

     the Fermi energy is    -6.7203 ev

!    total energy              =     -63.15217447 Ry
     Harris-Foulkes estimate   =     -63.15217456 Ry
     estimated scf accuracy    <          6.1E-09 Ry

     The total energy is the sum of the following terms:

     one-electron contribution =     -81.59098784 Ry
     hartree contribution      =      43.33741869 Ry
     xc contribution           =     -14.13793943 Ry
     ewald contribution        =     -10.71125014 Ry
     smearing contrib. (-TS)   =      -0.04941576 Ry

     convergence has been achieved in  52 iterations

     Writing output data file pwscf.save
 
     init_run     :      0.10s CPU      0.15s WALL (       1 calls)
     electrons    :      1.97s CPU      4.40s WALL (       1 calls)

     Called by init_run:
     wfcinit      :      0.02s CPU      0.06s WALL (       1 calls)
     potinit      :      0.02s CPU      0.03s WALL (       1 calls)

     Called by electrons:
     c_bands      :      0.77s CPU      0.83s WALL (      52 calls)
     sum_band     :      0.19s CPU      0.20s WALL (      52 calls)
     v_of_rho     :      0.45s CPU      0.49s WALL (      53 calls)
     mix_rho      :      0.52s CPU      2.72s WALL (      52 calls)

     Called by c_bands:
     init_us_2    :      0.01s CPU      0.01s WALL (     105 calls)
     cegterg      :      0.75s CPU      0.79s WALL (      52 calls)

     Called by sum_band:

     Called by *egterg:
     h_psi        :      0.67s CPU      0.70s WALL (     123 calls)
     g_psi        :      0.00s CPU      0.00s WALL (      70 calls)
     cdiaghg      :      0.03s CPU      0.03s WALL (     122 calls)

     Called by h_psi:
     h_psi:pot    :      0.67s CPU      0.70s WALL (     123 calls)
     h_psi:calbec :      0.01s CPU      0.03s WALL (     123 calls)
     vloc_psi     :      0.65s CPU      0.67s WALL (     123 calls)
     add_vuspsi   :      0.00s CPU      0.00s WALL (     123 calls)

     General routines
     calbec       :      0.01s CPU      0.03s WALL (     123 calls)
     fft          :      0.28s CPU      0.31s WALL (     582 calls)
     fftw         :      0.72s CPU      0.75s WALL (    3288 calls)
     davcio       :      0.05s CPU      2.10s WALL (     948 calls)
 
     Parallel routines
     fft_scatter  :      0.40s CPU      0.44s WALL (    3870 calls)
 
     PWSCF        :     2.19s CPU         5.23s WALL

 
   This run was terminated on:  12:14:59   5Feb2018            

=------------------------------------------------------------------------------=
   JOB DONE.
=------------------------------------------------------------------------------=
