
     Program PWSCF v.6.0 (svn rev. 13079) starts on 13Feb2018 at 16:15:52 

     This program is part of the open-source Quantum ESPRESSO suite
     for quantum simulation of materials; please cite
         "P. Giannozzi et al., J. Phys.:Condens. Matter 21 395502 (2009);
          URL http://www.quantum-espresso.org", 
     in publications or presentations arising from this work. More details at
     http://www.quantum-espresso.org/quote

     Parallel version (MPI), running on    28 processors
     R & G space division:  proc/nbgrp/npool/nimage =      28
     Reading input from inputs/MD-H2O-round1/618.in

     Current dimensions of program PWSCF are:
     Max number of different atomic species (ntypx) = 10
     Max number of k-points (npk) =  40000
     Max angular momentum in pseudopotentials (lmaxx) =  3

     Subspace diagonalization in iterative solution of the eigenvalue problem:
     a serial algorithm will be used

 
     Parallelization info
     --------------------
     sticks:   dense  smooth     PW     G-vecs:    dense   smooth      PW
     Min         136     136     33                 6338     6338     787
     Max         137     137     34                 6341     6341     792
     Sum        3809    3809    949               177509   177509   22119
 


     bravais-lattice index     =            1
     lattice parameter (alat)  =      20.0000  a.u.
     unit-cell volume          =    8000.0000 (a.u.)^3
     number of atoms/cell      =            3
     number of atomic types    =            2
     number of electrons       =         8.00
     number of Kohn-Sham states=            8
     kinetic-energy cutoff     =      30.0000  Ry
     charge density cutoff     =     120.0000  Ry
     convergence threshold     =      1.0E-08
     mixing beta               =       0.7000
     number of iterations used =            8  plain     mixing
     Exchange-correlation      = BLYP ( 1  3  1  3 0 0)
     nstep                     =         5000


     celldm(1)=  20.000000  celldm(2)=   0.000000  celldm(3)=   0.000000
     celldm(4)=   0.000000  celldm(5)=   0.000000  celldm(6)=   0.000000

     crystal axes: (cart. coord. in units of alat)
               a(1) = (   1.000000   0.000000   0.000000 )  
               a(2) = (   0.000000   1.000000   0.000000 )  
               a(3) = (   0.000000   0.000000   1.000000 )  

     reciprocal axes: (cart. coord. in units 2 pi/alat)
               b(1) = (  1.000000  0.000000  0.000000 )  
               b(2) = (  0.000000  1.000000  0.000000 )  
               b(3) = (  0.000000  0.000000  1.000000 )  


     PseudoPot. # 1 for  H read from file:
     ./H.blyp-hgh.UPF
     MD5 check sum: c576e69559cde411e611be972c763230
     Pseudo is Norm-conserving, Zval =  1.0
     Generated in analytical, separable form
     Using radial grid of  929 points,  0 beta functions with: 

     PseudoPot. # 2 for  O read from file:
     ./O.blyp-hgh.UPF
     MD5 check sum: d0b7156309aa9befef28faac7bc56342
     Pseudo is Norm-conserving, Zval =  6.0
     Generated in analytical, separable form
     Using radial grid of 1095 points,  1 beta functions with: 
                l(1) =   0

     atomic species   valence    mass     pseudopotential
        H              1.00     1.01000      H( 1.00)
        O              6.00    16.00000      O( 1.00)

     No symmetry found



   Cartesian axes

     site n.     atom                  positions (alat units)
         1           O   tau(   1) = (   0.4324863   0.5836014   0.6588947  )
         2           H   tau(   2) = (   0.3929972   0.5833675   0.7310043  )
         3           H   tau(   3) = (   0.7424188   0.9911219   0.0405843  )

     number of k points=     1  Marzari-Vanderbilt smearing, width (Ry)=  0.0250
                       cart. coord. in units 2pi/alat
        k(    1) = (   0.0000000   0.0000000   0.0000000), wk =   2.0000000

     Dense  grid:   177509 G-vectors     FFT dimensions: (  72,  72,  72)

     Estimated max dynamical RAM per process >       6.09Mb

     Estimated total allocated dynamical RAM >     170.64Mb

     Initial potential from superposition of free atoms
     Check: negative starting charge=   -0.352105

     starting charge    7.99998, renormalised to    8.00000

     negative rho (up, down):  3.521E-01 0.000E+00
     Starting wfc are    6 randomized atomic wfcs +    2 random wfc

     total cpu time spent up to now is        0.3 secs

     per-process dynamical memory:    18.8 Mb

     Self-consistent Calculation

     iteration #  1     ecut=    30.00 Ry     beta=0.70
     Davidson diagonalization with overlap
     ethr =  1.00E-02,  avg # of iterations =  5.0

     negative rho (up, down):  9.455E-02 0.000E+00

     total cpu time spent up to now is        0.4 secs

     total energy              =     -31.70060308 Ry
     Harris-Foulkes estimate   =     -32.09532235 Ry
     estimated scf accuracy    <       0.38087480 Ry

     iteration #  2     ecut=    30.00 Ry     beta=0.70
     Davidson diagonalization with overlap
     ethr =  4.76E-03,  avg # of iterations =  2.0

     negative rho (up, down):  7.577E-02 0.000E+00

     total cpu time spent up to now is        0.5 secs

     total energy              =     -31.59748234 Ry
     Harris-Foulkes estimate   =     -32.01888098 Ry
     estimated scf accuracy    <       1.57071073 Ry

     iteration #  3     ecut=    30.00 Ry     beta=0.70
     Davidson diagonalization with overlap
     ethr =  4.76E-03,  avg # of iterations =  1.0

     negative rho (up, down):  3.093E-02 0.000E+00

     total cpu time spent up to now is        0.5 secs

     total energy              =     -31.79448063 Ry
     Harris-Foulkes estimate   =     -31.98138140 Ry
     estimated scf accuracy    <       1.27567723 Ry

     iteration #  4     ecut=    30.00 Ry     beta=0.70
     Davidson diagonalization with overlap
     ethr =  4.76E-03,  avg # of iterations =  1.0

     negative rho (up, down):  3.757E-03 0.000E+00

     total cpu time spent up to now is        0.6 secs

     total energy              =     -31.84014370 Ry
     Harris-Foulkes estimate   =     -31.83569076 Ry
     estimated scf accuracy    <       0.12818060 Ry

     iteration #  5     ecut=    30.00 Ry     beta=0.70
     Davidson diagonalization with overlap
     ethr =  1.60E-03,  avg # of iterations =  1.0

     negative rho (up, down):  1.286E-03 0.000E+00

     total cpu time spent up to now is        0.6 secs

     total energy              =     -31.83289249 Ry
     Harris-Foulkes estimate   =     -31.90105183 Ry
     estimated scf accuracy    <       0.92785482 Ry

     iteration #  6     ecut=    30.00 Ry     beta=0.70
     Davidson diagonalization with overlap
     ethr =  1.60E-03,  avg # of iterations =  1.0

     negative rho (up, down):  3.588E-04 0.000E+00

     total cpu time spent up to now is        0.6 secs

     total energy              =     -31.84869599 Ry
     Harris-Foulkes estimate   =     -31.86985465 Ry
     estimated scf accuracy    <       0.49523807 Ry

     iteration #  7     ecut=    30.00 Ry     beta=0.70
     Davidson diagonalization with overlap
     ethr =  1.60E-03,  avg # of iterations =  1.0

     negative rho (up, down):  1.876E-04 0.000E+00

     total cpu time spent up to now is        0.7 secs

     total energy              =     -31.85574492 Ry
     Harris-Foulkes estimate   =     -31.86728497 Ry
     estimated scf accuracy    <       0.21878629 Ry

     iteration #  8     ecut=    30.00 Ry     beta=0.70
     Davidson diagonalization with overlap
     ethr =  1.60E-03,  avg # of iterations =  1.0

     negative rho (up, down):  1.537E-07 0.000E+00

     total cpu time spent up to now is        0.7 secs

     total energy              =     -31.86571372 Ry
     Harris-Foulkes estimate   =     -31.86669523 Ry
     estimated scf accuracy    <       0.22259659 Ry

     iteration #  9     ecut=    30.00 Ry     beta=0.70
     Davidson diagonalization with overlap
     ethr =  1.60E-03,  avg # of iterations =  1.0

     negative rho (up, down):  7.315E-08 0.000E+00

     total cpu time spent up to now is        0.8 secs

     total energy              =     -31.85991794 Ry
     Harris-Foulkes estimate   =     -31.86581472 Ry
     estimated scf accuracy    <       0.14740179 Ry

     iteration # 10     ecut=    30.00 Ry     beta=0.70
     Davidson diagonalization with overlap
     ethr =  1.60E-03,  avg # of iterations =  1.0

     total cpu time spent up to now is        0.8 secs

     total energy              =     -31.86387628 Ry
     Harris-Foulkes estimate   =     -31.86472134 Ry
     estimated scf accuracy    <       0.05252998 Ry

     iteration # 11     ecut=    30.00 Ry     beta=0.70
     Davidson diagonalization with overlap
     ethr =  6.57E-04,  avg # of iterations =  1.0

     total cpu time spent up to now is        0.9 secs

     total energy              =     -31.86410999 Ry
     Harris-Foulkes estimate   =     -31.86412306 Ry
     estimated scf accuracy    <       0.00857663 Ry

     iteration # 12     ecut=    30.00 Ry     beta=0.70
     Davidson diagonalization with overlap
     ethr =  1.07E-04,  avg # of iterations =  7.0

     total cpu time spent up to now is        0.9 secs

     total energy              =     -31.86400733 Ry
     Harris-Foulkes estimate   =     -31.86411047 Ry
     estimated scf accuracy    <       0.00758861 Ry

     iteration # 13     ecut=    30.00 Ry     beta=0.70
     Davidson diagonalization with overlap
     ethr =  9.49E-05,  avg # of iterations =  1.0

     total cpu time spent up to now is        1.0 secs

     total energy              =     -31.86399413 Ry
     Harris-Foulkes estimate   =     -31.86403392 Ry
     estimated scf accuracy    <       0.00171886 Ry

     iteration # 14     ecut=    30.00 Ry     beta=0.70
     Davidson diagonalization with overlap
     ethr =  2.15E-05,  avg # of iterations =  4.0

     total cpu time spent up to now is        1.0 secs

     total energy              =     -31.86401206 Ry
     Harris-Foulkes estimate   =     -31.86401213 Ry
     estimated scf accuracy    <       0.00001327 Ry

     iteration # 15     ecut=    30.00 Ry     beta=0.70
     Davidson diagonalization with overlap
     ethr =  1.66E-07,  avg # of iterations = 18.0

     total cpu time spent up to now is        1.1 secs

     total energy              =     -31.86401232 Ry
     Harris-Foulkes estimate   =     -31.86401225 Ry
     estimated scf accuracy    <       0.00000006 Ry

     iteration # 16     ecut=    30.00 Ry     beta=0.70
     Davidson diagonalization with overlap
     ethr =  8.02E-10,  avg # of iterations =  1.0

     total cpu time spent up to now is        1.2 secs

     total energy              =     -31.86401246 Ry
     Harris-Foulkes estimate   =     -31.86401232 Ry
     estimated scf accuracy    <       0.00000008 Ry

     iteration # 17     ecut=    30.00 Ry     beta=0.70
     Davidson diagonalization with overlap
     ethr =  8.02E-10,  avg # of iterations =  1.0

     total cpu time spent up to now is        1.2 secs

     End of self-consistent calculation

          k = 0.0000 0.0000 0.0000 ( 22119 PWs)   bands (ev):

   -25.9782 -11.0365  -7.1453  -7.1451  -7.0021  -0.4641   0.5137   0.8187

     the Fermi energy is    -6.9736 ev

!    total energy              =     -31.86401246 Ry
     Harris-Foulkes estimate   =     -31.86401246 Ry
     estimated scf accuracy    <          4.4E-09 Ry

     convergence has been achieved in  17 iterations

     Forces acting on atoms (Ry/au):

     atom    1 type  2   force =     0.25231493    0.00164838   -0.46026649
     atom    2 type  1   force =    -0.25202590   -0.00160643    0.46014111
     atom    3 type  1   force =    -0.00028903   -0.00004195    0.00012537

     Total force =     0.742132     Total SCF correction =     0.000087

     Molecular Dynamics Calculation

     Starting temperature  =  1000.00 K

     temperature is controlled by Andersen thermostat
     Collision frequency = 1.0000/timestep
     mass H                =     1.01
     mass O                =    16.00
     Time step             =   100.00 a.u.,  4.8378 femto-seconds

     Entering Dynamics:    iteration =     1
                           time      =   0.0048 pico-seconds


     Andersen thermostat:    3 collisions

ATOMIC_POSITIONS (bohr)
O        8.723726096  11.665162855  12.998354652
H        6.492601965  11.839076857  17.022001229
H       15.043440284  19.759463916   1.253958459


     kinetic energy (Ekin) =     0.01337019 Ry
     temperature           =   703.66124461 K 
     Ekin + Etot (const)   =   -31.85064227 Ry

     Linear momentum :   -0.0000000000    0.0000000000    0.0000000000

     Writing output data file pwscf.save
     Check: negative starting charge=   -0.352105
     NEW-OLD atomic charge density approx. for the potential
     Check: negative starting charge=   -0.344038

     negative rho (up, down):  3.723E-01 0.000E+00

     total cpu time spent up to now is        1.6 secs

     per-process dynamical memory:    20.4 Mb

     Self-consistent Calculation

     iteration #  1     ecut=    30.00 Ry     beta=0.70
     Davidson diagonalization with overlap
     ethr =  1.00E-06,  avg # of iterations = 19.0

     negative rho (up, down):  9.326E-02 0.000E+00

     total cpu time spent up to now is        1.8 secs

     total energy              =     -25.64444711 Ry
     Harris-Foulkes estimate   =     -32.87670657 Ry
     estimated scf accuracy    <       3.75597113 Ry

     iteration #  2     ecut=    30.00 Ry     beta=0.70
     Davidson diagonalization with overlap
     ethr =  1.00E-02,  avg # of iterations =  3.0

     negative rho (up, down):  6.844E-02 0.000E+00

     total cpu time spent up to now is        1.9 secs

     total energy              =     -31.85715728 Ry
     Harris-Foulkes estimate   =     -35.97863619 Ry
     estimated scf accuracy    <      10.36056091 Ry

     iteration #  3     ecut=    30.00 Ry     beta=0.70
     Davidson diagonalization with overlap
     ethr =  1.00E-02,  avg # of iterations =  2.0

     negative rho (up, down):  5.091E-02 0.000E+00

     total cpu time spent up to now is        1.9 secs

     total energy              =     -31.37480128 Ry
     Harris-Foulkes estimate   =     -32.20865317 Ry
     estimated scf accuracy    <       3.23541574 Ry

     iteration #  4     ecut=    30.00 Ry     beta=0.70
     Davidson diagonalization with overlap
     ethr =  1.00E-02,  avg # of iterations =  2.0

     negative rho (up, down):  4.104E-02 0.000E+00

     total cpu time spent up to now is        2.0 secs

     total energy              =     -31.15360397 Ry
     Harris-Foulkes estimate   =     -31.78207263 Ry
     estimated scf accuracy    <       3.54014143 Ry

     iteration #  5     ecut=    30.00 Ry     beta=0.70
     Davidson diagonalization with overlap
     ethr =  1.00E-02,  avg # of iterations =  1.0

     negative rho (up, down):  2.885E-02 0.000E+00

     total cpu time spent up to now is        2.0 secs

     total energy              =     -31.72314931 Ry
     Harris-Foulkes estimate   =     -31.87170158 Ry
     estimated scf accuracy    <       2.36647539 Ry

     iteration #  6     ecut=    30.00 Ry     beta=0.70
     Davidson diagonalization with overlap
     ethr =  1.00E-02,  avg # of iterations =  1.0

     negative rho (up, down):  2.106E-02 0.000E+00

     total cpu time spent up to now is        2.1 secs

     total energy              =     -31.59284547 Ry
     Harris-Foulkes estimate   =     -31.72668051 Ry
     estimated scf accuracy    <       2.02859400 Ry

     iteration #  7     ecut=    30.00 Ry     beta=0.70
     Davidson diagonalization with overlap
     ethr =  1.00E-02,  avg # of iterations =  1.0

     negative rho (up, down):  1.802E-02 0.000E+00

     total cpu time spent up to now is        2.1 secs

     total energy              =     -31.55318705 Ry
     Harris-Foulkes estimate   =     -31.59662104 Ry
     estimated scf accuracy    <       1.36246201 Ry

     iteration #  8     ecut=    30.00 Ry     beta=0.70
     Davidson diagonalization with overlap
     ethr =  1.00E-02,  avg # of iterations =  1.0

     negative rho (up, down):  7.038E-03 0.000E+00

     total cpu time spent up to now is        2.2 secs

     total energy              =     -31.63965475 Ry
     Harris-Foulkes estimate   =     -31.58363222 Ry
     estimated scf accuracy    <       0.39623118 Ry

     iteration #  9     ecut=    30.00 Ry     beta=0.70
     Davidson diagonalization with overlap
     ethr =  4.95E-03,  avg # of iterations =  1.0

     negative rho (up, down):  6.402E-03 0.000E+00

     total cpu time spent up to now is        2.2 secs

     total energy              =     -31.70737906 Ry
     Harris-Foulkes estimate   =     -31.71633615 Ry
     estimated scf accuracy    <       1.56173333 Ry

     iteration # 10     ecut=    30.00 Ry     beta=0.70
     Davidson diagonalization with overlap
     ethr =  4.95E-03,  avg # of iterations =  1.0

     negative rho (up, down):  5.673E-04 0.000E+00

     total cpu time spent up to now is        2.3 secs

     total energy              =     -31.71410033 Ry
     Harris-Foulkes estimate   =     -31.70752721 Ry
     estimated scf accuracy    <       1.55364086 Ry

     iteration # 11     ecut=    30.00 Ry     beta=0.70
     Davidson diagonalization with overlap
     ethr =  4.95E-03,  avg # of iterations =  1.0

     negative rho (up, down):  1.456E-03 0.000E+00

     total cpu time spent up to now is        2.3 secs

     total energy              =     -31.33106694 Ry
     Harris-Foulkes estimate   =     -31.71526414 Ry
     estimated scf accuracy    <       1.67070180 Ry

     iteration # 12     ecut=    30.00 Ry     beta=0.70
     Davidson diagonalization with overlap
     ethr =  4.95E-03,  avg # of iterations =  1.0

     negative rho (up, down):  2.045E-04 0.000E+00

     total cpu time spent up to now is        2.4 secs

     total energy              =     -31.68289502 Ry
     Harris-Foulkes estimate   =     -31.79904407 Ry
     estimated scf accuracy    <       1.43556052 Ry

     iteration # 13     ecut=    30.00 Ry     beta=0.70
     Davidson diagonalization with overlap
     ethr =  4.95E-03,  avg # of iterations =  1.0

     negative rho (up, down):  4.548E-05 0.000E+00

     total cpu time spent up to now is        2.4 secs

     total energy              =     -31.54085106 Ry
     Harris-Foulkes estimate   =     -31.68433492 Ry
     estimated scf accuracy    <       1.15401543 Ry

     iteration # 14     ecut=    30.00 Ry     beta=0.70
     Davidson diagonalization with overlap
     ethr =  4.95E-03,  avg # of iterations =  1.0

     negative rho (up, down):  5.714E-06 0.000E+00

     total cpu time spent up to now is        2.5 secs

     total energy              =     -31.56804461 Ry
     Harris-Foulkes estimate   =     -31.59168360 Ry
     estimated scf accuracy    <       0.88865361 Ry

     iteration # 15     ecut=    30.00 Ry     beta=0.70
     Davidson diagonalization with overlap
     ethr =  4.95E-03,  avg # of iterations =  1.0

     negative rho (up, down):  1.349E-06 0.000E+00

     total cpu time spent up to now is        2.5 secs

     total energy              =     -31.58036240 Ry
     Harris-Foulkes estimate   =     -31.58023499 Ry
     estimated scf accuracy    <       0.00401330 Ry

     iteration # 16     ecut=    30.00 Ry     beta=0.70
     Davidson diagonalization with overlap
     ethr =  5.02E-05,  avg # of iterations =  8.0

     negative rho (up, down):  7.405E-08 0.000E+00

     total cpu time spent up to now is        2.6 secs

     total energy              =     -31.58056338 Ry
     Harris-Foulkes estimate   =     -31.58049848 Ry
     estimated scf accuracy    <       0.02620117 Ry

     iteration # 17     ecut=    30.00 Ry     beta=0.70
     Davidson diagonalization with overlap
     ethr =  5.02E-05,  avg # of iterations =  1.0

     negative rho (up, down):  1.052E-08 0.000E+00

     total cpu time spent up to now is        2.6 secs

     total energy              =     -31.58003057 Ry
     Harris-Foulkes estimate   =     -31.58057908 Ry
     estimated scf accuracy    <       0.03106965 Ry

     iteration # 18     ecut=    30.00 Ry     beta=0.70
     Davidson diagonalization with overlap
     ethr =  5.02E-05,  avg # of iterations =  1.0

     total cpu time spent up to now is        2.7 secs

     total energy              =     -31.58011588 Ry
     Harris-Foulkes estimate   =     -31.58021137 Ry
     estimated scf accuracy    <       0.00352125 Ry

     iteration # 19     ecut=    30.00 Ry     beta=0.70
     Davidson diagonalization with overlap
     ethr =  4.40E-05,  avg # of iterations =  1.0

     total cpu time spent up to now is        2.7 secs

     total energy              =     -31.58016589 Ry
     Harris-Foulkes estimate   =     -31.58017017 Ry
     estimated scf accuracy    <       0.00006256 Ry

     iteration # 20     ecut=    30.00 Ry     beta=0.70
     Davidson diagonalization with overlap
     ethr =  7.82E-07,  avg # of iterations =  3.0

     total cpu time spent up to now is        2.8 secs

     total energy              =     -31.58016390 Ry
     Harris-Foulkes estimate   =     -31.58017147 Ry
     estimated scf accuracy    <       0.00018929 Ry

     iteration # 21     ecut=    30.00 Ry     beta=0.70
     Davidson diagonalization with overlap
     ethr =  7.82E-07,  avg # of iterations =  1.0

     total cpu time spent up to now is        2.8 secs

     total energy              =     -31.58016876 Ry
     Harris-Foulkes estimate   =     -31.58016935 Ry
     estimated scf accuracy    <       0.00005473 Ry

     iteration # 22     ecut=    30.00 Ry     beta=0.70
     Davidson diagonalization with overlap
     ethr =  6.84E-07,  avg # of iterations =  1.0

     total cpu time spent up to now is        2.9 secs

     total energy              =     -31.58016814 Ry
     Harris-Foulkes estimate   =     -31.58016884 Ry
     estimated scf accuracy    <       0.00002300 Ry

     iteration # 23     ecut=    30.00 Ry     beta=0.70
     Davidson diagonalization with overlap
     ethr =  2.87E-07,  avg # of iterations =  1.0

     total cpu time spent up to now is        2.9 secs

     total energy              =     -31.58016844 Ry
     Harris-Foulkes estimate   =     -31.58016844 Ry
     estimated scf accuracy    <       0.00000003 Ry

     iteration # 24     ecut=    30.00 Ry     beta=0.70
     Davidson diagonalization with overlap
     ethr =  3.73E-10,  avg # of iterations =  1.0

     total cpu time spent up to now is        2.9 secs

     End of self-consistent calculation

          k = 0.0000 0.0000 0.0000 ( 22119 PWs)   bands (ev):

   -23.6053  -7.8481  -6.9256  -6.9246  -6.7914  -6.2376  -0.1574   0.7135

     the Fermi energy is    -6.7573 ev

!    total energy              =     -31.58016844 Ry
     Harris-Foulkes estimate   =     -31.58016844 Ry
     estimated scf accuracy    <          3.1E-09 Ry

     convergence has been achieved in  24 iterations

     Forces acting on atoms (Ry/au):

     atom    1 type  2   force =    -0.03948757    0.00325527    0.07303571
     atom    2 type  1   force =     0.04000903   -0.00326236   -0.07317537
     atom    3 type  1   force =    -0.00052146    0.00000709    0.00013965

     Total force =     0.117773     Total SCF correction =     0.000008

     Entering Dynamics:    iteration =     2
                           time      =   0.0097 pico-seconds


     Andersen thermostat:    3 collisions

ATOMIC_POSITIONS (bohr)
O        8.699158080  11.651716558  13.044339751
H        6.971014962  11.678093132  16.371229787
H       14.954223590  20.133458291   1.176253090


     kinetic energy (Ekin) =     0.01670808 Ry
     temperature           =   879.33141662 K 
     Ekin + Etot (const)   =   -31.56346036 Ry
     Message from routine dynamics:
     Total linear momentum <> 0

     Linear momentum :    0.0316409203    0.3676783473    0.1781879288

     Writing output data file pwscf.save

     first order wave-functions extrapolation
     Check: negative starting charge=   -0.344038
     first order charge density extrapolation
     Check: negative starting charge=   -0.345307

     negative rho (up, down):  5.266E-01 0.000E+00

     total cpu time spent up to now is        3.4 secs

     per-process dynamical memory:    20.4 Mb

     Self-consistent Calculation

     iteration #  1     ecut=    30.00 Ry     beta=0.70
     Davidson diagonalization with overlap
     ethr =  1.00E-06,  avg # of iterations = 12.0

     negative rho (up, down):  1.240E-01 0.000E+00

     total cpu time spent up to now is        3.6 secs

     total energy              =      26.06098766 Ry
     Harris-Foulkes estimate   =     -93.25743625 Ry
     estimated scf accuracy    <      15.63442638 Ry

     iteration #  2     ecut=    30.00 Ry     beta=0.70
     Davidson diagonalization with overlap
     ethr =  1.00E-02,  avg # of iterations =  6.0

     negative rho (up, down):  7.712E-02 0.000E+00

     total cpu time spent up to now is        3.6 secs

     total energy              =     -33.36025272 Ry
     Harris-Foulkes estimate   =     -40.15847080 Ry
     estimated scf accuracy    <      13.87063462 Ry

     iteration #  3     ecut=    30.00 Ry     beta=0.70
     Davidson diagonalization with overlap
     ethr =  1.00E-02,  avg # of iterations =  2.0

     negative rho (up, down):  6.902E-02 0.000E+00

     total cpu time spent up to now is        3.7 secs

     total energy              =     -32.81878156 Ry
     Harris-Foulkes estimate   =     -33.94373752 Ry
     estimated scf accuracy    <       6.26148392 Ry

     iteration #  4     ecut=    30.00 Ry     beta=0.70
     Davidson diagonalization with overlap
     ethr =  1.00E-02,  avg # of iterations =  1.0

     negative rho (up, down):  4.301E-02 0.000E+00

     total cpu time spent up to now is        3.7 secs

     total energy              =     -31.92472984 Ry
     Harris-Foulkes estimate   =     -33.41402487 Ry
     estimated scf accuracy    <       4.25288483 Ry

     iteration #  5     ecut=    30.00 Ry     beta=0.70
     Davidson diagonalization with overlap
     ethr =  1.00E-02,  avg # of iterations =  3.0

     negative rho (up, down):  3.109E-02 0.000E+00

     total cpu time spent up to now is        3.8 secs

     total energy              =     -31.70688860 Ry
     Harris-Foulkes estimate   =     -31.99720171 Ry
     estimated scf accuracy    <       1.81319808 Ry

     iteration #  6     ecut=    30.00 Ry     beta=0.70
     Davidson diagonalization with overlap
     ethr =  1.00E-02,  avg # of iterations =  1.0

     negative rho (up, down):  2.763E-02 0.000E+00

     total cpu time spent up to now is        3.8 secs

     total energy              =     -31.76333461 Ry
     Harris-Foulkes estimate   =     -31.84291173 Ry
     estimated scf accuracy    <       1.66072916 Ry

     iteration #  7     ecut=    30.00 Ry     beta=0.70
     Davidson diagonalization with overlap
     ethr =  1.00E-02,  avg # of iterations =  1.0

     negative rho (up, down):  1.075E-02 0.000E+00

     total cpu time spent up to now is        3.9 secs

     total energy              =     -31.61859655 Ry
     Harris-Foulkes estimate   =     -31.77231099 Ry
     estimated scf accuracy    <       0.52874603 Ry

     iteration #  8     ecut=    30.00 Ry     beta=0.70
     Davidson diagonalization with overlap
     ethr =  6.61E-03,  avg # of iterations =  1.0

     negative rho (up, down):  1.333E-02 0.000E+00

     total cpu time spent up to now is        3.9 secs

     total energy              =     -31.62585250 Ry
     Harris-Foulkes estimate   =     -31.68633254 Ry
     estimated scf accuracy    <       1.85892093 Ry

     iteration #  9     ecut=    30.00 Ry     beta=0.70
     Davidson diagonalization with overlap
     ethr =  6.61E-03,  avg # of iterations =  1.0

     negative rho (up, down):  1.341E-02 0.000E+00

     total cpu time spent up to now is        4.0 secs

     total energy              =     -31.66611432 Ry
     Harris-Foulkes estimate   =     -31.66661793 Ry
     estimated scf accuracy    <       0.22192924 Ry

     iteration # 10     ecut=    30.00 Ry     beta=0.70
     Davidson diagonalization with overlap
     ethr =  2.77E-03,  avg # of iterations =  1.0

     negative rho (up, down):  1.107E-05 0.000E+00

     total cpu time spent up to now is        4.1 secs

     total energy              =     -31.65677749 Ry
     Harris-Foulkes estimate   =     -31.66772849 Ry
     estimated scf accuracy    <       0.13369262 Ry

     iteration # 11     ecut=    30.00 Ry     beta=0.70
     Davidson diagonalization with overlap
     ethr =  1.67E-03,  avg # of iterations =  2.0

     negative rho (up, down):  2.374E-05 0.000E+00

     total cpu time spent up to now is        4.1 secs

     total energy              =     -31.65772817 Ry
     Harris-Foulkes estimate   =     -31.71129378 Ry
     estimated scf accuracy    <       1.76662097 Ry

     iteration # 12     ecut=    30.00 Ry     beta=0.70
     Davidson diagonalization with overlap
     ethr =  1.67E-03,  avg # of iterations =  1.0

     negative rho (up, down):  5.502E-06 0.000E+00

     total cpu time spent up to now is        4.2 secs

     total energy              =     -31.66901674 Ry
     Harris-Foulkes estimate   =     -31.67563373 Ry
     estimated scf accuracy    <       0.60241503 Ry

     iteration # 13     ecut=    30.00 Ry     beta=0.70
     Davidson diagonalization with overlap
     ethr =  1.67E-03,  avg # of iterations =  1.0

     negative rho (up, down):  8.102E-07 0.000E+00

     total cpu time spent up to now is        4.2 secs

     total energy              =     -31.67094996 Ry
     Harris-Foulkes estimate   =     -31.67086859 Ry
     estimated scf accuracy    <       0.21095398 Ry

     iteration # 14     ecut=    30.00 Ry     beta=0.70
     Davidson diagonalization with overlap
     ethr =  1.67E-03,  avg # of iterations =  1.0

     negative rho (up, down):  1.200E-07 0.000E+00

     total cpu time spent up to now is        4.3 secs

     total energy              =     -31.66944975 Ry
     Harris-Foulkes estimate   =     -31.67100835 Ry
     estimated scf accuracy    <       0.26395986 Ry

     iteration # 15     ecut=    30.00 Ry     beta=0.70
     Davidson diagonalization with overlap
     ethr =  1.67E-03,  avg # of iterations =  1.0

     negative rho (up, down):  3.969E-07 0.000E+00

     total cpu time spent up to now is        4.3 secs

     total energy              =     -31.66371431 Ry
     Harris-Foulkes estimate   =     -31.66955559 Ry
     estimated scf accuracy    <       0.19331673 Ry

     iteration # 16     ecut=    30.00 Ry     beta=0.70
     Davidson diagonalization with overlap
     ethr =  1.67E-03,  avg # of iterations =  1.0

     total cpu time spent up to now is        4.4 secs

     total energy              =     -31.66696952 Ry
     Harris-Foulkes estimate   =     -31.66710831 Ry
     estimated scf accuracy    <       0.00733706 Ry

     iteration # 17     ecut=    30.00 Ry     beta=0.70
     Davidson diagonalization with overlap
     ethr =  9.17E-05,  avg # of iterations =  7.0

     total cpu time spent up to now is        4.4 secs

     total energy              =     -31.66702017 Ry
     Harris-Foulkes estimate   =     -31.66702652 Ry
     estimated scf accuracy    <       0.00037314 Ry

     iteration # 18     ecut=    30.00 Ry     beta=0.70
     Davidson diagonalization with overlap
     ethr =  4.66E-06,  avg # of iterations = 15.0

     total cpu time spent up to now is        4.5 secs

     total energy              =     -31.66702204 Ry
     Harris-Foulkes estimate   =     -31.66702280 Ry
     estimated scf accuracy    <       0.00004156 Ry

     iteration # 19     ecut=    30.00 Ry     beta=0.70
     Davidson diagonalization with overlap
     ethr =  5.19E-07,  avg # of iterations =  1.0

     total cpu time spent up to now is        4.5 secs

     total energy              =     -31.66702231 Ry
     Harris-Foulkes estimate   =     -31.66702243 Ry
     estimated scf accuracy    <       0.00000136 Ry

     iteration # 20     ecut=    30.00 Ry     beta=0.70
     Davidson diagonalization with overlap
     ethr =  1.71E-08,  avg # of iterations =  1.0

     total cpu time spent up to now is        4.6 secs

     End of self-consistent calculation

          k = 0.0000 0.0000 0.0000 ( 22119 PWs)   bands (ev):

   -23.5907  -8.3571  -6.9091  -6.9082  -6.7746  -5.2282  -0.1297   0.7811

     the Fermi energy is    -6.7401 ev

!    total energy              =     -31.66702232 Ry
     Harris-Foulkes estimate   =     -31.66702234 Ry
     estimated scf accuracy    <          3.0E-09 Ry

     convergence has been achieved in  20 iterations

     Forces acting on atoms (Ry/au):

     atom    1 type  2   force =    -0.05916703    0.00046322    0.11724000
     atom    2 type  1   force =     0.06001911   -0.00070739   -0.11711018
     atom    3 type  1   force =    -0.00085208    0.00024417   -0.00012982

     Total force =     0.185915     Total SCF correction =     0.000071

     Entering Dynamics:    iteration =     3
                           time      =   0.0145 pico-seconds


     Andersen thermostat:    3 collisions

ATOMIC_POSITIONS (bohr)
O        8.643304075  11.658441640  13.122615781
H        7.750972004  11.756570548  15.388704470
H       15.059082457  19.948444916   0.918762096


     kinetic energy (Ekin) =     0.02622539 Ry
     temperature           =  1380.21913582 K 
     Ekin + Etot (const)   =   -31.64079692 Ry
     Message from routine dynamics:
     Total linear momentum <> 0

     Linear momentum :    0.3679424336   -0.4059240373    0.0655390169

     Writing output data file pwscf.save

     second order wave-functions extrapolation
     Check: negative starting charge=   -0.345307
     second order charge density extrapolation
     Check: negative starting charge=   -0.347978

     negative rho (up, down):  1.879E-01 0.000E+00

     total cpu time spent up to now is        5.1 secs

     per-process dynamical memory:    20.4 Mb

     Self-consistent Calculation

     iteration #  1     ecut=    30.00 Ry     beta=0.70
     Davidson diagonalization with overlap
     ethr =  1.00E-06,  avg # of iterations =  9.0

     negative rho (up, down):  3.515E-02 0.000E+00

     total cpu time spent up to now is        5.3 secs

     total energy              =      -9.78314839 Ry
     Harris-Foulkes estimate   =     -36.88011169 Ry
     estimated scf accuracy    <      10.19924462 Ry

     iteration #  2     ecut=    30.00 Ry     beta=0.70
     Davidson diagonalization with overlap
     ethr =  1.00E-02,  avg # of iterations =  4.0

     negative rho (up, down):  2.268E-02 0.000E+00

     total cpu time spent up to now is        5.4 secs

     total energy              =     -32.23454331 Ry
     Harris-Foulkes estimate   =     -37.78578402 Ry
     estimated scf accuracy    <      11.04074928 Ry

     iteration #  3     ecut=    30.00 Ry     beta=0.70
     Davidson diagonalization with overlap
     ethr =  1.00E-02,  avg # of iterations =  3.0

     negative rho (up, down):  1.784E-02 0.000E+00

     total cpu time spent up to now is        5.4 secs

     total energy              =     -32.84391431 Ry
     Harris-Foulkes estimate   =     -34.11118085 Ry
     estimated scf accuracy    <       4.52756671 Ry

     iteration #  4     ecut=    30.00 Ry     beta=0.70
     Davidson diagonalization with overlap
     ethr =  1.00E-02,  avg # of iterations =  1.0

     negative rho (up, down):  8.788E-03 0.000E+00

     total cpu time spent up to now is        5.5 secs

     total energy              =     -31.69723026 Ry
     Harris-Foulkes estimate   =     -32.88729533 Ry
     estimated scf accuracy    <       2.09173379 Ry

     iteration #  5     ecut=    30.00 Ry     beta=0.70
     Davidson diagonalization with overlap
     ethr =  1.00E-02,  avg # of iterations =  2.0

     negative rho (up, down):  8.365E-03 0.000E+00

     total cpu time spent up to now is        5.5 secs

     total energy              =     -32.32121515 Ry
     Harris-Foulkes estimate   =     -32.80763738 Ry
     estimated scf accuracy    <       2.83232783 Ry

     iteration #  6     ecut=    30.00 Ry     beta=0.70
     Davidson diagonalization with overlap
     ethr =  1.00E-02,  avg # of iterations =  1.0

     negative rho (up, down):  9.121E-03 0.000E+00

     total cpu time spent up to now is        5.5 secs

     total energy              =     -32.04925901 Ry
     Harris-Foulkes estimate   =     -32.33355098 Ry
     estimated scf accuracy    <       2.01559203 Ry

     iteration #  7     ecut=    30.00 Ry     beta=0.70
     Davidson diagonalization with overlap
     ethr =  1.00E-02,  avg # of iterations =  1.0

     negative rho (up, down):  5.303E-03 0.000E+00

     total cpu time spent up to now is        5.6 secs

     total energy              =     -31.78678198 Ry
     Harris-Foulkes estimate   =     -32.16378913 Ry
     estimated scf accuracy    <       1.72999967 Ry

     iteration #  8     ecut=    30.00 Ry     beta=0.70
     Davidson diagonalization with overlap
     ethr =  1.00E-02,  avg # of iterations =  1.0

     negative rho (up, down):  4.929E-03 0.000E+00

     total cpu time spent up to now is        5.6 secs

     total energy              =     -31.95546009 Ry
     Harris-Foulkes estimate   =     -32.03188652 Ry
     estimated scf accuracy    <       1.38567223 Ry

     iteration #  9     ecut=    30.00 Ry     beta=0.70
     Davidson diagonalization with overlap
     ethr =  1.00E-02,  avg # of iterations =  1.0

     negative rho (up, down):  2.500E-03 0.000E+00

     total cpu time spent up to now is        5.7 secs

     total energy              =     -31.83785757 Ry
     Harris-Foulkes estimate   =     -31.95699195 Ry
     estimated scf accuracy    <       1.14391172 Ry

     iteration # 10     ecut=    30.00 Ry     beta=0.70
     Davidson diagonalization with overlap
     ethr =  1.00E-02,  avg # of iterations =  1.0

     negative rho (up, down):  1.540E-05 0.000E+00

     total cpu time spent up to now is        5.7 secs

     total energy              =     -31.88774237 Ry
     Harris-Foulkes estimate   =     -31.92743595 Ry
     estimated scf accuracy    <       1.59633353 Ry

     iteration # 11     ecut=    30.00 Ry     beta=0.70
     Davidson diagonalization with overlap
     ethr =  1.00E-02,  avg # of iterations =  1.0

     negative rho (up, down):  5.033E-06 0.000E+00

     total cpu time spent up to now is        5.8 secs

     total energy              =     -31.97629812 Ry
     Harris-Foulkes estimate   =     -31.89750555 Ry
     estimated scf accuracy    <       0.54164748 Ry

     iteration # 12     ecut=    30.00 Ry     beta=0.70
     Davidson diagonalization with overlap
     ethr =  6.77E-03,  avg # of iterations =  1.0

     negative rho (up, down):  3.949E-07 0.000E+00

     total cpu time spent up to now is        5.8 secs

     total energy              =     -32.14257945 Ry
     Harris-Foulkes estimate   =     -32.01588614 Ry
     estimated scf accuracy    <       1.35643325 Ry

     iteration # 13     ecut=    30.00 Ry     beta=0.70
     Davidson diagonalization with overlap
     ethr =  6.77E-03,  avg # of iterations =  1.0

     negative rho (up, down):  1.251E-06 0.000E+00

     total cpu time spent up to now is        5.9 secs

     total energy              =     -32.02281801 Ry
     Harris-Foulkes estimate   =     -32.14490769 Ry
     estimated scf accuracy    <       1.60587462 Ry

     iteration # 14     ecut=    30.00 Ry     beta=0.70
     Davidson diagonalization with overlap
     ethr =  6.77E-03,  avg # of iterations =  1.0

     negative rho (up, down):  3.168E-06 0.000E+00

     total cpu time spent up to now is        5.9 secs

     total energy              =     -31.87806468 Ry
     Harris-Foulkes estimate   =     -32.02402866 Ry
     estimated scf accuracy    <       1.39591489 Ry

     iteration # 15     ecut=    30.00 Ry     beta=0.70
     Davidson diagonalization with overlap
     ethr =  6.77E-03,  avg # of iterations =  1.0

     negative rho (up, down):  2.236E-07 0.000E+00

     total cpu time spent up to now is        6.0 secs

     total energy              =     -31.89114118 Ry
     Harris-Foulkes estimate   =     -31.89089380 Ry
     estimated scf accuracy    <       0.00047744 Ry

     iteration # 16     ecut=    30.00 Ry     beta=0.70
     Davidson diagonalization with overlap
     ethr =  5.97E-06,  avg # of iterations = 16.0

     negative rho (up, down):  1.171E-08 0.000E+00

     total cpu time spent up to now is        6.1 secs

     total energy              =     -31.75039040 Ry
     Harris-Foulkes estimate   =     -31.93363994 Ry
     estimated scf accuracy    <       1.55771813 Ry

     iteration # 17     ecut=    30.00 Ry     beta=0.70
     Davidson diagonalization with overlap
     ethr =  5.97E-06,  avg # of iterations = 12.0

     negative rho (up, down):  4.461E-08 0.000E+00

     total cpu time spent up to now is        6.1 secs

     total energy              =     -32.01381241 Ry
     Harris-Foulkes estimate   =     -31.97690267 Ry
     estimated scf accuracy    <       1.04961835 Ry

     iteration # 18     ecut=    30.00 Ry     beta=0.70
     Davidson diagonalization with overlap
     ethr =  5.97E-06,  avg # of iterations =  4.0

     negative rho (up, down):  1.187E-07 0.000E+00

     total cpu time spent up to now is        6.2 secs

     total energy              =     -32.06202504 Ry
     Harris-Foulkes estimate   =     -32.01388306 Ry
     estimated scf accuracy    <       1.10659877 Ry

     iteration # 19     ecut=    30.00 Ry     beta=0.70
     Davidson diagonalization with overlap
     ethr =  5.97E-06,  avg # of iterations =  4.0

     negative rho (up, down):  5.155E-08 0.000E+00

     total cpu time spent up to now is        6.3 secs

     total energy              =     -31.99287374 Ry
     Harris-Foulkes estimate   =     -32.06214479 Ry
     estimated scf accuracy    <       1.18122408 Ry

     iteration # 20     ecut=    30.00 Ry     beta=0.70
     Davidson diagonalization with overlap
     ethr =  5.97E-06,  avg # of iterations =  5.0

     negative rho (up, down):  2.516E-07 0.000E+00

     total cpu time spent up to now is        6.3 secs

     total energy              =     -31.70556791 Ry
     Harris-Foulkes estimate   =     -31.99308842 Ry
     estimated scf accuracy    <       1.07657459 Ry

     iteration # 21     ecut=    30.00 Ry     beta=0.70
     Davidson diagonalization with overlap
     ethr =  5.97E-06,  avg # of iterations = 17.0

     negative rho (up, down):  8.899E-06 0.000E+00

     total cpu time spent up to now is        6.4 secs

     total energy              =     -31.52573358 Ry
     Harris-Foulkes estimate   =     -32.09757670 Ry
     estimated scf accuracy    <       1.51268035 Ry

     iteration # 22     ecut=    30.00 Ry     beta=0.70
     Davidson diagonalization with overlap
     ethr =  5.97E-06,  avg # of iterations = 16.0

     negative rho (up, down):  3.246E-06 0.000E+00

     total cpu time spent up to now is        6.5 secs

     total energy              =     -31.48962408 Ry
     Harris-Foulkes estimate   =     -32.25517984 Ry
     estimated scf accuracy    <       1.46951786 Ry

     iteration # 23     ecut=    30.00 Ry     beta=0.70
     Davidson diagonalization with overlap
     ethr =  5.97E-06,  avg # of iterations = 14.0

     negative rho (up, down):  3.360E-06 0.000E+00

     total cpu time spent up to now is        6.6 secs

     total energy              =     -31.90709334 Ry
     Harris-Foulkes estimate   =     -32.46169922 Ry
     estimated scf accuracy    <       2.14907118 Ry

     iteration # 24     ecut=    30.00 Ry     beta=0.70
     Davidson diagonalization with overlap
     ethr =  5.97E-06,  avg # of iterations = 19.0

     negative rho (up, down):  1.328E-06 0.000E+00

     total cpu time spent up to now is        6.7 secs

     total energy              =     -31.79000567 Ry
     Harris-Foulkes estimate   =     -31.92276937 Ry
     estimated scf accuracy    <       1.61341094 Ry

     iteration # 25     ecut=    30.00 Ry     beta=0.70
     Davidson diagonalization with overlap
     ethr =  5.97E-06,  avg # of iterations =  5.0

     negative rho (up, down):  1.790E-06 0.000E+00

     total cpu time spent up to now is        6.8 secs

     total energy              =     -31.88394812 Ry
     Harris-Foulkes estimate   =     -31.93941912 Ry
     estimated scf accuracy    <       0.99281054 Ry

     iteration # 26     ecut=    30.00 Ry     beta=0.70
     Davidson diagonalization with overlap
     ethr =  5.97E-06,  avg # of iterations =  4.0

     negative rho (up, down):  1.372E-06 0.000E+00

     total cpu time spent up to now is        6.8 secs

     total energy              =     -31.89401269 Ry
     Harris-Foulkes estimate   =     -31.89231881 Ry
     estimated scf accuracy    <       0.10869868 Ry

     iteration # 27     ecut=    30.00 Ry     beta=0.70
     Davidson diagonalization with overlap
     ethr =  5.97E-06,  avg # of iterations =  1.0

     negative rho (up, down):  3.689E-06 0.000E+00

     total cpu time spent up to now is        6.9 secs

     total energy              =     -31.91328236 Ry
     Harris-Foulkes estimate   =     -31.89443006 Ry
     estimated scf accuracy    <       0.24222837 Ry

     iteration # 28     ecut=    30.00 Ry     beta=0.70
     Davidson diagonalization with overlap
     ethr =  5.97E-06,  avg # of iterations =  4.0

     total cpu time spent up to now is        6.9 secs

     total energy              =     -31.82139208 Ry
     Harris-Foulkes estimate   =     -31.92532180 Ry
     estimated scf accuracy    <       0.95902184 Ry

     iteration # 29     ecut=    30.00 Ry     beta=0.70
     Davidson diagonalization with overlap
     ethr =  5.97E-06,  avg # of iterations =  5.0

     negative rho (up, down):  3.973E-08 0.000E+00

     total cpu time spent up to now is        7.0 secs

     total energy              =     -31.85313191 Ry
     Harris-Foulkes estimate   =     -31.94404587 Ry
     estimated scf accuracy    <       1.40635244 Ry

     iteration # 30     ecut=    30.00 Ry     beta=0.70
     Davidson diagonalization with overlap
     ethr =  5.97E-06,  avg # of iterations =  5.0

     total cpu time spent up to now is        7.1 secs

     total energy              =     -31.89381195 Ry
     Harris-Foulkes estimate   =     -31.89748681 Ry
     estimated scf accuracy    <       0.40595376 Ry

     iteration # 31     ecut=    30.00 Ry     beta=0.70
     Davidson diagonalization with overlap
     ethr =  5.97E-06,  avg # of iterations =  1.0

     total cpu time spent up to now is        7.1 secs

     total energy              =     -31.87988304 Ry
     Harris-Foulkes estimate   =     -31.89423969 Ry
     estimated scf accuracy    <       0.23074957 Ry

     iteration # 32     ecut=    30.00 Ry     beta=0.70
     Davidson diagonalization with overlap
     ethr =  5.97E-06,  avg # of iterations =  3.0

     total cpu time spent up to now is        7.2 secs

     total energy              =     -31.89517188 Ry
     Harris-Foulkes estimate   =     -31.89662895 Ry
     estimated scf accuracy    <       0.46925437 Ry

     iteration # 33     ecut=    30.00 Ry     beta=0.70
     Davidson diagonalization with overlap
     ethr =  5.97E-06,  avg # of iterations =  1.0

     total cpu time spent up to now is        7.2 secs

     total energy              =     -31.89039191 Ry
     Harris-Foulkes estimate   =     -31.89525887 Ry
     estimated scf accuracy    <       0.36209117 Ry

     iteration # 34     ecut=    30.00 Ry     beta=0.70
     Davidson diagonalization with overlap
     ethr =  5.97E-06,  avg # of iterations =  1.0

     total cpu time spent up to now is        7.3 secs

     total energy              =     -31.89274241 Ry
     Harris-Foulkes estimate   =     -31.89170954 Ry
     estimated scf accuracy    <       0.07294095 Ry

     iteration # 35     ecut=    30.00 Ry     beta=0.70
     Davidson diagonalization with overlap
     ethr =  5.97E-06,  avg # of iterations =  1.0

     total cpu time spent up to now is        7.3 secs

     total energy              =     -31.88743020 Ry
     Harris-Foulkes estimate   =     -31.89303640 Ry
     estimated scf accuracy    <       0.18213904 Ry

     iteration # 36     ecut=    30.00 Ry     beta=0.70
     Davidson diagonalization with overlap
     ethr =  5.97E-06,  avg # of iterations =  1.0

     total cpu time spent up to now is        7.4 secs

     total energy              =     -31.89061955 Ry
     Harris-Foulkes estimate   =     -31.89097116 Ry
     estimated scf accuracy    <       0.01186887 Ry

     iteration # 37     ecut=    30.00 Ry     beta=0.70
     Davidson diagonalization with overlap
     ethr =  5.97E-06,  avg # of iterations =  1.0

     total cpu time spent up to now is        7.4 secs

     total energy              =     -31.89082075 Ry
     Harris-Foulkes estimate   =     -31.89082182 Ry
     estimated scf accuracy    <       0.00031765 Ry

     iteration # 38     ecut=    30.00 Ry     beta=0.70
     Davidson diagonalization with overlap
     ethr =  3.97E-06,  avg # of iterations =  1.0

     total cpu time spent up to now is        7.5 secs

     total energy              =     -31.89081242 Ry
     Harris-Foulkes estimate   =     -31.89082085 Ry
     estimated scf accuracy    <       0.00024421 Ry

     iteration # 39     ecut=    30.00 Ry     beta=0.70
     Davidson diagonalization with overlap
     ethr =  3.05E-06,  avg # of iterations =  1.0

     total cpu time spent up to now is        7.5 secs

     total energy              =     -31.89081793 Ry
     Harris-Foulkes estimate   =     -31.89081809 Ry
     estimated scf accuracy    <       0.00003248 Ry

     iteration # 40     ecut=    30.00 Ry     beta=0.70
     Davidson diagonalization with overlap
     ethr =  4.06E-07,  avg # of iterations =  1.0

     total cpu time spent up to now is        7.6 secs

     total energy              =     -31.89081800 Ry
     Harris-Foulkes estimate   =     -31.89081795 Ry
     estimated scf accuracy    <       0.00001886 Ry

     iteration # 41     ecut=    30.00 Ry     beta=0.70
     Davidson diagonalization with overlap
     ethr =  2.36E-07,  avg # of iterations =  1.0

     total cpu time spent up to now is        7.6 secs

     total energy              =     -31.89081796 Ry
     Harris-Foulkes estimate   =     -31.89081801 Ry
     estimated scf accuracy    <       0.00001365 Ry

     iteration # 42     ecut=    30.00 Ry     beta=0.70
     Davidson diagonalization with overlap
     ethr =  1.71E-07,  avg # of iterations =  1.0

     total cpu time spent up to now is        7.7 secs

     total energy              =     -31.89081793 Ry
     Harris-Foulkes estimate   =     -31.89081798 Ry
     estimated scf accuracy    <       0.00000592 Ry

     iteration # 43     ecut=    30.00 Ry     beta=0.70
     Davidson diagonalization with overlap
     ethr =  7.40E-08,  avg # of iterations =  1.0

     total cpu time spent up to now is        7.7 secs

     total energy              =     -31.89081796 Ry
     Harris-Foulkes estimate   =     -31.89081795 Ry
     estimated scf accuracy    <       0.00000148 Ry

     iteration # 44     ecut=    30.00 Ry     beta=0.70
     Davidson diagonalization with overlap
     ethr =  1.84E-08,  avg # of iterations =  1.0

     total cpu time spent up to now is        7.8 secs

     total energy              =     -31.89081795 Ry
     Harris-Foulkes estimate   =     -31.89081796 Ry
     estimated scf accuracy    <       0.00000157 Ry

     iteration # 45     ecut=    30.00 Ry     beta=0.70
     Davidson diagonalization with overlap
     ethr =  1.84E-08,  avg # of iterations =  1.0

     total cpu time spent up to now is        7.8 secs

     total energy              =     -31.89081797 Ry
     Harris-Foulkes estimate   =     -31.89081797 Ry
     estimated scf accuracy    <       0.00000001 Ry

     iteration # 46     ecut=    30.00 Ry     beta=0.70
     Davidson diagonalization with overlap
     ethr =  1.51E-10,  avg # of iterations =  1.0

     total cpu time spent up to now is        7.9 secs

     End of self-consistent calculation

          k = 0.0000 0.0000 0.0000 ( 22119 PWs)   bands (ev):

   -24.0206  -9.9033  -6.9627  -6.9624  -6.8267  -1.6878   0.0603   0.8230

     the Fermi energy is    -6.7934 ev

!    total energy              =     -31.89081796 Ry
     Harris-Foulkes estimate   =     -31.89081797 Ry
     estimated scf accuracy    <          4.5E-10 Ry

     convergence has been achieved in  46 iterations

     Forces acting on atoms (Ry/au):

     atom    1 type  2   force =    -0.06986633    0.00766279    0.18008554
     atom    2 type  1   force =     0.07022373   -0.00777131   -0.17958148
     atom    3 type  1   force =    -0.00035740    0.00010852   -0.00050406

     Total force =     0.273153     Total SCF correction =     0.000023

     Entering Dynamics:    iteration =     4
                           time      =   0.0194 pico-seconds


     Andersen thermostat:    3 collisions

ATOMIC_POSITIONS (bohr)
O        8.562914993  11.644341810  13.268730175
H        8.407491583  11.434686999  13.233404275
H       15.676053284  20.493692114   0.759378821


     kinetic energy (Ekin) =     0.11316464 Ry
     temperature           =  5955.75385514 K 
     Ekin + Etot (const)   =   -31.77765333 Ry
     Message from routine dynamics:
     Total linear momentum <> 0

     Linear momentum :    0.2868737536    0.0527050046   -0.2617939527

     Writing output data file pwscf.save

     second order wave-functions extrapolation
     Check: negative starting charge=   -0.347978
     second order charge density extrapolation
     Check: negative starting charge=   -0.353695

     negative rho (up, down):  6.355E-01 0.000E+00

     total cpu time spent up to now is        8.3 secs

     per-process dynamical memory:    20.4 Mb

     Self-consistent Calculation

     iteration #  1     ecut=    30.00 Ry     beta=0.70
     Davidson diagonalization with overlap
     ethr =  1.00E-06,  avg # of iterations = 13.0

     negative rho (up, down):  1.196E-01 0.000E+00

     total cpu time spent up to now is        8.5 secs

     total energy              =       5.11515693 Ry
     Harris-Foulkes estimate   =      -1.29434753 Ry
     estimated scf accuracy    <       2.30906523 Ry

     iteration #  2     ecut=    30.00 Ry     beta=0.70
     Davidson diagonalization with overlap
     ethr =  1.00E-02,  avg # of iterations =  8.0

     negative rho (up, down):  7.995E-02 0.000E+00

     total cpu time spent up to now is        8.5 secs

     total energy              =       1.58248685 Ry
     Harris-Foulkes estimate   =      -0.48382792 Ry
     estimated scf accuracy    <       3.59571642 Ry

     iteration #  3     ecut=    30.00 Ry     beta=0.70
     Davidson diagonalization with overlap
     ethr =  1.00E-02,  avg # of iterations =  2.0

     negative rho (up, down):  5.913E-02 0.000E+00

     total cpu time spent up to now is        8.6 secs

     total energy              =       0.88791039 Ry
     Harris-Foulkes estimate   =       0.43929723 Ry
     estimated scf accuracy    <       1.94585746 Ry

     iteration #  4     ecut=    30.00 Ry     beta=0.70
     Davidson diagonalization with overlap
     ethr =  1.00E-02,  avg # of iterations =  1.0

     negative rho (up, down):  3.085E-02 0.000E+00

     total cpu time spent up to now is        8.6 secs

     total energy              =       1.19251879 Ry
     Harris-Foulkes estimate   =       0.86172708 Ry
     estimated scf accuracy    <       1.10704065 Ry

     iteration #  5     ecut=    30.00 Ry     beta=0.70
     Davidson diagonalization with overlap
     ethr =  1.00E-02,  avg # of iterations =  1.0

     negative rho (up, down):  2.779E-02 0.000E+00

     total cpu time spent up to now is        8.7 secs

     total energy              =       0.59168733 Ry
     Harris-Foulkes estimate   =       0.49245977 Ry
     estimated scf accuracy    <       2.30601826 Ry

     iteration #  6     ecut=    30.00 Ry     beta=0.70
     Davidson diagonalization with overlap
     ethr =  1.00E-02,  avg # of iterations =  1.0

     negative rho (up, down):  2.316E-02 0.000E+00

     total cpu time spent up to now is        8.7 secs

     total energy              =       0.69100183 Ry
     Harris-Foulkes estimate   =       0.59042394 Ry
     estimated scf accuracy    <       2.13987792 Ry

     iteration #  7     ecut=    30.00 Ry     beta=0.70
     Davidson diagonalization with overlap
     ethr =  1.00E-02,  avg # of iterations =  1.0

     negative rho (up, down):  1.099E-02 0.000E+00

     total cpu time spent up to now is        8.8 secs

     total energy              =       1.11017504 Ry
     Harris-Foulkes estimate   =       0.69010027 Ry
     estimated scf accuracy    <       1.97494302 Ry

     iteration #  8     ecut=    30.00 Ry     beta=0.70
     Davidson diagonalization with overlap
     ethr =  1.00E-02,  avg # of iterations =  1.0

     negative rho (up, down):  1.530E-03 0.000E+00

     total cpu time spent up to now is        8.8 secs

     total energy              =       0.81614081 Ry
     Harris-Foulkes estimate   =       0.79636086 Ry
     estimated scf accuracy    <       0.96390752 Ry

     iteration #  9     ecut=    30.00 Ry     beta=0.70
     Davidson diagonalization with overlap
     ethr =  1.00E-02,  avg # of iterations =  1.0

     negative rho (up, down):  6.264E-07 0.000E+00

     total cpu time spent up to now is        8.9 secs

     total energy              =       0.90570810 Ry
     Harris-Foulkes estimate   =       0.81512532 Ry
     estimated scf accuracy    <       0.89175926 Ry

     iteration # 10     ecut=    30.00 Ry     beta=0.70
     Davidson diagonalization with overlap
     ethr =  1.00E-02,  avg # of iterations =  1.0

     negative rho (up, down):  2.865E-06 0.000E+00

     total cpu time spent up to now is        8.9 secs

     total energy              =       0.91981485 Ry
     Harris-Foulkes estimate   =       0.89992158 Ry
     estimated scf accuracy    <       0.19812435 Ry

     iteration # 11     ecut=    30.00 Ry     beta=0.70
     Davidson diagonalization with overlap
     ethr =  2.48E-03,  avg # of iterations =  1.0

     negative rho (up, down):  8.646E-07 0.000E+00

     total cpu time spent up to now is        9.0 secs

     total energy              =       0.83017379 Ry
     Harris-Foulkes estimate   =       0.87859902 Ry
     estimated scf accuracy    <       1.79455068 Ry

     iteration # 12     ecut=    30.00 Ry     beta=0.70
     Davidson diagonalization with overlap
     ethr =  2.48E-03,  avg # of iterations =  1.0

     negative rho (up, down):  8.598E-07 0.000E+00

     total cpu time spent up to now is        9.0 secs

     total energy              =       0.81318877 Ry
     Harris-Foulkes estimate   =       0.82826335 Ry
     estimated scf accuracy    <       1.76652428 Ry

     iteration # 13     ecut=    30.00 Ry     beta=0.70
     Davidson diagonalization with overlap
     ethr =  2.48E-03,  avg # of iterations =  1.0

     total cpu time spent up to now is        9.1 secs

     total energy              =       0.82310952 Ry
     Harris-Foulkes estimate   =       0.81327577 Ry
     estimated scf accuracy    <       1.74651651 Ry

     iteration # 14     ecut=    30.00 Ry     beta=0.70
     Davidson diagonalization with overlap
     ethr =  2.48E-03,  avg # of iterations =  1.0

     total cpu time spent up to now is        9.2 secs

     total energy              =       0.83170967 Ry
     Harris-Foulkes estimate   =       0.82312779 Ry
     estimated scf accuracy    <       1.75411446 Ry

     iteration # 15     ecut=    30.00 Ry     beta=0.70
     Davidson diagonalization with overlap
     ethr =  2.48E-03,  avg # of iterations =  1.0

     total cpu time spent up to now is        9.2 secs

     total energy              =       0.83254949 Ry
     Harris-Foulkes estimate   =       0.83175430 Ry
     estimated scf accuracy    <       1.78730198 Ry

     iteration # 16     ecut=    30.00 Ry     beta=0.70
     Davidson diagonalization with overlap
     ethr =  2.48E-03,  avg # of iterations =  1.0

     total cpu time spent up to now is        9.3 secs

     total energy              =       0.83332161 Ry
     Harris-Foulkes estimate   =       0.83254986 Ry
     estimated scf accuracy    <       1.79258698 Ry

     iteration # 17     ecut=    30.00 Ry     beta=0.70
     Davidson diagonalization with overlap
     ethr =  2.48E-03,  avg # of iterations =  1.0

     negative rho (up, down):  5.275E-08 0.000E+00

     total cpu time spent up to now is        9.3 secs

     total energy              =       0.82567737 Ry
     Harris-Foulkes estimate   =       0.83332223 Ry
     estimated scf accuracy    <       1.79788659 Ry

     iteration # 18     ecut=    30.00 Ry     beta=0.70
     Davidson diagonalization with overlap
     ethr =  2.48E-03,  avg # of iterations =  1.0

     negative rho (up, down):  2.464E-08 0.000E+00

     total cpu time spent up to now is        9.4 secs

     total energy              =       0.79471257 Ry
     Harris-Foulkes estimate   =       0.82573445 Ry
     estimated scf accuracy    <       1.75893694 Ry

     iteration # 19     ecut=    30.00 Ry     beta=0.70
     Davidson diagonalization with overlap
     ethr =  2.48E-03,  avg # of iterations =  1.0

     negative rho (up, down):  4.047E-04 0.000E+00

     total cpu time spent up to now is        9.4 secs

     total energy              =       1.03125776 Ry
     Harris-Foulkes estimate   =       0.79492128 Ry
     estimated scf accuracy    <       1.76937522 Ry

     iteration # 20     ecut=    30.00 Ry     beta=0.70
     Davidson diagonalization with overlap
     ethr =  2.48E-03,  avg # of iterations =  1.0

     negative rho (up, down):  7.789E-07 0.000E+00

     total cpu time spent up to now is        9.5 secs

     total energy              =       0.83566334 Ry
     Harris-Foulkes estimate   =       0.83455305 Ry
     estimated scf accuracy    <       0.85427381 Ry

     iteration # 21     ecut=    30.00 Ry     beta=0.70
     Davidson diagonalization with overlap
     ethr =  2.48E-03,  avg # of iterations =  1.0

     total cpu time spent up to now is        9.5 secs

     total energy              =       0.88557339 Ry
     Harris-Foulkes estimate   =       0.83555937 Ry
     estimated scf accuracy    <       0.84976905 Ry

     iteration # 22     ecut=    30.00 Ry     beta=0.70
     Davidson diagonalization with overlap
     ethr =  2.48E-03,  avg # of iterations =  1.0

     total cpu time spent up to now is        9.6 secs

     total energy              =       0.92946412 Ry
     Harris-Foulkes estimate   =       0.88505683 Ry
     estimated scf accuracy    <       0.69564604 Ry

     iteration # 23     ecut=    30.00 Ry     beta=0.70
     Davidson diagonalization with overlap
     ethr =  2.48E-03,  avg # of iterations =  1.0

     total cpu time spent up to now is        9.6 secs

     total energy              =       0.91700895 Ry
     Harris-Foulkes estimate   =       0.89399243 Ry
     estimated scf accuracy    <       0.77931276 Ry

     iteration # 24     ecut=    30.00 Ry     beta=0.70
     Davidson diagonalization with overlap
     ethr =  2.48E-03,  avg # of iterations =  1.0

     total cpu time spent up to now is        9.7 secs

     total energy              =       0.89722202 Ry
     Harris-Foulkes estimate   =       0.90208300 Ry
     estimated scf accuracy    <       0.05796212 Ry

     iteration # 25     ecut=    30.00 Ry     beta=0.70
     Davidson diagonalization with overlap
     ethr =  7.25E-04,  avg # of iterations =  1.0

     total cpu time spent up to now is        9.7 secs

     total energy              =       0.86859518 Ry
     Harris-Foulkes estimate   =       0.89165331 Ry
     estimated scf accuracy    <       0.55598274 Ry

     iteration # 26     ecut=    30.00 Ry     beta=0.70
     Davidson diagonalization with overlap
     ethr =  7.25E-04,  avg # of iterations =  1.0

     total cpu time spent up to now is        9.8 secs

     total energy              =       0.90073184 Ry
     Harris-Foulkes estimate   =       0.86557275 Ry
     estimated scf accuracy    <       0.80236549 Ry

     iteration # 27     ecut=    30.00 Ry     beta=0.70
     Davidson diagonalization with overlap
     ethr =  7.25E-04,  avg # of iterations =  1.0

     total cpu time spent up to now is        9.8 secs

     total energy              =       0.90132281 Ry
     Harris-Foulkes estimate   =       0.89777480 Ry
     estimated scf accuracy    <       0.31704241 Ry

     iteration # 28     ecut=    30.00 Ry     beta=0.70
     Davidson diagonalization with overlap
     ethr =  7.25E-04,  avg # of iterations =  1.0

     total cpu time spent up to now is        9.9 secs

     total energy              =       0.89832215 Ry
     Harris-Foulkes estimate   =       0.90078462 Ry
     estimated scf accuracy    <       0.14651303 Ry

     iteration # 29     ecut=    30.00 Ry     beta=0.70
     Davidson diagonalization with overlap
     ethr =  7.25E-04,  avg # of iterations =  1.0

     total cpu time spent up to now is        9.9 secs

     total energy              =       0.90107851 Ry
     Harris-Foulkes estimate   =       0.89772866 Ry
     estimated scf accuracy    <       0.31880633 Ry

     iteration # 30     ecut=    30.00 Ry     beta=0.70
     Davidson diagonalization with overlap
     ethr =  7.25E-04,  avg # of iterations =  1.0

     total cpu time spent up to now is       10.0 secs

     total energy              =       0.90109466 Ry
     Harris-Foulkes estimate   =       0.90061038 Ry
     estimated scf accuracy    <       0.15755259 Ry

     iteration # 31     ecut=    30.00 Ry     beta=0.70
     Davidson diagonalization with overlap
     ethr =  7.25E-04,  avg # of iterations =  1.0

     total cpu time spent up to now is       10.0 secs

     total energy              =       0.90131783 Ry
     Harris-Foulkes estimate   =       0.90107127 Ry
     estimated scf accuracy    <       0.12793540 Ry

     iteration # 32     ecut=    30.00 Ry     beta=0.70
     Davidson diagonalization with overlap
     ethr =  7.25E-04,  avg # of iterations =  1.0

     total cpu time spent up to now is       10.1 secs

     total energy              =       0.90445564 Ry
     Harris-Foulkes estimate   =       0.90131012 Ry
     estimated scf accuracy    <       0.11211293 Ry

     iteration # 33     ecut=    30.00 Ry     beta=0.70
     Davidson diagonalization with overlap
     ethr =  7.25E-04,  avg # of iterations =  1.0

     total cpu time spent up to now is       10.1 secs

     total energy              =       0.90282286 Ry
     Harris-Foulkes estimate   =       0.90284221 Ry
     estimated scf accuracy    <       0.00059399 Ry

     iteration # 34     ecut=    30.00 Ry     beta=0.70
     Davidson diagonalization with overlap
     ethr =  7.42E-06,  avg # of iterations =  7.0

     total cpu time spent up to now is       10.2 secs

     total energy              =       0.90288379 Ry
     Harris-Foulkes estimate   =       0.90280934 Ry
     estimated scf accuracy    <       0.00338740 Ry

     iteration # 35     ecut=    30.00 Ry     beta=0.70
     Davidson diagonalization with overlap
     ethr =  7.42E-06,  avg # of iterations =  1.0

     total cpu time spent up to now is       10.2 secs

     total energy              =       0.90285280 Ry
     Harris-Foulkes estimate   =       0.90285019 Ry
     estimated scf accuracy    <       0.00002416 Ry

     iteration # 36     ecut=    30.00 Ry     beta=0.70
     Davidson diagonalization with overlap
     ethr =  3.02E-07,  avg # of iterations =  1.0

     total cpu time spent up to now is       10.3 secs

     total energy              =       0.90285474 Ry
     Harris-Foulkes estimate   =       0.90284573 Ry
     estimated scf accuracy    <       0.00037627 Ry

     iteration # 37     ecut=    30.00 Ry     beta=0.70
     Davidson diagonalization with overlap
     ethr =  3.02E-07,  avg # of iterations =  1.0

     total cpu time spent up to now is       10.3 secs

     total energy              =       0.90284913 Ry
     Harris-Foulkes estimate   =       0.90284864 Ry
     estimated scf accuracy    <       0.00001002 Ry

     iteration # 38     ecut=    30.00 Ry     beta=0.70
     Davidson diagonalization with overlap
     ethr =  1.25E-07,  avg # of iterations =  1.0

     total cpu time spent up to now is       10.4 secs

     total energy              =       0.90284865 Ry
     Harris-Foulkes estimate   =       0.90284860 Ry
     estimated scf accuracy    <       0.00001200 Ry

     iteration # 39     ecut=    30.00 Ry     beta=0.70
     Davidson diagonalization with overlap
     ethr =  1.25E-07,  avg # of iterations =  1.0

     total cpu time spent up to now is       10.4 secs

     total energy              =       0.90284839 Ry
     Harris-Foulkes estimate   =       0.90284848 Ry
     estimated scf accuracy    <       0.00000007 Ry

     iteration # 40     ecut=    30.00 Ry     beta=0.70
     Davidson diagonalization with overlap
     ethr =  8.73E-10,  avg # of iterations =  1.0

     total cpu time spent up to now is       10.5 secs

     total energy              =       0.90284841 Ry
     Harris-Foulkes estimate   =       0.90284838 Ry
     estimated scf accuracy    <       0.00000123 Ry

     iteration # 41     ecut=    30.00 Ry     beta=0.70
     Davidson diagonalization with overlap
     ethr =  8.73E-10,  avg # of iterations =  1.0

     total cpu time spent up to now is       10.5 secs

     total energy              =       0.90284840 Ry
     Harris-Foulkes estimate   =       0.90284840 Ry
     estimated scf accuracy    <       0.00000002 Ry

     iteration # 42     ecut=    30.00 Ry     beta=0.70
     Davidson diagonalization with overlap
     ethr =  2.00E-10,  avg # of iterations =  1.0

     total cpu time spent up to now is       10.6 secs

     End of self-consistent calculation

          k = 0.0000 0.0000 0.0000 ( 22119 PWs)   bands (ev):

   -28.2846  -9.2313  -8.1706  -8.1699  -7.9875  -0.2738   0.6390   0.6745

     the Fermi energy is    -7.9852 ev

!    total energy              =       0.90284840 Ry
     Harris-Foulkes estimate   =       0.90284840 Ry
     estimated scf accuracy    <          5.6E-12 Ry

     convergence has been achieved in  42 iterations

     Forces acting on atoms (Ry/au):

     atom    1 type  2   force =   102.31691538  138.01941072   23.25405264
     atom    2 type  1   force =  -102.31698149 -138.01864355  -23.25476423
     atom    3 type  1   force =     0.00006611   -0.00076717    0.00071159

     Total force =   245.188814     Total SCF correction =     0.000000

     Entering Dynamics:    iteration =     5
                           time      =   0.0242 pico-seconds


     Andersen thermostat:    3 collisions

ATOMIC_POSITIONS (bohr)
O       78.723242883 106.288585171  29.248608869
H     ****************************-239.731679352
H       16.134383197  20.321136157   0.577869267


     kinetic energy (Ekin) = 43409.15596963 Ry
     temperature           = ************** K 
     Ekin + Etot (const)   = 43410.05881802 Ry
     Message from routine dynamics:
     Total linear momentum <> 0

     Linear momentum :   -0.1210900472    0.3090709673    0.1362435771

     Writing output data file pwscf.save

     second order wave-functions extrapolation
     Check: negative starting charge=   -0.353695
     second order charge density extrapolation
     Check: negative starting charge=   -0.352506

     negative rho (up, down):  1.186E+03 0.000E+00

     total cpu time spent up to now is       11.0 secs

     per-process dynamical memory:    20.4 Mb

     Self-consistent Calculation

     iteration #  1     ecut=    30.00 Ry     beta=0.70
     Davidson diagonalization with overlap
     c_bands:  5 eigenvalues not converged
     ethr =  1.00E-06,  avg # of iterations = 20.0

     negative rho (up, down):  3.539E+02 0.000E+00

     total cpu time spent up to now is       11.2 secs

     WARNING: integrated charge=     8.00000363, expected=     8.00000000

     total energy              =  -22541.20788851 Ry
     Harris-Foulkes estimate   = -933919.24566586 Ry
     estimated scf accuracy    <  228215.79083999 Ry

     iteration #  2     ecut=    30.00 Ry     beta=0.70
     Davidson diagonalization with overlap
     c_bands:  2 eigenvalues not converged
     ethr =  1.00E-02,  avg # of iterations = 20.0

     negative rho (up, down):  1.745E-01 0.000E+00

     total cpu time spent up to now is       11.4 secs

     total energy              =     158.88209181 Ry
     Harris-Foulkes estimate   = -132965.07546860 Ry
     estimated scf accuracy    <   20522.47442750 Ry

     iteration #  3     ecut=    30.00 Ry     beta=0.70
     Davidson diagonalization with overlap
     ethr =  1.00E-02,  avg # of iterations = 11.0

     negative rho (up, down):  7.222E-02 0.000E+00

     total cpu time spent up to now is       11.5 secs

     total energy              =     -54.96878481 Ry
     Harris-Foulkes estimate   =     -92.60921556 Ry
     estimated scf accuracy    <      86.03966699 Ry

     iteration #  4     ecut=    30.00 Ry     beta=0.70
     Davidson diagonalization with overlap
     ethr =  1.00E-02,  avg # of iterations =  2.0

     negative rho (up, down):  4.496E-03 0.000E+00

     total cpu time spent up to now is       11.7 secs

     total energy              =     -25.86967174 Ry
     Harris-Foulkes estimate   =     -55.50713037 Ry
     estimated scf accuracy    <      34.63362614 Ry

     iteration #  5     ecut=    30.00 Ry     beta=0.70
     Davidson diagonalization with overlap
     ethr =  1.00E-02,  avg # of iterations = 10.0

     negative rho (up, down):  1.714E-04 0.000E+00

     total cpu time spent up to now is       11.8 secs

     total energy              =     -35.45398677 Ry
     Harris-Foulkes estimate   =     -40.88175747 Ry
     estimated scf accuracy    <      43.65448692 Ry

     iteration #  6     ecut=    30.00 Ry     beta=0.70
     Davidson diagonalization with overlap
     ethr =  1.00E-02,  avg # of iterations =  2.0

     negative rho (up, down):  2.606E-02 0.000E+00

     total cpu time spent up to now is       11.8 secs

     total energy              =     -36.44971249 Ry
     Harris-Foulkes estimate   =     -36.81789779 Ry
     estimated scf accuracy    <      21.37519917 Ry

     iteration #  7     ecut=    30.00 Ry     beta=0.70
     Davidson diagonalization with overlap
     ethr =  1.00E-02,  avg # of iterations =  1.0

     negative rho (up, down):  2.589E+00 0.000E+00

     total cpu time spent up to now is       11.9 secs

     total energy              =     -28.17769843 Ry
     Harris-Foulkes estimate   =     -36.45335244 Ry
     estimated scf accuracy    <      20.69651669 Ry

     iteration #  8     ecut=    30.00 Ry     beta=0.70
     Davidson diagonalization with overlap
     ethr =  1.00E-02,  avg # of iterations = 11.0

     negative rho (up, down):  2.153E+00 0.000E+00

     total cpu time spent up to now is       12.0 secs

     total energy              =     -33.95036734 Ry
     Harris-Foulkes estimate   =     -33.78246786 Ry
     estimated scf accuracy    <       4.83198663 Ry

     iteration #  9     ecut=    30.00 Ry     beta=0.70
     Davidson diagonalization with overlap
     ethr =  1.00E-02,  avg # of iterations =  6.0

     negative rho (up, down):  1.488E+00 0.000E+00

     total cpu time spent up to now is       12.0 secs

     total energy              =     -33.89251225 Ry
     Harris-Foulkes estimate   =     -36.37305276 Ry
     estimated scf accuracy    <      10.10906965 Ry

     iteration # 10     ecut=    30.00 Ry     beta=0.70
     Davidson diagonalization with overlap
     ethr =  1.00E-02,  avg # of iterations =  2.0

     negative rho (up, down):  1.798E+00 0.000E+00

     total cpu time spent up to now is       12.1 secs

     total energy              =     -34.52612416 Ry
     Harris-Foulkes estimate   =     -33.96421479 Ry
     estimated scf accuracy    <       6.28971207 Ry

     iteration # 11     ecut=    30.00 Ry     beta=0.70
     Davidson diagonalization with overlap
     ethr =  1.00E-02,  avg # of iterations =  1.0

     negative rho (up, down):  1.723E-01 0.000E+00

     total cpu time spent up to now is       12.2 secs

     total energy              =     -30.48832541 Ry
     Harris-Foulkes estimate   =     -34.52710976 Ry
     estimated scf accuracy    <       6.90709309 Ry

     iteration # 12     ecut=    30.00 Ry     beta=0.70
     Davidson diagonalization with overlap
     ethr =  1.00E-02,  avg # of iterations =  4.0

     negative rho (up, down):  1.514E-01 0.000E+00

     total cpu time spent up to now is       12.2 secs

     total energy              =     -32.79746576 Ry
     Harris-Foulkes estimate   =     -32.70392047 Ry
     estimated scf accuracy    <       5.94489176 Ry

     iteration # 13     ecut=    30.00 Ry     beta=0.70
     Davidson diagonalization with overlap
     ethr =  1.00E-02,  avg # of iterations =  1.0

     negative rho (up, down):  3.376E-01 0.000E+00

     total cpu time spent up to now is       12.3 secs

     total energy              =     -34.54151003 Ry
     Harris-Foulkes estimate   =     -32.80028978 Ry
     estimated scf accuracy    <       6.12608326 Ry

     iteration # 14     ecut=    30.00 Ry     beta=0.70
     Davidson diagonalization with overlap
     ethr =  1.00E-02,  avg # of iterations =  7.0

     negative rho (up, down):  2.679E-01 0.000E+00

     total cpu time spent up to now is       12.3 secs

     total energy              =     -27.53801171 Ry
     Harris-Foulkes estimate   =     -38.70168745 Ry
     estimated scf accuracy    <      20.87170554 Ry

     iteration # 15     ecut=    30.00 Ry     beta=0.70
     Davidson diagonalization with overlap
     ethr =  1.00E-02,  avg # of iterations =  7.0

     negative rho (up, down):  2.559E-01 0.000E+00

     total cpu time spent up to now is       12.4 secs

     total energy              =     -31.90570704 Ry
     Harris-Foulkes estimate   =     -31.84927085 Ry
     estimated scf accuracy    <       4.51914411 Ry

     iteration # 16     ecut=    30.00 Ry     beta=0.70
     Davidson diagonalization with overlap
     ethr =  1.00E-02,  avg # of iterations =  1.0

     negative rho (up, down):  3.807E-01 0.000E+00

     total cpu time spent up to now is       12.5 secs

     total energy              =     -31.68724896 Ry
     Harris-Foulkes estimate   =     -31.90645000 Ry
     estimated scf accuracy    <       4.61047437 Ry

     iteration # 17     ecut=    30.00 Ry     beta=0.70
     Davidson diagonalization with overlap
     ethr =  1.00E-02,  avg # of iterations =  4.0

     negative rho (up, down):  1.706E-01 0.000E+00

     total cpu time spent up to now is       12.5 secs

     total energy              =     -32.07540885 Ry
     Harris-Foulkes estimate   =     -31.76824288 Ry
     estimated scf accuracy    <       4.46300774 Ry

     iteration # 18     ecut=    30.00 Ry     beta=0.70
     Davidson diagonalization with overlap
     ethr =  1.00E-02,  avg # of iterations =  1.0

     negative rho (up, down):  1.736E-01 0.000E+00

     total cpu time spent up to now is       12.6 secs

     total energy              =     -32.10642439 Ry
     Harris-Foulkes estimate   =     -32.08377279 Ry
     estimated scf accuracy    <       4.96061581 Ry

     iteration # 19     ecut=    30.00 Ry     beta=0.70
     Davidson diagonalization with overlap
     ethr =  1.00E-02,  avg # of iterations =  1.0

     negative rho (up, down):  1.180E-01 0.000E+00

[...]

     total energy              =    -138.33076971 Ry
     Harris-Foulkes estimate   =    -278.81287373 Ry
     estimated scf accuracy    <      36.81105984 Ry

     iteration # 59     ecut=    30.00 Ry     beta=0.70
     Davidson diagonalization with overlap
     ethr =  1.00E-02,  avg # of iterations =  7.0

     negative rho (up, down):  4.929E-01 0.000E+00

     total cpu time spent up to now is       41.3 secs

     total energy              =     -21.10664195 Ry
     Harris-Foulkes estimate   =    -732.09473574 Ry
     estimated scf accuracy    <      60.35603115 Ry

     iteration # 60     ecut=    30.00 Ry     beta=0.70
     Davidson diagonalization with overlap
     ethr =  1.00E-02,  avg # of iterations =  6.0

     negative rho (up, down):  3.505E-01 0.000E+00

     total cpu time spent up to now is       41.3 secs

     total energy              =    -315.31186129 Ry
     Harris-Foulkes estimate   =   -1059.03622892 Ry
     estimated scf accuracy    <      61.25818110 Ry

     iteration # 61     ecut=    30.00 Ry     beta=0.70
     Davidson diagonalization with overlap
     ethr =  1.00E-02,  avg # of iterations =  9.0

     negative rho (up, down):  4.662E-01 0.000E+00

     total cpu time spent up to now is       41.4 secs

     total energy              =     -21.82803121 Ry
     Harris-Foulkes estimate   =   -1229.48939718 Ry
     estimated scf accuracy    <      55.05781400 Ry

     iteration # 62     ecut=    30.00 Ry     beta=0.70
     Davidson diagonalization with overlap
     ethr =  1.00E-02,  avg # of iterations =  8.0

     negative rho (up, down):  5.442E-01 0.000E+00

     total cpu time spent up to now is       41.5 secs

     total energy              =     188.97947772 Ry
     Harris-Foulkes estimate   =    -666.60808950 Ry
     estimated scf accuracy    <      86.95818883 Ry

     iteration # 63     ecut=    30.00 Ry     beta=0.70
     Davidson diagonalization with overlap
     ethr =  1.00E-02,  avg # of iterations =  9.0

     negative rho (up, down):  5.041E-01 0.000E+00

     total cpu time spent up to now is       41.6 secs

     total energy              =     -22.88459691 Ry
     Harris-Foulkes estimate   =   -1050.39184287 Ry
     estimated scf accuracy    <      78.96141380 Ry

     iteration # 64     ecut=    30.00 Ry     beta=0.70
     Davidson diagonalization with overlap
     ethr =  1.00E-02,  avg # of iterations =  7.0

     negative rho (up, down):  9.389E-01 0.000E+00

     total cpu time spent up to now is       41.7 secs

     total energy              =     -11.20048974 Ry
     Harris-Foulkes estimate   =   -1139.05081777 Ry
     estimated scf accuracy    <      69.84964701 Ry

     iteration # 65     ecut=    30.00 Ry     beta=0.70
     Davidson diagonalization with overlap
     ethr =  1.00E-02,  avg # of iterations =  7.0

     negative rho (up, down):  2.246E-01 0.000E+00

     total cpu time spent up to now is       41.8 secs

     total energy              =      81.24149415 Ry
     Harris-Foulkes estimate   =   -1537.68298839 Ry
     estimated scf accuracy    <      28.74429611 Ry

     iteration # 66     ecut=    30.00 Ry     beta=0.70
     Davidson diagonalization with overlap
     ethr =  1.00E-02,  avg # of iterations =  6.0

     negative rho (up, down):  1.040E+00 0.000E+00

     total cpu time spent up to now is       41.9 secs

     total energy              =     -46.35184731 Ry
     Harris-Foulkes estimate   =    -836.30255949 Ry
     estimated scf accuracy    <      51.10542416 Ry

     iteration # 67     ecut=    30.00 Ry     beta=0.70
     Davidson diagonalization with overlap
     ethr =  1.00E-02,  avg # of iterations =  7.0

     negative rho (up, down):  1.243E+00 0.000E+00

     total cpu time spent up to now is       42.0 secs

     total energy              =    -703.73818971 Ry
     Harris-Foulkes estimate   =   -3172.57480783 Ry
     estimated scf accuracy    <      27.29529657 Ry

     iteration # 68     ecut=    30.00 Ry     beta=0.70
     Davidson diagonalization with overlap
     ethr =  1.00E-02,  avg # of iterations =  9.0

     negative rho (up, down):  1.397E+00 0.000E+00

     total cpu time spent up to now is       42.1 secs

     total energy              =    -140.10469787 Ry
     Harris-Foulkes estimate   =   -7280.63571866 Ry
     estimated scf accuracy    <      44.75763680 Ry

     iteration # 69     ecut=    30.00 Ry     beta=0.70
     Davidson diagonalization with overlap
     ethr =  1.00E-02,  avg # of iterations =  7.0

     negative rho (up, down):  1.242E+00 0.000E+00

     total cpu time spent up to now is       42.1 secs

     total energy              =    -313.13270873 Ry
     Harris-Foulkes estimate   =  -11367.25427573 Ry
     estimated scf accuracy    <      22.93960323 Ry

     iteration # 70     ecut=    30.00 Ry     beta=0.70
     Davidson diagonalization with overlap
     ethr =  1.00E-02,  avg # of iterations =  8.0

     negative rho (up, down):  1.167E+00 0.000E+00

     total cpu time spent up to now is       42.2 secs

     total energy              =    -323.41444853 Ry
     Harris-Foulkes estimate   =  -11540.11487994 Ry
     estimated scf accuracy    <      36.24976891 Ry

     iteration # 71     ecut=    30.00 Ry     beta=0.70
     Davidson diagonalization with overlap
     ethr =  1.00E-02,  avg # of iterations =  7.0

     negative rho (up, down):  5.347E-01 0.000E+00

     total cpu time spent up to now is       42.3 secs

     total energy              =      27.29327894 Ry
     Harris-Foulkes estimate   =   -9074.75357909 Ry
     estimated scf accuracy    <      23.53624688 Ry

     iteration # 72     ecut=    30.00 Ry     beta=0.70
     Davidson diagonalization with overlap
     ethr =  1.00E-02,  avg # of iterations =  7.0

     negative rho (up, down):  5.451E-01 0.000E+00

     total cpu time spent up to now is       42.4 secs

     total energy              =    -955.93643121 Ry
     Harris-Foulkes estimate   =   -5054.02360079 Ry
     estimated scf accuracy    <      29.94959969 Ry

     iteration # 73     ecut=    30.00 Ry     beta=0.70
     Davidson diagonalization with overlap
     ethr =  1.00E-02,  avg # of iterations =  6.0

     negative rho (up, down):  3.897E-01 0.000E+00

     total cpu time spent up to now is       42.5 secs

     total energy              =     -16.04627990 Ry
     Harris-Foulkes estimate   =   -4904.53294777 Ry
     estimated scf accuracy    <      25.73583961 Ry

     iteration # 74     ecut=    30.00 Ry     beta=0.70
     Davidson diagonalization with overlap
     ethr =  1.00E-02,  avg # of iterations =  9.0

     negative rho (up, down):  4.193E-01 0.000E+00

     total cpu time spent up to now is       42.6 secs

     total energy              =    -326.16237343 Ry
     Harris-Foulkes estimate   =   -6026.31363658 Ry
     estimated scf accuracy    <      24.89276523 Ry

     iteration # 75     ecut=    30.00 Ry     beta=0.70
     Davidson diagonalization with overlap
     ethr =  1.00E-02,  avg # of iterations =  7.0

     negative rho (up, down):  2.685E-01 0.000E+00

     total cpu time spent up to now is       42.7 secs

     total energy              =      47.55706448 Ry
     Harris-Foulkes estimate   =   -3924.52297906 Ry
     estimated scf accuracy    <      18.41845635 Ry

     iteration # 76     ecut=    30.00 Ry     beta=0.70
     Davidson diagonalization with overlap
     ethr =  1.00E-02,  avg # of iterations =  7.0

     negative rho (up, down):  5.223E-01 0.000E+00

     total cpu time spent up to now is       42.8 secs

     total energy              =     -31.09104083 Ry
     Harris-Foulkes estimate   =    -817.13436877 Ry
     estimated scf accuracy    <      21.61253820 Ry

     iteration # 77     ecut=    30.00 Ry     beta=0.70
     Davidson diagonalization with overlap
     ethr =  1.00E-02,  avg # of iterations =  9.0

     negative rho (up, down):  5.910E-01 0.000E+00

     total cpu time spent up to now is       42.8 secs

     total energy              =      63.28440637 Ry
     Harris-Foulkes estimate   =  -12997.48841930 Ry
     estimated scf accuracy    <      19.94602272 Ry

     iteration # 78     ecut=    30.00 Ry     beta=0.70
     Davidson diagonalization with overlap
     ethr =  1.00E-02,  avg # of iterations =  8.0

     negative rho (up, down):  4.670E-01 0.000E+00

     total cpu time spent up to now is       42.9 secs

     total energy              =    -219.86682330 Ry
     Harris-Foulkes estimate   =   -1269.80330330 Ry
     estimated scf accuracy    <      21.22551447 Ry

     iteration # 79     ecut=    30.00 Ry     beta=0.70
     Davidson diagonalization with overlap
     ethr =  1.00E-02,  avg # of iterations =  7.0

     negative rho (up, down):  1.682E-01 0.000E+00

     total cpu time spent up to now is       43.0 secs

     total energy              =      73.66780324 Ry
     Harris-Foulkes estimate   =    -789.14033924 Ry
     estimated scf accuracy    <      26.55929540 Ry

     iteration # 80     ecut=    30.00 Ry     beta=0.70
     Davidson diagonalization with overlap
     ethr =  1.00E-02,  avg # of iterations =  9.0

     negative rho (up, down):  2.456E-01 0.000E+00

     total cpu time spent up to now is       43.1 secs

     total energy              =      49.02625175 Ry
     Harris-Foulkes estimate   =   -4265.02080160 Ry
     estimated scf accuracy    <      19.93730827 Ry

     iteration # 81     ecut=    30.00 Ry     beta=0.70
     Davidson diagonalization with overlap
     ethr =  1.00E-02,  avg # of iterations =  7.0

     negative rho (up, down):  1.145E-03 0.000E+00

     total cpu time spent up to now is       43.2 secs

     total energy              =      75.97909347 Ry
     Harris-Foulkes estimate   =    -327.22430442 Ry
     estimated scf accuracy    <      23.82681054 Ry

     iteration # 82     ecut=    30.00 Ry     beta=0.70
     Davidson diagonalization with overlap
     ethr =  1.00E-02,  avg # of iterations =  7.0

     negative rho (up, down):  6.165E-05 0.000E+00

     total cpu time spent up to now is       43.3 secs

     total energy              =       8.35313386 Ry
     Harris-Foulkes estimate   =     -84.40288497 Ry
     estimated scf accuracy    <      43.28759360 Ry

     iteration # 83     ecut=    30.00 Ry     beta=0.70
     Davidson diagonalization with overlap
     ethr =  1.00E-02,  avg # of iterations =  5.0

     negative rho (up, down):  1.477E-04 0.000E+00

     total cpu time spent up to now is       43.4 secs

     total energy              =     -33.16815071 Ry
     Harris-Foulkes estimate   =     -32.86500291 Ry
     estimated scf accuracy    <      17.68863057 Ry

     iteration # 84     ecut=    30.00 Ry     beta=0.70
     Davidson diagonalization with overlap
     ethr =  1.00E-02,  avg # of iterations =  6.0

     negative rho (up, down):  1.567E-05 0.000E+00

     total cpu time spent up to now is       43.4 secs

     total energy              =      -1.56071203 Ry
     Harris-Foulkes estimate   =    -152.30115400 Ry
     estimated scf accuracy    <       4.48297447 Ry

     iteration # 85     ecut=    30.00 Ry     beta=0.70
     Davidson diagonalization with overlap
     ethr =  1.00E-02,  avg # of iterations = 10.0

     total cpu time spent up to now is       43.5 secs

     total energy              =     -32.23251962 Ry
     Harris-Foulkes estimate   =     -32.57812594 Ry
     estimated scf accuracy    <       2.73565866 Ry

     iteration # 86     ecut=    30.00 Ry     beta=0.70
     Davidson diagonalization with overlap
     ethr =  1.00E-02,  avg # of iterations =  1.0

     negative rho (up, down):  3.027E-01 0.000E+00

     total cpu time spent up to now is       43.6 secs

     total energy              =     -34.94627652 Ry
     Harris-Foulkes estimate   =     -32.27759681 Ry
     estimated scf accuracy    <       2.54170247 Ry

     iteration # 87     ecut=    30.00 Ry     beta=0.70
     Davidson diagonalization with overlap
     ethr =  1.00E-02,  avg # of iterations =  4.0

     negative rho (up, down):  2.927E-01 0.000E+00

     total cpu time spent up to now is       43.6 secs

     total energy              =    -154.37854233 Ry
     Harris-Foulkes estimate   =    -138.55794637 Ry
     estimated scf accuracy    <      23.39241429 Ry

     iteration # 88     ecut=    30.00 Ry     beta=0.70
     Davidson diagonalization with overlap
     ethr =  1.00E-02,  avg # of iterations =  4.0

     negative rho (up, down):  3.000E-01 0.000E+00

     total cpu time spent up to now is       43.7 secs

     total energy              =    -139.97749490 Ry
     Harris-Foulkes estimate   =   -1259.47798334 Ry
     estimated scf accuracy    <      37.25296008 Ry

     iteration # 89     ecut=    30.00 Ry     beta=0.70
     Davidson diagonalization with overlap
     ethr =  1.00E-02,  avg # of iterations =  5.0

     negative rho (up, down):  3.124E-01 0.000E+00

     total cpu time spent up to now is       43.8 secs

     total energy              =     -45.86986963 Ry
     Harris-Foulkes estimate   =    -357.05744905 Ry
     estimated scf accuracy    <      49.16689470 Ry

     iteration # 90     ecut=    30.00 Ry     beta=0.70
     Davidson diagonalization with overlap
     ethr =  1.00E-02,  avg # of iterations =  4.0

     negative rho (up, down):  3.086E-01 0.000E+00

     total cpu time spent up to now is       43.8 secs

     total energy              =    -269.16372033 Ry
     Harris-Foulkes estimate   =    -527.54102198 Ry
     estimated scf accuracy    <      28.92205079 Ry

     iteration # 91     ecut=    30.00 Ry     beta=0.70
     Davidson diagonalization with overlap
     ethr =  1.00E-02,  avg # of iterations =  5.0

     negative rho (up, down):  4.134E-01 0.000E+00

     total cpu time spent up to now is       43.9 secs

     total energy              =      75.46266760 Ry
     Harris-Foulkes estimate   =   -1874.03116644 Ry
     estimated scf accuracy    <      34.46146278 Ry

     iteration # 92     ecut=    30.00 Ry     beta=0.70
     Davidson diagonalization with overlap
     ethr =  1.00E-02,  avg # of iterations =  6.0

     negative rho (up, down):  2.607E-01 0.000E+00

     total cpu time spent up to now is       44.0 secs

     total energy              =     -56.68401500 Ry
     Harris-Foulkes estimate   =     -35.36308485 Ry
     estimated scf accuracy    <      11.05428037 Ry

     iteration # 93     ecut=    30.00 Ry     beta=0.70
     Davidson diagonalization with overlap
     ethr =  1.00E-02,  avg # of iterations =  8.0

     negative rho (up, down):  2.983E-01 0.000E+00

     total cpu time spent up to now is       44.1 secs

     total energy              =     -20.24591754 Ry
     Harris-Foulkes estimate   =    -330.33158082 Ry
     estimated scf accuracy    <      70.39757923 Ry

     iteration # 94     ecut=    30.00 Ry     beta=0.70
     Davidson diagonalization with overlap
     ethr =  1.00E-02,  avg # of iterations =  4.0

     negative rho (up, down):  3.880E-01 0.000E+00

     total cpu time spent up to now is       44.2 secs

     total energy              =     -60.90743639 Ry
     Harris-Foulkes estimate   =   -1255.41556016 Ry
     estimated scf accuracy    <      44.19788859 Ry

     iteration # 95     ecut=    30.00 Ry     beta=0.70
     Davidson diagonalization with overlap
     ethr =  1.00E-02,  avg # of iterations =  7.0

     negative rho (up, down):  8.676E-01 0.000E+00

     total cpu time spent up to now is       44.2 secs

     total energy              =       6.75090555 Ry
     Harris-Foulkes estimate   =   -1442.34130094 Ry
     estimated scf accuracy    <      66.16057344 Ry

     iteration # 96     ecut=    30.00 Ry     beta=0.70
     Davidson diagonalization with overlap
     ethr =  1.00E-02,  avg # of iterations =  6.0

     negative rho (up, down):  8.687E-01 0.000E+00

     total cpu time spent up to now is       44.3 secs

     total energy              =    -384.08259608 Ry
     Harris-Foulkes estimate   =    -815.48818424 Ry
     estimated scf accuracy    <      28.80731758 Ry

     iteration # 97     ecut=    30.00 Ry     beta=0.70
     Davidson diagonalization with overlap
     ethr =  1.00E-02,  avg # of iterations =  8.0

     negative rho (up, down):  1.261E+00 0.000E+00

     total cpu time spent up to now is       44.4 secs

     total energy              =      80.64371318 Ry
     Harris-Foulkes estimate   =   -3709.85842012 Ry
     estimated scf accuracy    <      37.29340993 Ry

     iteration # 98     ecut=    30.00 Ry     beta=0.70
     Davidson diagonalization with overlap
     ethr =  1.00E-02,  avg # of iterations =  7.0

     negative rho (up, down):  1.378E+00 0.000E+00

     total cpu time spent up to now is       44.5 secs

     total energy              =      75.76401382 Ry
     Harris-Foulkes estimate   =   -1053.57413911 Ry
     estimated scf accuracy    <      27.84885730 Ry

     iteration # 99     ecut=    30.00 Ry     beta=0.70
     Davidson diagonalization with overlap
     ethr =  1.00E-02,  avg # of iterations = 10.0

     negative rho (up, down):  1.367E+00 0.000E+00

     total cpu time spent up to now is       44.6 secs

     total energy              =    -171.88177926 Ry
     Harris-Foulkes estimate   =   -3077.37048889 Ry
     estimated scf accuracy    <      43.09109743 Ry

     iteration #100     ecut=    30.00 Ry     beta=0.70
     Davidson diagonalization with overlap
     ethr =  1.00E-02,  avg # of iterations =  7.0

     negative rho (up, down):  1.647E+00 0.000E+00

     total cpu time spent up to now is       44.7 secs

     total energy              =    -188.39289523 Ry
     Harris-Foulkes estimate   =   -1514.87825844 Ry
     estimated scf accuracy    <      60.08843945 Ry

     End of self-consistent calculation

     convergence NOT achieved after 100 iterations: stopping

     Writing output data file pwscf.save
 
     init_run     :      0.17s CPU      0.19s WALL (       1 calls)
     electrons    :     30.45s CPU     36.59s WALL (      20 calls)
     update_pot   :      4.29s CPU      5.60s WALL (      19 calls)
     forces       :      0.81s CPU      0.82s WALL (      19 calls)

     Called by init_run:
     wfcinit      :      0.01s CPU      0.02s WALL (       1 calls)
     potinit      :      0.05s CPU      0.05s WALL (       1 calls)

     Called by electrons:
     c_bands      :     15.18s CPU     15.78s WALL (     585 calls)
     sum_band     :      3.00s CPU      3.14s WALL (     585 calls)
     v_of_rho     :      7.10s CPU      7.42s WALL (     605 calls)
     mix_rho      :      4.00s CPU      7.78s WALL (     585 calls)

     Called by c_bands:
     init_us_2    :      0.09s CPU      0.11s WALL (    1171 calls)
     cegterg      :     15.02s CPU     15.47s WALL (     585 calls)

     Called by sum_band:

     Called by *egterg:
     h_psi        :     12.78s CPU     13.13s WALL (    2635 calls)
     g_psi        :      0.14s CPU      0.14s WALL (    2049 calls)
     cdiaghg      :      0.88s CPU      0.90s WALL (    2615 calls)

     Called by h_psi:
     h_psi:pot    :     12.71s CPU     13.06s WALL (    2635 calls)
     h_psi:calbec :      0.17s CPU      0.24s WALL (    2635 calls)
     vloc_psi     :     12.49s CPU     12.76s WALL (    2635 calls)
     add_vuspsi   :      0.03s CPU      0.04s WALL (    2635 calls)

     General routines
     calbec       :      0.25s CPU      0.34s WALL (    2729 calls)
     fft          :      4.32s CPU      4.63s WALL (    6693 calls)
     fftw         :     13.28s CPU     13.62s WALL (   33398 calls)
     davcio       :      0.69s CPU      3.43s WALL (    9933 calls)
 
     Parallel routines
     fft_scatter  :      5.30s CPU      5.69s WALL (   40091 calls)
 
     PWSCF        :    36.59s CPU        44.80s WALL

 
   This run was terminated on:  16:16:37  13Feb2018            

=------------------------------------------------------------------------------=
   JOB DONE.
=------------------------------------------------------------------------------=
