
     Program PWSCF v.6.2 (svn rev. 14038) starts on 17May2018 at 20:24:20 

     This program is part of the open-source Quantum ESPRESSO suite
     for quantum simulation of materials; please cite
         "P. Giannozzi et al., J. Phys.:Condens. Matter 21 395502 (2009);
         "P. Giannozzi et al., J. Phys.:Condens. Matter 29 465901 (2017);
          URL http://www.quantum-espresso.org", 
     in publications or presentations arising from this work. More details at
     http://www.quantum-espresso.org/quote

     Parallel version (MPI), running on    28 processors

     MPI processes distributed on     1 nodes
     R & G space division:  proc/nbgrp/npool/nimage =      28
     Reading input from ../ecut400/13500.in
Warning: card &IONS ignored
Warning: card     POT_EXTRAPOLATION='SECOND-ORDER' ignored
Warning: card     WFC_EXTRAPOLATION='SECOND-ORDER' ignored
Warning: card     ION_TEMPERATURE = 'ANDERSEN' ignored
Warning: card / ignored

     Current dimensions of program PWSCF are:
     Max number of different atomic species (ntypx) = 10
     Max number of k-points (npk) =  40000
     Max angular momentum in pseudopotentials (lmaxx) =  3

     Subspace diagonalization in iterative solution of the eigenvalue problem:
     a serial algorithm will be used

 
     Parallelization info
     --------------------
     sticks:   dense  smooth     PW     G-vecs:    dense   smooth      PW
     Min        1819    1819    455               308823   308823   38597
     Max        1820    1820    456               308826   308826   38599
     Sum       50949   50949  12745              8647083  8647083 1080751
 


     bravais-lattice index     =            1
     lattice parameter (alat)  =      20.0000  a.u.
     unit-cell volume          =    8000.0000 (a.u.)^3
     number of atoms/cell      =            3
     number of atomic types    =            2
     number of electrons       =         8.00
     number of Kohn-Sham states=            8
     kinetic-energy cutoff     =     400.0000  Ry
     charge density cutoff     =    1600.0000  Ry
     convergence threshold     =      1.0E-08
     mixing beta               =       0.7000
     number of iterations used =            8  plain     mixing
     Exchange-correlation      = PBE ( 1  4  3  4 0 0)

     celldm(1)=  20.000000  celldm(2)=   0.000000  celldm(3)=   0.000000
     celldm(4)=   0.000000  celldm(5)=   0.000000  celldm(6)=   0.000000

     crystal axes: (cart. coord. in units of alat)
               a(1) = (   1.000000   0.000000   0.000000 )  
               a(2) = (   0.000000   1.000000   0.000000 )  
               a(3) = (   0.000000   0.000000   1.000000 )  

     reciprocal axes: (cart. coord. in units 2 pi/alat)
               b(1) = (  1.000000  0.000000  0.000000 )  
               b(2) = (  0.000000  1.000000  0.000000 )  
               b(3) = (  0.000000  0.000000  1.000000 )  


     PseudoPot. # 1 for H  read from file:
     ../pslibrary/pbe/PSEUDOPOTENTIALS/H.pbe-rrkjus_psl.1.0.0.UPF
     MD5 check sum: b2b1ff84b4ceabe23335d1bf25025923
     Pseudo is Ultrasoft, Zval =  1.0
     Generated using "atomic" code by A. Dal Corso v.6.2 svn rev. 14038
     Using radial grid of  929 points,  2 beta functions with: 
                l(1) =   0
                l(2) =   0
     Q(r) pseudized with 0 coefficients 


     PseudoPot. # 2 for O  read from file:
     ../pslibrary/pbe/PSEUDOPOTENTIALS/O.pbe-n-rrkjus_psl.1.0.0.UPF
     MD5 check sum: 61455b21a47f6823f888c3bfb9bd1235
     Pseudo is Ultrasoft + core correction, Zval =  6.0
     Generated using "atomic" code by A. Dal Corso v.6.2 svn rev. 14038
     Using radial grid of 1095 points,  4 beta functions with: 
                l(1) =   0
                l(2) =   0
                l(3) =   1
                l(4) =   1
     Q(r) pseudized with 0 coefficients 


     atomic species   valence    mass     pseudopotential
        H              1.00     1.01000     H ( 1.00)
        O              6.00    16.00000     O ( 1.00)

     No symmetry found



   Cartesian axes

     site n.     atom                  positions (alat units)
         1           O   tau(   1) = (   0.0023100   0.0072871   0.0036107  )
         2           H   tau(   2) = (   0.0566557  -0.0405911   0.1067931  )
         3           H   tau(   3) = (  -0.0932493  -0.0748470  -0.0756276  )

     number of k points=     1  Marzari-Vanderbilt smearing, width (Ry)=  0.0250
                       cart. coord. in units 2pi/alat
        k(    1) = (   0.0000000   0.0000000   0.0000000), wk =   2.0000000

     Dense  grid:  8647083 G-vectors     FFT dimensions: ( 256, 256, 256)

     Estimated max dynamical RAM per process >     337.10 MB

     Estimated total dynamical RAM >       9.22 GB

     Initial potential from superposition of free atoms
     Check: negative starting charge=   -0.000134

     starting charge    7.99998, renormalised to    8.00000

     negative rho (up, down):  1.342E-04 0.000E+00
     Starting wfc are    6 randomized atomic wfcs +    2 random wfc

     total cpu time spent up to now is       13.2 secs

     Self-consistent Calculation

     iteration #  1     ecut=   400.00 Ry     beta= 0.70
     Davidson diagonalization with overlap
     ethr =  1.00E-02,  avg # of iterations =  8.0

     negative rho (up, down):  5.366E-05 0.000E+00

     total cpu time spent up to now is       20.1 secs

     total energy              =     -34.14551245 Ry
     Harris-Foulkes estimate   =     -34.55772156 Ry
     estimated scf accuracy    <       0.54981663 Ry

     iteration #  2     ecut=   400.00 Ry     beta= 0.70
     Davidson diagonalization with overlap
     ethr =  6.87E-03,  avg # of iterations =  4.0

     negative rho (up, down):  1.569E-05 0.000E+00

     total cpu time spent up to now is       26.1 secs

     total energy              =     -33.98180329 Ry
     Harris-Foulkes estimate   =     -34.99857195 Ry
     estimated scf accuracy    <       3.33919249 Ry

     iteration #  3     ecut=   400.00 Ry     beta= 0.70
     Davidson diagonalization with overlap
     ethr =  6.87E-03,  avg # of iterations =  3.0

     negative rho (up, down):  1.513E-06 0.000E+00

     total cpu time spent up to now is       31.6 secs

     total energy              =     -34.32558547 Ry
     Harris-Foulkes estimate   =     -34.33680613 Ry
     estimated scf accuracy    <       0.07812264 Ry

     iteration #  4     ecut=   400.00 Ry     beta= 0.70
     Davidson diagonalization with overlap
     ethr =  9.77E-04,  avg # of iterations =  4.0

     negative rho (up, down):  1.926E-06 0.000E+00

     total cpu time spent up to now is       37.6 secs

     total energy              =     -34.43768273 Ry
     Harris-Foulkes estimate   =     -34.44681078 Ry
     estimated scf accuracy    <       0.03853988 Ry

     iteration #  5     ecut=   400.00 Ry     beta= 0.70
     Davidson diagonalization with overlap
     ethr =  4.82E-04,  avg # of iterations =  1.0

     negative rho (up, down):  3.318E-06 0.000E+00

     total cpu time spent up to now is       43.1 secs

     total energy              =     -34.43927962 Ry
     Harris-Foulkes estimate   =     -34.43964752 Ry
     estimated scf accuracy    <       0.00728881 Ry

     iteration #  6     ecut=   400.00 Ry     beta= 0.70
     Davidson diagonalization with overlap
     ethr =  9.11E-05,  avg # of iterations = 14.0

     negative rho (up, down):  3.585E-06 0.000E+00

     total cpu time spent up to now is       50.0 secs

     total energy              =     -34.43921793 Ry
     Harris-Foulkes estimate   =     -34.43964328 Ry
     estimated scf accuracy    <       0.00640552 Ry

     iteration #  7     ecut=   400.00 Ry     beta= 0.70
     Davidson diagonalization with overlap
     ethr =  8.01E-05,  avg # of iterations =  1.0

     negative rho (up, down):  5.108E-06 0.000E+00

     total cpu time spent up to now is       56.3 secs

     total energy              =     -34.43921611 Ry
     Harris-Foulkes estimate   =     -34.43938396 Ry
     estimated scf accuracy    <       0.00357182 Ry

     iteration #  8     ecut=   400.00 Ry     beta= 0.70
     Davidson diagonalization with overlap
     ethr =  4.46E-05,  avg # of iterations =  1.0

     negative rho (up, down):  8.679E-06 0.000E+00

     total cpu time spent up to now is       62.0 secs

     total energy              =     -34.43894895 Ry
     Harris-Foulkes estimate   =     -34.43924131 Ry
     estimated scf accuracy    <       0.00293064 Ry

     iteration #  9     ecut=   400.00 Ry     beta= 0.70
     Davidson diagonalization with overlap
     ethr =  3.66E-05,  avg # of iterations =  1.0

     negative rho (up, down):  1.188E-05 0.000E+00

     total cpu time spent up to now is       68.0 secs

     total energy              =     -34.43879784 Ry
     Harris-Foulkes estimate   =     -34.43897936 Ry
     estimated scf accuracy    <       0.00176086 Ry

     iteration # 10     ecut=   400.00 Ry     beta= 0.70
     Davidson diagonalization with overlap
     ethr =  2.20E-05,  avg # of iterations =  1.0

     negative rho (up, down):  1.308E-05 0.000E+00

     total cpu time spent up to now is       73.6 secs

     total energy              =     -34.43878724 Ry
     Harris-Foulkes estimate   =     -34.43883644 Ry
     estimated scf accuracy    <       0.00099513 Ry

     iteration # 11     ecut=   400.00 Ry     beta= 0.70
     Davidson diagonalization with overlap
     ethr =  1.24E-05,  avg # of iterations =  1.0

     negative rho (up, down):  2.318E-05 0.000E+00

     total cpu time spent up to now is       79.3 secs

     total energy              =     -34.43867639 Ry
     Harris-Foulkes estimate   =     -34.43880440 Ry
     estimated scf accuracy    <       0.00073291 Ry

     iteration # 12     ecut=   400.00 Ry     beta= 0.70
     Davidson diagonalization with overlap
     ethr =  9.16E-06,  avg # of iterations = 14.0

     negative rho (up, down):  4.378E-05 0.000E+00

     total cpu time spent up to now is       86.8 secs

     total energy              =     -34.43878267 Ry
     Harris-Foulkes estimate   =     -34.43880136 Ry
     estimated scf accuracy    <       0.00006427 Ry

     iteration # 13     ecut=   400.00 Ry     beta= 0.70
     Davidson diagonalization with overlap
     ethr =  8.03E-07,  avg # of iterations =  7.0

     negative rho (up, down):  4.199E-05 0.000E+00

     total cpu time spent up to now is       93.3 secs

     total energy              =     -34.43880021 Ry
     Harris-Foulkes estimate   =     -34.43879682 Ry
     estimated scf accuracy    <       0.00001282 Ry

     iteration # 14     ecut=   400.00 Ry     beta= 0.70
     Davidson diagonalization with overlap
     ethr =  1.60E-07,  avg # of iterations =  4.0

     negative rho (up, down):  4.031E-05 0.000E+00

     total cpu time spent up to now is       99.5 secs

     total energy              =     -34.43881226 Ry
     Harris-Foulkes estimate   =     -34.43880853 Ry
     estimated scf accuracy    <       0.00005416 Ry

     iteration # 15     ecut=   400.00 Ry     beta= 0.70
     Davidson diagonalization with overlap
     ethr =  1.60E-07,  avg # of iterations =  1.0

     negative rho (up, down):  3.980E-05 0.000E+00

     total cpu time spent up to now is      105.4 secs

     total energy              =     -34.43883042 Ry
     Harris-Foulkes estimate   =     -34.43881241 Ry
     estimated scf accuracy    <       0.00006729 Ry

     iteration # 16     ecut=   400.00 Ry     beta= 0.70
     Davidson diagonalization with overlap
     ethr =  1.60E-07,  avg # of iterations =  1.0

     negative rho (up, down):  3.898E-05 0.000E+00

     total cpu time spent up to now is      111.1 secs

     total energy              =     -34.43883710 Ry
     Harris-Foulkes estimate   =     -34.43883255 Ry
     estimated scf accuracy    <       0.00013812 Ry

     iteration # 17     ecut=   400.00 Ry     beta= 0.70
     Davidson diagonalization with overlap
     ethr =  1.60E-07,  avg # of iterations =  3.0

     negative rho (up, down):  4.019E-05 0.000E+00

     total cpu time spent up to now is      117.2 secs

     total energy              =     -34.43880018 Ry
     Harris-Foulkes estimate   =     -34.43883968 Ry
     estimated scf accuracy    <       0.00019701 Ry

     iteration # 18     ecut=   400.00 Ry     beta= 0.70
     Davidson diagonalization with overlap
     ethr =  1.60E-07,  avg # of iterations =  3.0

     negative rho (up, down):  3.975E-05 0.000E+00

     total cpu time spent up to now is      123.5 secs

     total energy              =     -34.43880592 Ry
     Harris-Foulkes estimate   =     -34.43880700 Ry
     estimated scf accuracy    <       0.00005310 Ry

     iteration # 19     ecut=   400.00 Ry     beta= 0.70
     Davidson diagonalization with overlap
     ethr =  1.60E-07,  avg # of iterations =  1.0

     negative rho (up, down):  4.072E-05 0.000E+00

     total cpu time spent up to now is      129.1 secs

     total energy              =     -34.43880234 Ry
     Harris-Foulkes estimate   =     -34.43880607 Ry
     estimated scf accuracy    <       0.00004980 Ry

     iteration # 20     ecut=   400.00 Ry     beta= 0.70
     Davidson diagonalization with overlap
     ethr =  1.60E-07,  avg # of iterations =  1.0

     negative rho (up, down):  4.234E-05 0.000E+00

     total cpu time spent up to now is      134.8 secs

     total energy              =     -34.43879649 Ry
     Harris-Foulkes estimate   =     -34.43880259 Ry
     estimated scf accuracy    <       0.00003690 Ry

     iteration # 21     ecut=   400.00 Ry     beta= 0.70
     Davidson diagonalization with overlap
     ethr =  1.60E-07,  avg # of iterations =  1.0

     negative rho (up, down):  4.185E-05 0.000E+00

     total cpu time spent up to now is      141.6 secs

     total energy              =     -34.43879311 Ry
     Harris-Foulkes estimate   =     -34.43879733 Ry
     estimated scf accuracy    <       0.00001499 Ry

     iteration # 22     ecut=   400.00 Ry     beta= 0.70
     Davidson diagonalization with overlap
     ethr =  1.60E-07,  avg # of iterations =  3.0

     negative rho (up, down):  4.259E-05 0.000E+00

     total cpu time spent up to now is      147.7 secs

     total energy              =     -34.43879581 Ry
     Harris-Foulkes estimate   =     -34.43879582 Ry
     estimated scf accuracy    <       0.00000006 Ry

     iteration # 23     ecut=   400.00 Ry     beta= 0.70
     Davidson diagonalization with overlap
     ethr =  7.30E-10,  avg # of iterations =  4.0

     negative rho (up, down):  4.269E-05 0.000E+00

     total cpu time spent up to now is      154.3 secs

     total energy              =     -34.43879599 Ry
     Harris-Foulkes estimate   =     -34.43879600 Ry
     estimated scf accuracy    <       0.00000009 Ry

     iteration # 24     ecut=   400.00 Ry     beta= 0.70
     Davidson diagonalization with overlap
     ethr =  7.30E-10,  avg # of iterations =  1.0

     negative rho (up, down):  4.289E-05 0.000E+00

     total cpu time spent up to now is      160.0 secs

     total energy              =     -34.43879599 Ry
     Harris-Foulkes estimate   =     -34.43879599 Ry
     estimated scf accuracy    <       0.00000005 Ry

     iteration # 25     ecut=   400.00 Ry     beta= 0.70
     Davidson diagonalization with overlap
     ethr =  6.05E-10,  avg # of iterations =  1.0

     negative rho (up, down):  4.289E-05 0.000E+00

     total cpu time spent up to now is      164.8 secs

     End of self-consistent calculation

          k = 0.0000 0.0000 0.0000 (****** PWs)   bands (ev):

   -22.2323 -10.2588  -8.0536  -6.4668  -4.0858  -1.7256  -0.0247   0.8813

     the Fermi energy is    -6.1535 ev

!    total energy              =     -34.43879598 Ry
     Harris-Foulkes estimate   =     -34.43879599 Ry
     estimated scf accuracy    <          6.8E-09 Ry

     The total energy is the sum of the following terms:

     one-electron contribution =     -56.08824512 Ry
     hartree contribution      =      29.72821438 Ry
     xc contribution           =      -8.27175804 Ry
     ewald contribution        =       0.18891533 Ry
     smearing contrib. (-TS)   =       0.00407747 Ry

     convergence has been achieved in  25 iterations

     Writing output data file pwscf.save
 
     init_run     :     11.26s CPU     11.92s WALL (       1 calls)
     electrons    :    136.76s CPU    152.10s WALL (       1 calls)

     Called by init_run:
     wfcinit      :      0.86s CPU      1.00s WALL (       1 calls)
     potinit      :      1.76s CPU      1.86s WALL (       1 calls)

     Called by electrons:
     c_bands      :     48.88s CPU     50.76s WALL (      25 calls)
     sum_band     :     33.43s CPU     35.85s WALL (      25 calls)
     v_of_rho     :     24.78s CPU     25.84s WALL (      26 calls)
     newd         :     12.18s CPU     14.76s WALL (      26 calls)
     mix_rho      :     17.88s CPU     24.89s WALL (      25 calls)

     Called by c_bands:
     init_us_2    :      0.64s CPU      0.67s WALL (      51 calls)
     cegterg      :     47.95s CPU     49.72s WALL (      25 calls)

     Called by sum_band:
     sum_band:bec :      0.00s CPU      0.00s WALL (      25 calls)
     addusdens    :     18.60s CPU     20.54s WALL (      25 calls)

     Called by *egterg:
     h_psi        :     45.58s CPU     47.32s WALL (     110 calls)
     s_psi        :      0.33s CPU      0.33s WALL (     110 calls)
     g_psi        :      0.10s CPU      0.10s WALL (      84 calls)
     cdiaghg      :      0.02s CPU      0.03s WALL (     109 calls)

     Called by h_psi:
     h_psi:pot    :     45.31s CPU     47.04s WALL (     110 calls)
     h_psi:calbec :      0.51s CPU      0.52s WALL (     110 calls)
     vloc_psi     :     44.49s CPU     46.21s WALL (     110 calls)
     add_vuspsi   :      0.31s CPU      0.31s WALL (     110 calls)

     General routines
     calbec       :      0.75s CPU      0.78s WALL (     135 calls)
     fft          :     30.48s CPU     32.20s WALL (     337 calls)
     fftw         :     48.84s CPU     50.75s WALL (    1194 calls)
     davcio       :      1.18s CPU      7.29s WALL (     407 calls)
 
     Parallel routines
     fft_scatt_xy :     10.64s CPU     10.66s WALL (    1531 calls)
     fft_scatt_yz :     31.92s CPU     35.38s WALL (    1531 calls)
 
     PWSCF        :  2m29.55s CPU     2m47.62s WALL

 
   This run was terminated on:  20:27: 7  17May2018            

=------------------------------------------------------------------------------=
   JOB DONE.
=------------------------------------------------------------------------------=
