
     Program PWSCF v.6.2 (svn rev. 14038) starts on 17May2018 at 20:55:27 

     This program is part of the open-source Quantum ESPRESSO suite
     for quantum simulation of materials; please cite
         "P. Giannozzi et al., J. Phys.:Condens. Matter 21 395502 (2009);
         "P. Giannozzi et al., J. Phys.:Condens. Matter 29 465901 (2017);
          URL http://www.quantum-espresso.org", 
     in publications or presentations arising from this work. More details at
     http://www.quantum-espresso.org/quote

     Parallel version (MPI), running on    28 processors

     MPI processes distributed on     1 nodes
     R & G space division:  proc/nbgrp/npool/nimage =      28
     Reading input from ../ecut400/19000.in
Warning: card &IONS ignored
Warning: card     POT_EXTRAPOLATION='SECOND-ORDER' ignored
Warning: card     WFC_EXTRAPOLATION='SECOND-ORDER' ignored
Warning: card     ION_TEMPERATURE = 'ANDERSEN' ignored
Warning: card / ignored

     Current dimensions of program PWSCF are:
     Max number of different atomic species (ntypx) = 10
     Max number of k-points (npk) =  40000
     Max angular momentum in pseudopotentials (lmaxx) =  3

     Subspace diagonalization in iterative solution of the eigenvalue problem:
     a serial algorithm will be used

 
     Parallelization info
     --------------------
     sticks:   dense  smooth     PW     G-vecs:    dense   smooth      PW
     Min        1819    1819    455               308823   308823   38597
     Max        1820    1820    456               308826   308826   38599
     Sum       50949   50949  12745              8647083  8647083 1080751
 


     bravais-lattice index     =            1
     lattice parameter (alat)  =      20.0000  a.u.
     unit-cell volume          =    8000.0000 (a.u.)^3
     number of atoms/cell      =            3
     number of atomic types    =            2
     number of electrons       =         8.00
     number of Kohn-Sham states=            8
     kinetic-energy cutoff     =     400.0000  Ry
     charge density cutoff     =    1600.0000  Ry
     convergence threshold     =      1.0E-08
     mixing beta               =       0.7000
     number of iterations used =            8  plain     mixing
     Exchange-correlation      = PBE ( 1  4  3  4 0 0)

     celldm(1)=  20.000000  celldm(2)=   0.000000  celldm(3)=   0.000000
     celldm(4)=   0.000000  celldm(5)=   0.000000  celldm(6)=   0.000000

     crystal axes: (cart. coord. in units of alat)
               a(1) = (   1.000000   0.000000   0.000000 )  
               a(2) = (   0.000000   1.000000   0.000000 )  
               a(3) = (   0.000000   0.000000   1.000000 )  

     reciprocal axes: (cart. coord. in units 2 pi/alat)
               b(1) = (  1.000000  0.000000  0.000000 )  
               b(2) = (  0.000000  1.000000  0.000000 )  
               b(3) = (  0.000000  0.000000  1.000000 )  


     PseudoPot. # 1 for H  read from file:
     ../pslibrary/pbe/PSEUDOPOTENTIALS/H.pbe-rrkjus_psl.1.0.0.UPF
     MD5 check sum: b2b1ff84b4ceabe23335d1bf25025923
     Pseudo is Ultrasoft, Zval =  1.0
     Generated using "atomic" code by A. Dal Corso v.6.2 svn rev. 14038
     Using radial grid of  929 points,  2 beta functions with: 
                l(1) =   0
                l(2) =   0
     Q(r) pseudized with 0 coefficients 


     PseudoPot. # 2 for O  read from file:
     ../pslibrary/pbe/PSEUDOPOTENTIALS/O.pbe-n-rrkjus_psl.1.0.0.UPF
     MD5 check sum: 61455b21a47f6823f888c3bfb9bd1235
     Pseudo is Ultrasoft + core correction, Zval =  6.0
     Generated using "atomic" code by A. Dal Corso v.6.2 svn rev. 14038
     Using radial grid of 1095 points,  4 beta functions with: 
                l(1) =   0
                l(2) =   0
                l(3) =   1
                l(4) =   1
     Q(r) pseudized with 0 coefficients 


     atomic species   valence    mass     pseudopotential
        H              1.00     1.01000     H ( 1.00)
        O              6.00    16.00000     O ( 1.00)

     No symmetry found



   Cartesian axes

     site n.     atom                  positions (alat units)
         1           O   tau(   1) = (  -0.0002929   0.0062674   0.0112235  )
         2           H   tau(   2) = (   0.0673402  -0.0286855  -0.0364563  )
         3           H   tau(   3) = (  -0.0627008  -0.0706001  -0.0529764  )

     number of k points=     1  Marzari-Vanderbilt smearing, width (Ry)=  0.0250
                       cart. coord. in units 2pi/alat
        k(    1) = (   0.0000000   0.0000000   0.0000000), wk =   2.0000000

     Dense  grid:  8647083 G-vectors     FFT dimensions: ( 256, 256, 256)

     Estimated max dynamical RAM per process >     337.10 MB

     Estimated total dynamical RAM >       9.22 GB

     Initial potential from superposition of free atoms
     Check: negative starting charge=   -0.000146

     starting charge    7.99998, renormalised to    8.00000

     negative rho (up, down):  1.457E-04 0.000E+00
     Starting wfc are    6 randomized atomic wfcs +    2 random wfc

     total cpu time spent up to now is       13.1 secs

     Self-consistent Calculation

     iteration #  1     ecut=   400.00 Ry     beta= 0.70
     Davidson diagonalization with overlap
     ethr =  1.00E-02,  avg # of iterations =  7.0

     negative rho (up, down):  7.244E-05 0.000E+00

     total cpu time spent up to now is       20.4 secs

     total energy              =     -34.47816794 Ry
     Harris-Foulkes estimate   =     -34.81963431 Ry
     estimated scf accuracy    <       0.45941337 Ry

     iteration #  2     ecut=   400.00 Ry     beta= 0.70
     Davidson diagonalization with overlap
     ethr =  5.74E-03,  avg # of iterations =  3.0

     negative rho (up, down):  4.595E-05 0.000E+00

     total cpu time spent up to now is       26.3 secs

     total energy              =     -34.50151078 Ry
     Harris-Foulkes estimate   =     -34.90154398 Ry
     estimated scf accuracy    <       0.97895172 Ry

     iteration #  3     ecut=   400.00 Ry     beta= 0.70
     Davidson diagonalization with overlap
     ethr =  5.74E-03,  avg # of iterations =  1.0

     negative rho (up, down):  7.658E-08 0.000E+00

     total cpu time spent up to now is       31.6 secs

     total energy              =     -34.56197794 Ry
     Harris-Foulkes estimate   =     -34.60087556 Ry
     estimated scf accuracy    <       0.11321821 Ry

     iteration #  4     ecut=   400.00 Ry     beta= 0.70
     Davidson diagonalization with overlap
     ethr =  1.42E-03,  avg # of iterations =  3.0

     negative rho (up, down):  1.616E-07 0.000E+00

     total cpu time spent up to now is       37.9 secs

     total energy              =     -34.69284089 Ry
     Harris-Foulkes estimate   =     -34.71950541 Ry
     estimated scf accuracy    <       0.11511509 Ry

     iteration #  5     ecut=   400.00 Ry     beta= 0.70
     Davidson diagonalization with overlap
     ethr =  1.42E-03,  avg # of iterations =  1.0

     negative rho (up, down):  4.137E-07 0.000E+00

     total cpu time spent up to now is       43.2 secs

     total energy              =     -34.68606458 Ry
     Harris-Foulkes estimate   =     -34.69551061 Ry
     estimated scf accuracy    <       0.05057857 Ry

     iteration #  6     ecut=   400.00 Ry     beta= 0.70
     Davidson diagonalization with overlap
     ethr =  6.32E-04,  avg # of iterations =  2.0

     negative rho (up, down):  7.896E-07 0.000E+00

     total cpu time spent up to now is       49.0 secs

     total energy              =     -34.69188769 Ry
     Harris-Foulkes estimate   =     -34.69200565 Ry
     estimated scf accuracy    <       0.00715300 Ry

     iteration #  7     ecut=   400.00 Ry     beta= 0.70
     Davidson diagonalization with overlap
     ethr =  8.94E-05,  avg # of iterations =  4.0

     negative rho (up, down):  3.817E-06 0.000E+00

     total cpu time spent up to now is       55.5 secs

     total energy              =     -34.69160140 Ry
     Harris-Foulkes estimate   =     -34.69206157 Ry
     estimated scf accuracy    <       0.00652853 Ry

     iteration #  8     ecut=   400.00 Ry     beta= 0.70
     Davidson diagonalization with overlap
     ethr =  8.16E-05,  avg # of iterations =  1.0

     negative rho (up, down):  5.836E-05 0.000E+00

     total cpu time spent up to now is       61.0 secs

     total energy              =     -34.69049955 Ry
     Harris-Foulkes estimate   =     -34.69163583 Ry
     estimated scf accuracy    <       0.00489107 Ry

     iteration #  9     ecut=   400.00 Ry     beta= 0.70
     Davidson diagonalization with overlap
     ethr =  6.11E-05,  avg # of iterations =  1.0

     negative rho (up, down):  7.066E-05 0.000E+00

     total cpu time spent up to now is       66.8 secs

     total energy              =     -34.69055997 Ry
     Harris-Foulkes estimate   =     -34.69077508 Ry
     estimated scf accuracy    <       0.00121634 Ry

     iteration # 10     ecut=   400.00 Ry     beta= 0.70
     Davidson diagonalization with overlap
     ethr =  1.52E-05,  avg # of iterations = 17.0

     negative rho (up, down):  4.970E-05 0.000E+00

     total cpu time spent up to now is       74.4 secs

     total energy              =     -34.69066513 Ry
     Harris-Foulkes estimate   =     -34.69067987 Ry
     estimated scf accuracy    <       0.00036864 Ry

     iteration # 11     ecut=   400.00 Ry     beta= 0.70
     Davidson diagonalization with overlap
     ethr =  4.61E-06,  avg # of iterations =  1.0

     negative rho (up, down):  4.767E-05 0.000E+00

     total cpu time spent up to now is       80.1 secs

     total energy              =     -34.69063084 Ry
     Harris-Foulkes estimate   =     -34.69067995 Ry
     estimated scf accuracy    <       0.00027990 Ry

     iteration # 12     ecut=   400.00 Ry     beta= 0.70
     Davidson diagonalization with overlap
     ethr =  3.50E-06,  avg # of iterations =  3.0

     negative rho (up, down):  5.609E-05 0.000E+00

     total cpu time spent up to now is       86.0 secs

     total energy              =     -34.69067273 Ry
     Harris-Foulkes estimate   =     -34.69067850 Ry
     estimated scf accuracy    <       0.00006808 Ry

     iteration # 13     ecut=   400.00 Ry     beta= 0.70
     Davidson diagonalization with overlap
     ethr =  8.51E-07,  avg # of iterations =  1.0

     negative rho (up, down):  5.619E-05 0.000E+00

     total cpu time spent up to now is       91.6 secs

     total energy              =     -34.69066273 Ry
     Harris-Foulkes estimate   =     -34.69067488 Ry
     estimated scf accuracy    <       0.00004509 Ry

     iteration # 14     ecut=   400.00 Ry     beta= 0.70
     Davidson diagonalization with overlap
     ethr =  5.64E-07,  avg # of iterations =  3.0

     negative rho (up, down):  5.547E-05 0.000E+00

     total cpu time spent up to now is       97.5 secs

     total energy              =     -34.69066973 Ry
     Harris-Foulkes estimate   =     -34.69067114 Ry
     estimated scf accuracy    <       0.00000428 Ry

     iteration # 15     ecut=   400.00 Ry     beta= 0.70
     Davidson diagonalization with overlap
     ethr =  5.35E-08,  avg # of iterations =  3.0

     negative rho (up, down):  5.656E-05 0.000E+00

     total cpu time spent up to now is      103.7 secs

     total energy              =     -34.69067178 Ry
     Harris-Foulkes estimate   =     -34.69067201 Ry
     estimated scf accuracy    <       0.00000066 Ry

     iteration # 16     ecut=   400.00 Ry     beta= 0.70
     Davidson diagonalization with overlap
     ethr =  8.27E-09,  avg # of iterations =  3.0

     negative rho (up, down):  5.479E-05 0.000E+00

     total cpu time spent up to now is      109.7 secs

     total energy              =     -34.69067185 Ry
     Harris-Foulkes estimate   =     -34.69067190 Ry
     estimated scf accuracy    <       0.00000018 Ry

     iteration # 17     ecut=   400.00 Ry     beta= 0.70
     Davidson diagonalization with overlap
     ethr =  2.26E-09,  avg # of iterations =  2.0

     negative rho (up, down):  5.526E-05 0.000E+00

     total cpu time spent up to now is      115.5 secs

     total energy              =     -34.69067189 Ry
     Harris-Foulkes estimate   =     -34.69067189 Ry
     estimated scf accuracy    <       0.00000002 Ry

     iteration # 18     ecut=   400.00 Ry     beta= 0.70
     Davidson diagonalization with overlap
     ethr =  2.69E-10,  avg # of iterations =  3.0

     negative rho (up, down):  5.556E-05 0.000E+00

     total cpu time spent up to now is      121.6 secs

     total energy              =     -34.69067189 Ry
     Harris-Foulkes estimate   =     -34.69067190 Ry
     estimated scf accuracy    <       0.00000002 Ry

     iteration # 19     ecut=   400.00 Ry     beta= 0.70
     Davidson diagonalization with overlap
     ethr =  2.69E-10,  avg # of iterations =  1.0

     negative rho (up, down):  5.591E-05 0.000E+00

     total cpu time spent up to now is      127.3 secs

     total energy              =     -34.69067189 Ry
     Harris-Foulkes estimate   =     -34.69067189 Ry
     estimated scf accuracy    <       0.00000001 Ry

     iteration # 20     ecut=   400.00 Ry     beta= 0.70
     Davidson diagonalization with overlap
     ethr =  1.29E-10,  avg # of iterations =  4.0

     negative rho (up, down):  5.557E-05 0.000E+00

     total cpu time spent up to now is      132.4 secs

     End of self-consistent calculation

          k = 0.0000 0.0000 0.0000 (****** PWs)   bands (ev):

   -24.6520 -10.9846 -10.0849  -7.0360  -1.9877  -0.0128   0.5486   0.9495

     the Fermi energy is    -5.1108 ev

!    total energy              =     -34.69067189 Ry
     Harris-Foulkes estimate   =     -34.69067190 Ry
     estimated scf accuracy    <          7.7E-09 Ry

     The total energy is the sum of the following terms:

     one-electron contribution =     -61.96975867 Ry
     hartree contribution      =      32.50928343 Ry
     xc contribution           =      -8.67274710 Ry
     ewald contribution        =       3.44255044 Ry
     smearing contrib. (-TS)   =       0.00000000 Ry

     convergence has been achieved in  20 iterations

     Writing output data file pwscf.save
 
     init_run     :     11.25s CPU     11.79s WALL (       1 calls)
     electrons    :    104.82s CPU    119.90s WALL (       1 calls)

     Called by init_run:
     wfcinit      :      0.85s CPU      0.91s WALL (       1 calls)
     potinit      :      1.61s CPU      1.72s WALL (       1 calls)

     Called by electrons:
     c_bands      :     40.29s CPU     41.78s WALL (      20 calls)
     sum_band     :     26.80s CPU     28.78s WALL (      20 calls)
     v_of_rho     :     19.81s CPU     20.70s WALL (      21 calls)
     newd         :      9.66s CPU     11.74s WALL (      21 calls)
     mix_rho      :      8.64s CPU     16.91s WALL (      20 calls)

     Called by c_bands:
     init_us_2    :      0.52s CPU      0.54s WALL (      41 calls)
     cegterg      :     39.55s CPU     40.97s WALL (      20 calls)

     Called by sum_band:
     sum_band:bec :      0.00s CPU      0.00s WALL (      20 calls)
     addusdens    :     14.97s CPU     16.51s WALL (      20 calls)

     Called by *egterg:
     h_psi        :     37.74s CPU     39.13s WALL (      85 calls)
     s_psi        :      0.27s CPU      0.27s WALL (      85 calls)
     g_psi        :      0.08s CPU      0.08s WALL (      64 calls)
     cdiaghg      :      0.04s CPU      0.04s WALL (      84 calls)

     Called by h_psi:
     h_psi:pot    :     37.51s CPU     38.90s WALL (      85 calls)
     h_psi:calbec :      0.35s CPU      0.36s WALL (      85 calls)
     vloc_psi     :     36.92s CPU     38.29s WALL (      85 calls)
     add_vuspsi   :      0.24s CPU      0.24s WALL (      85 calls)

     General routines
     calbec       :      0.55s CPU      0.57s WALL (     105 calls)
     fft          :     24.53s CPU     25.91s WALL (     272 calls)
     fftw         :     40.19s CPU     41.74s WALL (     982 calls)
     davcio       :      0.82s CPU      8.59s WALL (     307 calls)
 
     Parallel routines
     fft_scatt_xy :      8.66s CPU      8.70s WALL (    1254 calls)
     fft_scatt_yz :     26.33s CPU     29.05s WALL (    1254 calls)
 
     PWSCF        :  1m57.51s CPU     2m14.61s WALL

 
   This run was terminated on:  20:57:42  17May2018            

=------------------------------------------------------------------------------=
   JOB DONE.
=------------------------------------------------------------------------------=
