
     Program PWSCF v.6.2 (svn rev. 14038) starts on 17May2018 at 21:17:48 

     This program is part of the open-source Quantum ESPRESSO suite
     for quantum simulation of materials; please cite
         "P. Giannozzi et al., J. Phys.:Condens. Matter 21 395502 (2009);
         "P. Giannozzi et al., J. Phys.:Condens. Matter 29 465901 (2017);
          URL http://www.quantum-espresso.org", 
     in publications or presentations arising from this work. More details at
     http://www.quantum-espresso.org/quote

     Parallel version (MPI), running on    28 processors

     MPI processes distributed on     1 nodes
     R & G space division:  proc/nbgrp/npool/nimage =      28
     Reading input from ../ecut400/22500.in
Warning: card &IONS ignored
Warning: card     POT_EXTRAPOLATION='SECOND-ORDER' ignored
Warning: card     WFC_EXTRAPOLATION='SECOND-ORDER' ignored
Warning: card     ION_TEMPERATURE = 'ANDERSEN' ignored
Warning: card / ignored

     Current dimensions of program PWSCF are:
     Max number of different atomic species (ntypx) = 10
     Max number of k-points (npk) =  40000
     Max angular momentum in pseudopotentials (lmaxx) =  3

     Subspace diagonalization in iterative solution of the eigenvalue problem:
     a serial algorithm will be used

 
     Parallelization info
     --------------------
     sticks:   dense  smooth     PW     G-vecs:    dense   smooth      PW
     Min        1819    1819    455               308823   308823   38597
     Max        1820    1820    456               308826   308826   38599
     Sum       50949   50949  12745              8647083  8647083 1080751
 


     bravais-lattice index     =            1
     lattice parameter (alat)  =      20.0000  a.u.
     unit-cell volume          =    8000.0000 (a.u.)^3
     number of atoms/cell      =            3
     number of atomic types    =            2
     number of electrons       =         8.00
     number of Kohn-Sham states=            8
     kinetic-energy cutoff     =     400.0000  Ry
     charge density cutoff     =    1600.0000  Ry
     convergence threshold     =      1.0E-08
     mixing beta               =       0.7000
     number of iterations used =            8  plain     mixing
     Exchange-correlation      = PBE ( 1  4  3  4 0 0)

     celldm(1)=  20.000000  celldm(2)=   0.000000  celldm(3)=   0.000000
     celldm(4)=   0.000000  celldm(5)=   0.000000  celldm(6)=   0.000000

     crystal axes: (cart. coord. in units of alat)
               a(1) = (   1.000000   0.000000   0.000000 )  
               a(2) = (   0.000000   1.000000   0.000000 )  
               a(3) = (   0.000000   0.000000   1.000000 )  

     reciprocal axes: (cart. coord. in units 2 pi/alat)
               b(1) = (  1.000000  0.000000  0.000000 )  
               b(2) = (  0.000000  1.000000  0.000000 )  
               b(3) = (  0.000000  0.000000  1.000000 )  


     PseudoPot. # 1 for H  read from file:
     ../pslibrary/pbe/PSEUDOPOTENTIALS/H.pbe-rrkjus_psl.1.0.0.UPF
     MD5 check sum: b2b1ff84b4ceabe23335d1bf25025923
     Pseudo is Ultrasoft, Zval =  1.0
     Generated using "atomic" code by A. Dal Corso v.6.2 svn rev. 14038
     Using radial grid of  929 points,  2 beta functions with: 
                l(1) =   0
                l(2) =   0
     Q(r) pseudized with 0 coefficients 


     PseudoPot. # 2 for O  read from file:
     ../pslibrary/pbe/PSEUDOPOTENTIALS/O.pbe-n-rrkjus_psl.1.0.0.UPF
     MD5 check sum: 61455b21a47f6823f888c3bfb9bd1235
     Pseudo is Ultrasoft + core correction, Zval =  6.0
     Generated using "atomic" code by A. Dal Corso v.6.2 svn rev. 14038
     Using radial grid of 1095 points,  4 beta functions with: 
                l(1) =   0
                l(2) =   0
                l(3) =   1
                l(4) =   1
     Q(r) pseudized with 0 coefficients 


     atomic species   valence    mass     pseudopotential
        H              1.00     1.01000     H ( 1.00)
        O              6.00    16.00000     O ( 1.00)

     No symmetry found



   Cartesian axes

     site n.     atom                  positions (alat units)
         1           O   tau(   1) = (  -0.0057188   0.0097813   0.0032202  )
         2           H   tau(   2) = (   0.1200451  -0.0779390  -0.0421601  )
         3           H   tau(   3) = (  -0.0294511  -0.0770122   0.0795115  )

     number of k points=     1  Marzari-Vanderbilt smearing, width (Ry)=  0.0250
                       cart. coord. in units 2pi/alat
        k(    1) = (   0.0000000   0.0000000   0.0000000), wk =   2.0000000

     Dense  grid:  8647083 G-vectors     FFT dimensions: ( 256, 256, 256)

     Estimated max dynamical RAM per process >     337.10 MB

     Estimated total dynamical RAM >       9.22 GB

     Initial potential from superposition of free atoms
     Check: negative starting charge=   -0.000137

     starting charge    7.99998, renormalised to    8.00000

     negative rho (up, down):  1.373E-04 0.000E+00
     Starting wfc are    6 randomized atomic wfcs +    2 random wfc

     total cpu time spent up to now is       13.3 secs

     Self-consistent Calculation

     iteration #  1     ecut=   400.00 Ry     beta= 0.70
     Davidson diagonalization with overlap
     ethr =  1.00E-02,  avg # of iterations =  8.0

     negative rho (up, down):  5.798E-05 0.000E+00

     total cpu time spent up to now is       19.9 secs

     total energy              =     -34.14455823 Ry
     Harris-Foulkes estimate   =     -34.56889294 Ry
     estimated scf accuracy    <       0.56176866 Ry

     iteration #  2     ecut=   400.00 Ry     beta= 0.70
     Davidson diagonalization with overlap
     ethr =  7.02E-03,  avg # of iterations =  3.0

     negative rho (up, down):  6.936E-06 0.000E+00

     total cpu time spent up to now is       25.7 secs

     total energy              =     -34.02542213 Ry
     Harris-Foulkes estimate   =     -35.06824111 Ry
     estimated scf accuracy    <       3.42504525 Ry

     iteration #  3     ecut=   400.00 Ry     beta= 0.70
     Davidson diagonalization with overlap
     ethr =  7.02E-03,  avg # of iterations =  4.0

     negative rho (up, down):  3.197E-07 0.000E+00

     total cpu time spent up to now is       31.4 secs

     total energy              =     -34.35185795 Ry
     Harris-Foulkes estimate   =     -34.36679886 Ry
     estimated scf accuracy    <       0.08820376 Ry

     iteration #  4     ecut=   400.00 Ry     beta= 0.70
     Davidson diagonalization with overlap
     ethr =  1.10E-03,  avg # of iterations =  4.0

     negative rho (up, down):  5.514E-07 0.000E+00

     total cpu time spent up to now is       37.3 secs

     total energy              =     -34.45760383 Ry
     Harris-Foulkes estimate   =     -34.46247573 Ry
     estimated scf accuracy    <       0.03035229 Ry

     iteration #  5     ecut=   400.00 Ry     beta= 0.70
     Davidson diagonalization with overlap
     ethr =  3.79E-04,  avg # of iterations =  1.0

     negative rho (up, down):  8.205E-07 0.000E+00

     total cpu time spent up to now is       42.7 secs

     total energy              =     -34.45674345 Ry
     Harris-Foulkes estimate   =     -34.45843362 Ry
     estimated scf accuracy    <       0.01479780 Ry

     iteration #  6     ecut=   400.00 Ry     beta= 0.70
     Davidson diagonalization with overlap
     ethr =  1.85E-04,  avg # of iterations =  1.0

     negative rho (up, down):  1.246E-06 0.000E+00

     total cpu time spent up to now is       48.3 secs

     total energy              =     -34.45633174 Ry
     Harris-Foulkes estimate   =     -34.45699590 Ry
     estimated scf accuracy    <       0.00830449 Ry

     iteration #  7     ecut=   400.00 Ry     beta= 0.70
     Davidson diagonalization with overlap
     ethr =  1.04E-04,  avg # of iterations =  2.0

     negative rho (up, down):  1.581E-06 0.000E+00

     total cpu time spent up to now is       53.9 secs

     total energy              =     -34.45653862 Ry
     Harris-Foulkes estimate   =     -34.45667531 Ry
     estimated scf accuracy    <       0.00407633 Ry

     iteration #  8     ecut=   400.00 Ry     beta= 0.70
     Davidson diagonalization with overlap
     ethr =  5.10E-05,  avg # of iterations =  1.0

     negative rho (up, down):  3.761E-06 0.000E+00

     total cpu time spent up to now is       59.5 secs

     total energy              =     -34.45620694 Ry
     Harris-Foulkes estimate   =     -34.45656881 Ry
     estimated scf accuracy    <       0.00332425 Ry

     iteration #  9     ecut=   400.00 Ry     beta= 0.70
     Davidson diagonalization with overlap
     ethr =  4.16E-05,  avg # of iterations =  9.0

     negative rho (up, down):  6.788E-06 0.000E+00

     total cpu time spent up to now is       66.1 secs

     total energy              =     -34.45613598 Ry
     Harris-Foulkes estimate   =     -34.45627690 Ry
     estimated scf accuracy    <       0.00158673 Ry

     iteration # 10     ecut=   400.00 Ry     beta= 0.70
     Davidson diagonalization with overlap
     ethr =  1.98E-05,  avg # of iterations =  1.0

     negative rho (up, down):  7.018E-06 0.000E+00

     total cpu time spent up to now is       71.8 secs

     total energy              =     -34.45615858 Ry
     Harris-Foulkes estimate   =     -34.45616736 Ry
     estimated scf accuracy    <       0.00089621 Ry

     iteration # 11     ecut=   400.00 Ry     beta= 0.70
     Davidson diagonalization with overlap
     ethr =  1.12E-05,  avg # of iterations =  1.0

     negative rho (up, down):  6.864E-06 0.000E+00

     total cpu time spent up to now is       77.7 secs

     total energy              =     -34.45617464 Ry
     Harris-Foulkes estimate   =     -34.45616227 Ry
     estimated scf accuracy    <       0.00085364 Ry

     iteration # 12     ecut=   400.00 Ry     beta= 0.70
     Davidson diagonalization with overlap
     ethr =  1.07E-05,  avg # of iterations =  1.0

     negative rho (up, down):  4.741E-05 0.000E+00

     total cpu time spent up to now is       83.6 secs

     total energy              =     -34.45599528 Ry
     Harris-Foulkes estimate   =     -34.45617718 Ry
     estimated scf accuracy    <       0.00083788 Ry

     iteration # 13     ecut=   400.00 Ry     beta= 0.70
     Davidson diagonalization with overlap
     ethr =  1.05E-05,  avg # of iterations =  1.0

     negative rho (up, down):  4.813E-05 0.000E+00

     total cpu time spent up to now is       89.4 secs

     total energy              =     -34.45602006 Ry
     Harris-Foulkes estimate   =     -34.45603784 Ry
     estimated scf accuracy    <       0.00013821 Ry

     iteration # 14     ecut=   400.00 Ry     beta= 0.70
     Davidson diagonalization with overlap
     ethr =  1.73E-06,  avg # of iterations = 14.0

     negative rho (up, down):  4.901E-05 0.000E+00

     total cpu time spent up to now is       97.1 secs

     total energy              =     -34.45604121 Ry
     Harris-Foulkes estimate   =     -34.45603893 Ry
     estimated scf accuracy    <       0.00003683 Ry

     iteration # 15     ecut=   400.00 Ry     beta= 0.70
     Davidson diagonalization with overlap
     ethr =  4.60E-07,  avg # of iterations =  2.0

     negative rho (up, down):  4.954E-05 0.000E+00

     total cpu time spent up to now is      102.9 secs

     total energy              =     -34.45602949 Ry
     Harris-Foulkes estimate   =     -34.45604415 Ry
     estimated scf accuracy    <       0.00003974 Ry

     iteration # 16     ecut=   400.00 Ry     beta= 0.70
     Davidson diagonalization with overlap
     ethr =  4.60E-07,  avg # of iterations =  3.0

     negative rho (up, down):  4.269E-05 0.000E+00

     total cpu time spent up to now is      108.8 secs

     total energy              =     -34.45603839 Ry
     Harris-Foulkes estimate   =     -34.45603910 Ry
     estimated scf accuracy    <       0.00001098 Ry

     iteration # 17     ecut=   400.00 Ry     beta= 0.70
     Davidson diagonalization with overlap
     ethr =  1.37E-07,  avg # of iterations =  1.0

     negative rho (up, down):  4.094E-05 0.000E+00

     total cpu time spent up to now is      114.6 secs

     total energy              =     -34.45603792 Ry
     Harris-Foulkes estimate   =     -34.45603889 Ry
     estimated scf accuracy    <       0.00000848 Ry

     iteration # 18     ecut=   400.00 Ry     beta= 0.70
     Davidson diagonalization with overlap
     ethr =  1.06E-07,  avg # of iterations =  1.0

     negative rho (up, down):  4.332E-05 0.000E+00

     total cpu time spent up to now is      120.3 secs

     total energy              =     -34.45603779 Ry
     Harris-Foulkes estimate   =     -34.45603829 Ry
     estimated scf accuracy    <       0.00000485 Ry

     iteration # 19     ecut=   400.00 Ry     beta= 0.70
     Davidson diagonalization with overlap
     ethr =  6.07E-08,  avg # of iterations =  3.0

     negative rho (up, down):  4.285E-05 0.000E+00

     total cpu time spent up to now is      126.2 secs

     total energy              =     -34.45603780 Ry
     Harris-Foulkes estimate   =     -34.45603833 Ry
     estimated scf accuracy    <       0.00000392 Ry

     iteration # 20     ecut=   400.00 Ry     beta= 0.70
     Davidson diagonalization with overlap
     ethr =  4.90E-08,  avg # of iterations =  1.0

     negative rho (up, down):  4.428E-05 0.000E+00

     total cpu time spent up to now is      132.0 secs

     total energy              =     -34.45603769 Ry
     Harris-Foulkes estimate   =     -34.45603795 Ry
     estimated scf accuracy    <       0.00000141 Ry

     iteration # 21     ecut=   400.00 Ry     beta= 0.70
     Davidson diagonalization with overlap
     ethr =  1.76E-08,  avg # of iterations =  1.0

     negative rho (up, down):  4.468E-05 0.000E+00

     total cpu time spent up to now is      137.8 secs

     total energy              =     -34.45603772 Ry
     Harris-Foulkes estimate   =     -34.45603778 Ry
     estimated scf accuracy    <       0.00000032 Ry

     iteration # 22     ecut=   400.00 Ry     beta= 0.70
     Davidson diagonalization with overlap
     ethr =  3.99E-09,  avg # of iterations =  2.0

     negative rho (up, down):  4.513E-05 0.000E+00

     total cpu time spent up to now is      143.6 secs

     total energy              =     -34.45603777 Ry
     Harris-Foulkes estimate   =     -34.45603777 Ry
     estimated scf accuracy    <       0.00000004 Ry

     iteration # 23     ecut=   400.00 Ry     beta= 0.70
     Davidson diagonalization with overlap
     ethr =  4.62E-10,  avg # of iterations =  4.0

     negative rho (up, down):  4.537E-05 0.000E+00

     total cpu time spent up to now is      149.0 secs

     End of self-consistent calculation

          k = 0.0000 0.0000 0.0000 (****** PWs)   bands (ev):

   -22.5959  -9.8374  -8.9444  -6.6628  -4.4108  -1.4199   0.0355   0.8712

     the Fermi energy is    -6.3494 ev

!    total energy              =     -34.45603779 Ry
     Harris-Foulkes estimate   =     -34.45603779 Ry
     estimated scf accuracy    <          7.8E-09 Ry

     The total energy is the sum of the following terms:

     one-electron contribution =     -56.25346819 Ry
     hartree contribution      =      29.74351422 Ry
     xc contribution           =      -8.28465338 Ry
     ewald contribution        =       0.33449209 Ry
     smearing contrib. (-TS)   =       0.00407747 Ry

     convergence has been achieved in  23 iterations

     Writing output data file pwscf.save
 
     init_run     :     11.34s CPU     11.92s WALL (       1 calls)
     electrons    :    122.32s CPU    136.40s WALL (       1 calls)

     Called by init_run:
     wfcinit      :      0.92s CPU      1.00s WALL (       1 calls)
     potinit      :      1.68s CPU      1.78s WALL (       1 calls)

     Called by electrons:
     c_bands      :     43.05s CPU     44.61s WALL (      23 calls)
     sum_band     :     30.71s CPU     32.96s WALL (      23 calls)
     v_of_rho     :     23.02s CPU     24.03s WALL (      24 calls)
     newd         :     11.12s CPU     13.51s WALL (      24 calls)
     mix_rho      :     14.67s CPU     21.17s WALL (      23 calls)

     Called by c_bands:
     init_us_2    :      0.60s CPU      0.62s WALL (      47 calls)
     cegterg      :     42.21s CPU     43.69s WALL (      23 calls)

     Called by sum_band:
     sum_band:bec :      0.00s CPU      0.00s WALL (      23 calls)
     addusdens    :     17.12s CPU     18.91s WALL (      23 calls)

     Called by *egterg:
     h_psi        :     40.25s CPU     41.71s WALL (      93 calls)
     s_psi        :      0.28s CPU      0.28s WALL (      93 calls)
     g_psi        :      0.09s CPU      0.09s WALL (      69 calls)
     cdiaghg      :      0.03s CPU      0.03s WALL (      92 calls)

     Called by h_psi:
     h_psi:pot    :     40.00s CPU     41.46s WALL (      93 calls)
     h_psi:calbec :      0.47s CPU      0.49s WALL (      93 calls)
     vloc_psi     :     39.27s CPU     40.71s WALL (      93 calls)
     add_vuspsi   :      0.26s CPU      0.26s WALL (      93 calls)

     General routines
     calbec       :      0.67s CPU      0.70s WALL (     116 calls)
     fft          :     28.11s CPU     29.71s WALL (     311 calls)
     fftw         :     43.39s CPU     45.01s WALL (    1068 calls)
     davcio       :      1.00s CPU      6.73s WALL (     367 calls)
 
     Parallel routines
     fft_scatt_xy :      9.79s CPU      9.81s WALL (    1379 calls)
     fft_scatt_yz :     29.41s CPU     32.44s WALL (    1379 calls)
 
     PWSCF        :  2m15.60s CPU     2m31.75s WALL

 
   This run was terminated on:  21:20:20  17May2018            

=------------------------------------------------------------------------------=
   JOB DONE.
=------------------------------------------------------------------------------=
