
     Program PWSCF v.6.2 (svn rev. 14038) starts on 17May2018 at 19:27:56 

     This program is part of the open-source Quantum ESPRESSO suite
     for quantum simulation of materials; please cite
         "P. Giannozzi et al., J. Phys.:Condens. Matter 21 395502 (2009);
         "P. Giannozzi et al., J. Phys.:Condens. Matter 29 465901 (2017);
          URL http://www.quantum-espresso.org", 
     in publications or presentations arising from this work. More details at
     http://www.quantum-espresso.org/quote

     Parallel version (MPI), running on    28 processors

     MPI processes distributed on     1 nodes
     R & G space division:  proc/nbgrp/npool/nimage =      28
     Reading input from ../ecut400/3500.in
Warning: card &IONS ignored
Warning: card     POT_EXTRAPOLATION='SECOND-ORDER' ignored
Warning: card     WFC_EXTRAPOLATION='SECOND-ORDER' ignored
Warning: card     ION_TEMPERATURE = 'ANDERSEN' ignored
Warning: card / ignored

     Current dimensions of program PWSCF are:
     Max number of different atomic species (ntypx) = 10
     Max number of k-points (npk) =  40000
     Max angular momentum in pseudopotentials (lmaxx) =  3

     Subspace diagonalization in iterative solution of the eigenvalue problem:
     a serial algorithm will be used

 
     Parallelization info
     --------------------
     sticks:   dense  smooth     PW     G-vecs:    dense   smooth      PW
     Min        1819    1819    455               308823   308823   38597
     Max        1820    1820    456               308826   308826   38599
     Sum       50949   50949  12745              8647083  8647083 1080751
 


     bravais-lattice index     =            1
     lattice parameter (alat)  =      20.0000  a.u.
     unit-cell volume          =    8000.0000 (a.u.)^3
     number of atoms/cell      =            3
     number of atomic types    =            2
     number of electrons       =         8.00
     number of Kohn-Sham states=            8
     kinetic-energy cutoff     =     400.0000  Ry
     charge density cutoff     =    1600.0000  Ry
     convergence threshold     =      1.0E-08
     mixing beta               =       0.7000
     number of iterations used =            8  plain     mixing
     Exchange-correlation      = PBE ( 1  4  3  4 0 0)

     celldm(1)=  20.000000  celldm(2)=   0.000000  celldm(3)=   0.000000
     celldm(4)=   0.000000  celldm(5)=   0.000000  celldm(6)=   0.000000

     crystal axes: (cart. coord. in units of alat)
               a(1) = (   1.000000   0.000000   0.000000 )  
               a(2) = (   0.000000   1.000000   0.000000 )  
               a(3) = (   0.000000   0.000000   1.000000 )  

     reciprocal axes: (cart. coord. in units 2 pi/alat)
               b(1) = (  1.000000  0.000000  0.000000 )  
               b(2) = (  0.000000  1.000000  0.000000 )  
               b(3) = (  0.000000  0.000000  1.000000 )  


     PseudoPot. # 1 for H  read from file:
     ../pslibrary/pbe/PSEUDOPOTENTIALS/H.pbe-rrkjus_psl.1.0.0.UPF
     MD5 check sum: b2b1ff84b4ceabe23335d1bf25025923
     Pseudo is Ultrasoft, Zval =  1.0
     Generated using "atomic" code by A. Dal Corso v.6.2 svn rev. 14038
     Using radial grid of  929 points,  2 beta functions with: 
                l(1) =   0
                l(2) =   0
     Q(r) pseudized with 0 coefficients 


     PseudoPot. # 2 for O  read from file:
     ../pslibrary/pbe/PSEUDOPOTENTIALS/O.pbe-n-rrkjus_psl.1.0.0.UPF
     MD5 check sum: 61455b21a47f6823f888c3bfb9bd1235
     Pseudo is Ultrasoft + core correction, Zval =  6.0
     Generated using "atomic" code by A. Dal Corso v.6.2 svn rev. 14038
     Using radial grid of 1095 points,  4 beta functions with: 
                l(1) =   0
                l(2) =   0
                l(3) =   1
                l(4) =   1
     Q(r) pseudized with 0 coefficients 


     atomic species   valence    mass     pseudopotential
        H              1.00     1.01000     H ( 1.00)
        O              6.00    16.00000     O ( 1.00)

     No symmetry found



   Cartesian axes

     site n.     atom                  positions (alat units)
         1           O   tau(   1) = (  -0.0086675   0.0056183   0.0056536  )
         2           H   tau(   2) = (   0.0514957  -0.0999554   0.0132292  )
         3           H   tau(   3) = (   0.0858112   0.0109529  -0.0144269  )

     number of k points=     1  Marzari-Vanderbilt smearing, width (Ry)=  0.0250
                       cart. coord. in units 2pi/alat
        k(    1) = (   0.0000000   0.0000000   0.0000000), wk =   2.0000000

     Dense  grid:  8647083 G-vectors     FFT dimensions: ( 256, 256, 256)

     Estimated max dynamical RAM per process >     337.10 MB

     Estimated total dynamical RAM >       9.22 GB

     Initial potential from superposition of free atoms
     Check: negative starting charge=   -0.000147

     starting charge    7.99998, renormalised to    8.00000

     negative rho (up, down):  1.475E-04 0.000E+00
     Starting wfc are    6 randomized atomic wfcs +    2 random wfc

     total cpu time spent up to now is       13.0 secs

     Self-consistent Calculation

     iteration #  1     ecut=   400.00 Ry     beta= 0.70
     Davidson diagonalization with overlap
     ethr =  1.00E-02,  avg # of iterations =  7.0

     negative rho (up, down):  7.121E-05 0.000E+00

     total cpu time spent up to now is       20.1 secs

     total energy              =     -34.42846606 Ry
     Harris-Foulkes estimate   =     -34.75346408 Ry
     estimated scf accuracy    <       0.43683415 Ry

     iteration #  2     ecut=   400.00 Ry     beta= 0.70
     Davidson diagonalization with overlap
     ethr =  5.46E-03,  avg # of iterations =  3.0

     negative rho (up, down):  9.935E-06 0.000E+00

     total cpu time spent up to now is       25.7 secs

     total energy              =     -34.42357379 Ry
     Harris-Foulkes estimate   =     -34.86174899 Ry
     estimated scf accuracy    <       1.11717949 Ry

     iteration #  3     ecut=   400.00 Ry     beta= 0.70
     Davidson diagonalization with overlap
     ethr =  5.46E-03,  avg # of iterations =  3.0

     negative rho (up, down):  3.215E-07 0.000E+00

     total cpu time spent up to now is       31.1 secs

     total energy              =     -34.58174953 Ry
     Harris-Foulkes estimate   =     -34.59029262 Ry
     estimated scf accuracy    <       0.02664886 Ry

     iteration #  4     ecut=   400.00 Ry     beta= 0.70
     Davidson diagonalization with overlap
     ethr =  3.33E-04,  avg # of iterations =  5.0

     negative rho (up, down):  7.499E-07 0.000E+00

     total cpu time spent up to now is       37.7 secs

     total energy              =     -34.63792607 Ry
     Harris-Foulkes estimate   =     -34.64592035 Ry
     estimated scf accuracy    <       0.03269407 Ry

     iteration #  5     ecut=   400.00 Ry     beta= 0.70
     Davidson diagonalization with overlap
     ethr =  3.33E-04,  avg # of iterations =  1.0

     negative rho (up, down):  8.689E-07 0.000E+00

     total cpu time spent up to now is       43.1 secs

     total energy              =     -34.63655973 Ry
     Harris-Foulkes estimate   =     -34.63888266 Ry
     estimated scf accuracy    <       0.01244526 Ry

     iteration #  6     ecut=   400.00 Ry     beta= 0.70
     Davidson diagonalization with overlap
     ethr =  1.56E-04,  avg # of iterations =  1.0

     negative rho (up, down):  9.459E-07 0.000E+00

     total cpu time spent up to now is       48.4 secs

     total energy              =     -34.63721176 Ry
     Harris-Foulkes estimate   =     -34.63740837 Ry
     estimated scf accuracy    <       0.00443749 Ry

     iteration #  7     ecut=   400.00 Ry     beta= 0.70
     Davidson diagonalization with overlap
     ethr =  5.55E-05,  avg # of iterations =  3.0

     negative rho (up, down):  1.387E-06 0.000E+00

     total cpu time spent up to now is       54.1 secs

     total energy              =     -34.63772778 Ry
     Harris-Foulkes estimate   =     -34.63778911 Ry
     estimated scf accuracy    <       0.00181484 Ry

     iteration #  8     ecut=   400.00 Ry     beta= 0.70
     Davidson diagonalization with overlap
     ethr =  2.27E-05,  avg # of iterations = 10.0

     negative rho (up, down):  1.791E-06 0.000E+00

     total cpu time spent up to now is       60.7 secs

     total energy              =     -34.63787508 Ry
     Harris-Foulkes estimate   =     -34.63783598 Ry
     estimated scf accuracy    <       0.00119002 Ry

     iteration #  9     ecut=   400.00 Ry     beta= 0.70
     Davidson diagonalization with overlap
     ethr =  1.49E-05,  avg # of iterations =  4.0

     negative rho (up, down):  1.659E-05 0.000E+00

     total cpu time spent up to now is       66.6 secs

     total energy              =     -34.63801596 Ry
     Harris-Foulkes estimate   =     -34.63788669 Ry
     estimated scf accuracy    <       0.00123181 Ry

     iteration # 10     ecut=   400.00 Ry     beta= 0.70
     Davidson diagonalization with overlap
     ethr =  1.49E-05,  avg # of iterations =  1.0

     negative rho (up, down):  1.004E-04 0.000E+00

     total cpu time spent up to now is       72.3 secs

     total energy              =     -34.63795109 Ry
     Harris-Foulkes estimate   =     -34.63802662 Ry
     estimated scf accuracy    <       0.00157613 Ry

     iteration # 11     ecut=   400.00 Ry     beta= 0.70
     Davidson diagonalization with overlap
     ethr =  1.49E-05,  avg # of iterations =  1.0

     negative rho (up, down):  1.079E-04 0.000E+00

     total cpu time spent up to now is       77.9 secs

     total energy              =     -34.63778611 Ry
     Harris-Foulkes estimate   =     -34.63795594 Ry
     estimated scf accuracy    <       0.00133701 Ry

     iteration # 12     ecut=   400.00 Ry     beta= 0.70
     Davidson diagonalization with overlap
     ethr =  1.49E-05,  avg # of iterations =  1.0

     negative rho (up, down):  1.022E-04 0.000E+00

     total cpu time spent up to now is       83.4 secs

     total energy              =     -34.63771388 Ry
     Harris-Foulkes estimate   =     -34.63779492 Ry
     estimated scf accuracy    <       0.00088016 Ry

     iteration # 13     ecut=   400.00 Ry     beta= 0.70
     Davidson diagonalization with overlap
     ethr =  1.10E-05,  avg # of iterations =  1.0

     negative rho (up, down):  9.531E-05 0.000E+00

     total cpu time spent up to now is       89.0 secs

     total energy              =     -34.63769205 Ry
     Harris-Foulkes estimate   =     -34.63772594 Ry
     estimated scf accuracy    <       0.00053949 Ry

     iteration # 14     ecut=   400.00 Ry     beta= 0.70
     Davidson diagonalization with overlap
     ethr =  6.74E-06,  avg # of iterations =  1.0

     negative rho (up, down):  1.004E-04 0.000E+00

     total cpu time spent up to now is       94.7 secs

     total energy              =     -34.63772024 Ry
     Harris-Foulkes estimate   =     -34.63769478 Ry
     estimated scf accuracy    <       0.00041806 Ry

     iteration # 15     ecut=   400.00 Ry     beta= 0.70
     Davidson diagonalization with overlap
     ethr =  5.23E-06,  avg # of iterations =  1.0

     negative rho (up, down):  4.700E-05 0.000E+00

     total cpu time spent up to now is      100.3 secs

     total energy              =     -34.63749317 Ry
     Harris-Foulkes estimate   =     -34.63772143 Ry
     estimated scf accuracy    <       0.00048089 Ry

     iteration # 16     ecut=   400.00 Ry     beta= 0.70
     Davidson diagonalization with overlap
     ethr =  5.23E-06,  avg # of iterations =  1.0

     negative rho (up, down):  5.458E-05 0.000E+00

     total cpu time spent up to now is      106.0 secs

     total energy              =     -34.63756361 Ry
     Harris-Foulkes estimate   =     -34.63755374 Ry
     estimated scf accuracy    <       0.00001938 Ry

     iteration # 17     ecut=   400.00 Ry     beta= 0.70
     Davidson diagonalization with overlap
     ethr =  2.42E-07,  avg # of iterations =  7.0

     negative rho (up, down):  5.989E-05 0.000E+00

     total cpu time spent up to now is      113.1 secs

     total energy              =     -34.63760769 Ry
     Harris-Foulkes estimate   =     -34.63761038 Ry
     estimated scf accuracy    <       0.00001091 Ry

     iteration # 18     ecut=   400.00 Ry     beta= 0.70
     Davidson diagonalization with overlap
     ethr =  1.36E-07,  avg # of iterations =  1.0

     negative rho (up, down):  5.526E-05 0.000E+00

     total cpu time spent up to now is      118.7 secs

     total energy              =     -34.63760682 Ry
     Harris-Foulkes estimate   =     -34.63760810 Ry
     estimated scf accuracy    <       0.00000586 Ry

     iteration # 19     ecut=   400.00 Ry     beta= 0.70
     Davidson diagonalization with overlap
     ethr =  7.32E-08,  avg # of iterations =  2.0

     negative rho (up, down):  5.241E-05 0.000E+00

     total cpu time spent up to now is      124.5 secs

     total energy              =     -34.63760754 Ry
     Harris-Foulkes estimate   =     -34.63760771 Ry
     estimated scf accuracy    <       0.00000311 Ry

     iteration # 20     ecut=   400.00 Ry     beta= 0.70
     Davidson diagonalization with overlap
     ethr =  3.89E-08,  avg # of iterations =  2.0

     negative rho (up, down):  5.309E-05 0.000E+00

     total cpu time spent up to now is      130.2 secs

     total energy              =     -34.63760670 Ry
     Harris-Foulkes estimate   =     -34.63760785 Ry
     estimated scf accuracy    <       0.00000391 Ry

     iteration # 21     ecut=   400.00 Ry     beta= 0.70
     Davidson diagonalization with overlap
     ethr =  3.89E-08,  avg # of iterations =  1.0

     negative rho (up, down):  5.103E-05 0.000E+00

     total cpu time spent up to now is      136.0 secs

     total energy              =     -34.63760635 Ry
     Harris-Foulkes estimate   =     -34.63760684 Ry
     estimated scf accuracy    <       0.00000143 Ry

     iteration # 22     ecut=   400.00 Ry     beta= 0.70
     Davidson diagonalization with overlap
     ethr =  1.79E-08,  avg # of iterations =  3.0

     negative rho (up, down):  5.115E-05 0.000E+00

     total cpu time spent up to now is      142.2 secs

     total energy              =     -34.63760602 Ry
     Harris-Foulkes estimate   =     -34.63760793 Ry
     estimated scf accuracy    <       0.00000423 Ry

     iteration # 23     ecut=   400.00 Ry     beta= 0.70
     Davidson diagonalization with overlap
     ethr =  1.79E-08,  avg # of iterations =  3.0

     negative rho (up, down):  5.280E-05 0.000E+00

     total cpu time spent up to now is      148.3 secs

     total energy              =     -34.63760667 Ry
     Harris-Foulkes estimate   =     -34.63760676 Ry
     estimated scf accuracy    <       0.00000025 Ry

     iteration # 24     ecut=   400.00 Ry     beta= 0.70
     Davidson diagonalization with overlap
     ethr =  3.16E-09,  avg # of iterations =  3.0

     negative rho (up, down):  5.311E-05 0.000E+00

     total cpu time spent up to now is      154.4 secs

     total energy              =     -34.63760674 Ry
     Harris-Foulkes estimate   =     -34.63760680 Ry
     estimated scf accuracy    <       0.00000011 Ry

     iteration # 25     ecut=   400.00 Ry     beta= 0.70
     Davidson diagonalization with overlap
     ethr =  1.34E-09,  avg # of iterations =  3.0

     negative rho (up, down):  5.354E-05 0.000E+00

     total cpu time spent up to now is      160.3 secs

     total energy              =     -34.63760676 Ry
     Harris-Foulkes estimate   =     -34.63760677 Ry
     estimated scf accuracy    <       0.00000002 Ry

     iteration # 26     ecut=   400.00 Ry     beta= 0.70
     Davidson diagonalization with overlap
     ethr =  2.62E-10,  avg # of iterations =  3.0

     negative rho (up, down):  5.352E-05 0.000E+00

     total cpu time spent up to now is      166.4 secs

     total energy              =     -34.63760677 Ry
     Harris-Foulkes estimate   =     -34.63760677 Ry
     estimated scf accuracy    <       0.00000002 Ry

     iteration # 27     ecut=   400.00 Ry     beta= 0.70
     Davidson diagonalization with overlap
     ethr =  2.01E-10,  avg # of iterations =  1.0

     negative rho (up, down):  5.350E-05 0.000E+00

     total cpu time spent up to now is      171.0 secs

     End of self-consistent calculation

          k = 0.0000 0.0000 0.0000 (****** PWs)   bands (ev):

   -24.3727 -11.0859  -9.7078  -7.0410  -2.5230  -0.0870   0.3996   0.9266

     the Fermi energy is    -5.0581 ev

!    total energy              =     -34.63760677 Ry
     Harris-Foulkes estimate   =     -34.63760677 Ry
     estimated scf accuracy    <          2.9E-09 Ry

     The total energy is the sum of the following terms:

     one-electron contribution =     -60.96412472 Ry
     hartree contribution      =      31.99341879 Ry
     xc contribution           =      -8.58960921 Ry
     ewald contribution        =       2.92270837 Ry
     smearing contrib. (-TS)   =       0.00000000 Ry

     convergence has been achieved in  27 iterations

     Writing output data file pwscf.save
 
     init_run     :     11.03s CPU     11.72s WALL (       1 calls)
     electrons    :    140.80s CPU    158.50s WALL (       1 calls)

     Called by init_run:
     wfcinit      :      0.84s CPU      0.94s WALL (       1 calls)
     potinit      :      1.62s CPU      1.72s WALL (       1 calls)

     Called by electrons:
     c_bands      :     51.55s CPU     53.28s WALL (      27 calls)
     sum_band     :     36.05s CPU     38.69s WALL (      27 calls)
     v_of_rho     :     26.62s CPU     27.69s WALL (      28 calls)
     newd         :     12.83s CPU     15.78s WALL (      28 calls)
     mix_rho      :     13.95s CPU     22.89s WALL (      27 calls)

     Called by c_bands:
     init_us_2    :      0.70s CPU      0.73s WALL (      55 calls)
     cegterg      :     50.56s CPU     52.19s WALL (      27 calls)

     Called by sum_band:
     sum_band:bec :      0.00s CPU      0.00s WALL (      27 calls)
     addusdens    :     20.07s CPU     22.17s WALL (      27 calls)

     Called by *egterg:
     h_psi        :     48.16s CPU     49.72s WALL (     101 calls)
     s_psi        :      0.32s CPU      0.32s WALL (     101 calls)
     g_psi        :      0.11s CPU      0.11s WALL (      73 calls)
     cdiaghg      :      0.02s CPU      0.02s WALL (     100 calls)

     Called by h_psi:
     h_psi:pot    :     47.86s CPU     49.41s WALL (     101 calls)
     h_psi:calbec :      0.45s CPU      0.47s WALL (     101 calls)
     vloc_psi     :     47.11s CPU     48.65s WALL (     101 calls)
     add_vuspsi   :      0.30s CPU      0.30s WALL (     101 calls)

     General routines
     calbec       :      0.69s CPU      0.72s WALL (     128 calls)
     fft          :     33.21s CPU     35.00s WALL (     363 calls)
     fftw         :     51.87s CPU     53.58s WALL (    1282 calls)
     davcio       :      1.29s CPU      9.57s WALL (     447 calls)
 
     Parallel routines
     fft_scatt_xy :     11.18s CPU     11.22s WALL (    1645 calls)
     fft_scatt_yz :     31.31s CPU     34.54s WALL (    1645 calls)
 
     PWSCF        :  2m33.58s CPU     2m53.54s WALL

 
   This run was terminated on:  19:30:49  17May2018            

=------------------------------------------------------------------------------=
   JOB DONE.
=------------------------------------------------------------------------------=
