
     Program PWSCF v.6.2 (svn rev. 14038) starts on 17May2018 at 19:30:50 

     This program is part of the open-source Quantum ESPRESSO suite
     for quantum simulation of materials; please cite
         "P. Giannozzi et al., J. Phys.:Condens. Matter 21 395502 (2009);
         "P. Giannozzi et al., J. Phys.:Condens. Matter 29 465901 (2017);
          URL http://www.quantum-espresso.org", 
     in publications or presentations arising from this work. More details at
     http://www.quantum-espresso.org/quote

     Parallel version (MPI), running on    28 processors

     MPI processes distributed on     1 nodes
     R & G space division:  proc/nbgrp/npool/nimage =      28
     Reading input from ../ecut400/4000.in
Warning: card &IONS ignored
Warning: card     POT_EXTRAPOLATION='SECOND-ORDER' ignored
Warning: card     WFC_EXTRAPOLATION='SECOND-ORDER' ignored
Warning: card     ION_TEMPERATURE = 'ANDERSEN' ignored
Warning: card / ignored

     Current dimensions of program PWSCF are:
     Max number of different atomic species (ntypx) = 10
     Max number of k-points (npk) =  40000
     Max angular momentum in pseudopotentials (lmaxx) =  3

     Subspace diagonalization in iterative solution of the eigenvalue problem:
     a serial algorithm will be used

 
     Parallelization info
     --------------------
     sticks:   dense  smooth     PW     G-vecs:    dense   smooth      PW
     Min        1819    1819    455               308823   308823   38597
     Max        1820    1820    456               308826   308826   38599
     Sum       50949   50949  12745              8647083  8647083 1080751
 


     bravais-lattice index     =            1
     lattice parameter (alat)  =      20.0000  a.u.
     unit-cell volume          =    8000.0000 (a.u.)^3
     number of atoms/cell      =            3
     number of atomic types    =            2
     number of electrons       =         8.00
     number of Kohn-Sham states=            8
     kinetic-energy cutoff     =     400.0000  Ry
     charge density cutoff     =    1600.0000  Ry
     convergence threshold     =      1.0E-08
     mixing beta               =       0.7000
     number of iterations used =            8  plain     mixing
     Exchange-correlation      = PBE ( 1  4  3  4 0 0)

     celldm(1)=  20.000000  celldm(2)=   0.000000  celldm(3)=   0.000000
     celldm(4)=   0.000000  celldm(5)=   0.000000  celldm(6)=   0.000000

     crystal axes: (cart. coord. in units of alat)
               a(1) = (   1.000000   0.000000   0.000000 )  
               a(2) = (   0.000000   1.000000   0.000000 )  
               a(3) = (   0.000000   0.000000   1.000000 )  

     reciprocal axes: (cart. coord. in units 2 pi/alat)
               b(1) = (  1.000000  0.000000  0.000000 )  
               b(2) = (  0.000000  1.000000  0.000000 )  
               b(3) = (  0.000000  0.000000  1.000000 )  


     PseudoPot. # 1 for H  read from file:
     ../pslibrary/pbe/PSEUDOPOTENTIALS/H.pbe-rrkjus_psl.1.0.0.UPF
     MD5 check sum: b2b1ff84b4ceabe23335d1bf25025923
     Pseudo is Ultrasoft, Zval =  1.0
     Generated using "atomic" code by A. Dal Corso v.6.2 svn rev. 14038
     Using radial grid of  929 points,  2 beta functions with: 
                l(1) =   0
                l(2) =   0
     Q(r) pseudized with 0 coefficients 


     PseudoPot. # 2 for O  read from file:
     ../pslibrary/pbe/PSEUDOPOTENTIALS/O.pbe-n-rrkjus_psl.1.0.0.UPF
     MD5 check sum: 61455b21a47f6823f888c3bfb9bd1235
     Pseudo is Ultrasoft + core correction, Zval =  6.0
     Generated using "atomic" code by A. Dal Corso v.6.2 svn rev. 14038
     Using radial grid of 1095 points,  4 beta functions with: 
                l(1) =   0
                l(2) =   0
                l(3) =   1
                l(4) =   1
     Q(r) pseudized with 0 coefficients 


     atomic species   valence    mass     pseudopotential
        H              1.00     1.01000     H ( 1.00)
        O              6.00    16.00000     O ( 1.00)

     No symmetry found



   Cartesian axes

     site n.     atom                  positions (alat units)
         1           O   tau(   1) = (  -0.0016941  -0.0018954  -0.0020678  )
         2           H   tau(   2) = (  -0.0105588  -0.0481291   0.0934797  )
         3           H   tau(   3) = (   0.0373965   0.0781554   0.0276420  )

     number of k points=     1  Marzari-Vanderbilt smearing, width (Ry)=  0.0250
                       cart. coord. in units 2pi/alat
        k(    1) = (   0.0000000   0.0000000   0.0000000), wk =   2.0000000

     Dense  grid:  8647083 G-vectors     FFT dimensions: ( 256, 256, 256)

     Estimated max dynamical RAM per process >     337.10 MB

     Estimated total dynamical RAM >       9.22 GB

     Initial potential from superposition of free atoms
     Check: negative starting charge=   -0.000146

     starting charge    7.99998, renormalised to    8.00000

     negative rho (up, down):  1.455E-04 0.000E+00
     Starting wfc are    6 randomized atomic wfcs +    2 random wfc

     total cpu time spent up to now is       13.2 secs

     Self-consistent Calculation

     iteration #  1     ecut=   400.00 Ry     beta= 0.70
     Davidson diagonalization with overlap
     ethr =  1.00E-02,  avg # of iterations =  7.0

     negative rho (up, down):  7.332E-05 0.000E+00

     total cpu time spent up to now is       20.4 secs

     total energy              =     -34.56079565 Ry
     Harris-Foulkes estimate   =     -34.87747063 Ry
     estimated scf accuracy    <       0.42910578 Ry

     iteration #  2     ecut=   400.00 Ry     beta= 0.70
     Davidson diagonalization with overlap
     ethr =  5.36E-03,  avg # of iterations =  3.0

     negative rho (up, down):  3.238E-05 0.000E+00

     total cpu time spent up to now is       26.2 secs

     total energy              =     -34.60623134 Ry
     Harris-Foulkes estimate   =     -34.91174745 Ry
     estimated scf accuracy    <       0.69924152 Ry

     iteration #  3     ecut=   400.00 Ry     beta= 0.70
     Davidson diagonalization with overlap
     ethr =  5.36E-03,  avg # of iterations =  1.0

     negative rho (up, down):  2.329E-06 0.000E+00

     total cpu time spent up to now is       31.4 secs

     total energy              =     -34.61897724 Ry
     Harris-Foulkes estimate   =     -34.67272929 Ry
     estimated scf accuracy    <       0.09881448 Ry

     iteration #  4     ecut=   400.00 Ry     beta= 0.70
     Davidson diagonalization with overlap
     ethr =  1.24E-03,  avg # of iterations =  3.0

     negative rho (up, down):  1.741E-07 0.000E+00

     total cpu time spent up to now is       37.3 secs

     total energy              =     -34.75038446 Ry
     Harris-Foulkes estimate   =     -34.81326513 Ry
     estimated scf accuracy    <       0.23304258 Ry

     iteration #  5     ecut=   400.00 Ry     beta= 0.70
     Davidson diagonalization with overlap
     ethr =  1.24E-03,  avg # of iterations =  1.0

     negative rho (up, down):  1.391E-07 0.000E+00

     total cpu time spent up to now is       42.7 secs

     total energy              =     -34.74491302 Ry
     Harris-Foulkes estimate   =     -34.75687025 Ry
     estimated scf accuracy    <       0.09552610 Ry

     iteration #  6     ecut=   400.00 Ry     beta= 0.70
     Davidson diagonalization with overlap
     ethr =  1.19E-03,  avg # of iterations =  1.0

     negative rho (up, down):  1.395E-07 0.000E+00

     total cpu time spent up to now is       48.1 secs

     total energy              =     -34.75046963 Ry
     Harris-Foulkes estimate   =     -34.75099185 Ry
     estimated scf accuracy    <       0.04494940 Ry

     iteration #  7     ecut=   400.00 Ry     beta= 0.70
     Davidson diagonalization with overlap
     ethr =  5.62E-04,  avg # of iterations =  1.0

     negative rho (up, down):  2.083E-07 0.000E+00

     total cpu time spent up to now is       53.6 secs

     total energy              =     -34.75437022 Ry
     Harris-Foulkes estimate   =     -34.75231060 Ry
     estimated scf accuracy    <       0.03653948 Ry

     iteration #  8     ecut=   400.00 Ry     beta= 0.70
     Davidson diagonalization with overlap
     ethr =  4.57E-04,  avg # of iterations =  1.0

     negative rho (up, down):  6.801E-07 0.000E+00

     total cpu time spent up to now is       59.1 secs

     total energy              =     -34.75160244 Ry
     Harris-Foulkes estimate   =     -34.75512480 Ry
     estimated scf accuracy    <       0.04045808 Ry

     iteration #  9     ecut=   400.00 Ry     beta= 0.70
     Davidson diagonalization with overlap
     ethr =  4.57E-04,  avg # of iterations =  1.0

     negative rho (up, down):  1.184E-06 0.000E+00

     total cpu time spent up to now is       64.8 secs

     total energy              =     -34.75139355 Ry
     Harris-Foulkes estimate   =     -34.75238716 Ry
     estimated scf accuracy    <       0.02933539 Ry

     iteration # 10     ecut=   400.00 Ry     beta= 0.70
     Davidson diagonalization with overlap
     ethr =  3.67E-04,  avg # of iterations =  1.0

     negative rho (up, down):  1.227E-04 0.000E+00

     total cpu time spent up to now is       70.3 secs

     total energy              =     -34.74641991 Ry
     Harris-Foulkes estimate   =     -34.75223137 Ry
     estimated scf accuracy    <       0.02316394 Ry

     iteration # 11     ecut=   400.00 Ry     beta= 0.70
     Davidson diagonalization with overlap
     ethr =  2.90E-04,  avg # of iterations =  1.0

     negative rho (up, down):  7.133E-05 0.000E+00

     total cpu time spent up to now is       75.9 secs

     total energy              =     -34.74689821 Ry
     Harris-Foulkes estimate   =     -34.74772423 Ry
     estimated scf accuracy    <       0.00847803 Ry

     iteration # 12     ecut=   400.00 Ry     beta= 0.70
     Davidson diagonalization with overlap
     ethr =  1.06E-04,  avg # of iterations = 10.0

     negative rho (up, down):  6.817E-05 0.000E+00

     total cpu time spent up to now is       83.4 secs

     total energy              =     -34.75077214 Ry
     Harris-Foulkes estimate   =     -34.75080271 Ry
     estimated scf accuracy    <       0.00030525 Ry

     iteration # 13     ecut=   400.00 Ry     beta= 0.70
     Davidson diagonalization with overlap
     ethr =  3.82E-06,  avg # of iterations = 14.0

     negative rho (up, down):  4.167E-05 0.000E+00

     total cpu time spent up to now is       91.0 secs

     total energy              =     -34.75073353 Ry
     Harris-Foulkes estimate   =     -34.75077852 Ry
     estimated scf accuracy    <       0.00021255 Ry

     iteration # 14     ecut=   400.00 Ry     beta= 0.70
     Davidson diagonalization with overlap
     ethr =  2.66E-06,  avg # of iterations =  1.0

     negative rho (up, down):  1.518E-05 0.000E+00

     total cpu time spent up to now is       96.6 secs

     total energy              =     -34.75075489 Ry
     Harris-Foulkes estimate   =     -34.75074212 Ry
     estimated scf accuracy    <       0.00009355 Ry

     iteration # 15     ecut=   400.00 Ry     beta= 0.70
     Davidson diagonalization with overlap
     ethr =  1.17E-06,  avg # of iterations =  4.0

     negative rho (up, down):  1.688E-05 0.000E+00

     total cpu time spent up to now is      104.0 secs

     total energy              =     -34.75096686 Ry
     Harris-Foulkes estimate   =     -34.75097497 Ry
     estimated scf accuracy    <       0.00088076 Ry

     iteration # 16     ecut=   400.00 Ry     beta= 0.70
     Davidson diagonalization with overlap
     ethr =  1.17E-06,  avg # of iterations =  1.0

     negative rho (up, down):  2.881E-05 0.000E+00

     total cpu time spent up to now is      109.6 secs

     total energy              =     -34.75092712 Ry
     Harris-Foulkes estimate   =     -34.75096706 Ry
     estimated scf accuracy    <       0.00086563 Ry

     iteration # 17     ecut=   400.00 Ry     beta= 0.70
     Davidson diagonalization with overlap
     ethr =  1.17E-06,  avg # of iterations =  1.0

     negative rho (up, down):  3.632E-05 0.000E+00

     total cpu time spent up to now is      115.2 secs

     total energy              =     -34.75077271 Ry
     Harris-Foulkes estimate   =     -34.75092927 Ry
     estimated scf accuracy    <       0.00076969 Ry

     iteration # 18     ecut=   400.00 Ry     beta= 0.70
     Davidson diagonalization with overlap
     ethr =  1.17E-06,  avg # of iterations =  3.0

     negative rho (up, down):  4.158E-05 0.000E+00

     total cpu time spent up to now is      121.0 secs

     total energy              =     -34.75070223 Ry
     Harris-Foulkes estimate   =     -34.75079345 Ry
     estimated scf accuracy    <       0.00033022 Ry

     iteration # 19     ecut=   400.00 Ry     beta= 0.70
     Davidson diagonalization with overlap
     ethr =  1.17E-06,  avg # of iterations =  3.0

     negative rho (up, down):  5.871E-05 0.000E+00

     total cpu time spent up to now is      127.8 secs

     total energy              =     -34.75072838 Ry
     Harris-Foulkes estimate   =     -34.75074705 Ry
     estimated scf accuracy    <       0.00003197 Ry

     iteration # 20     ecut=   400.00 Ry     beta= 0.70
     Davidson diagonalization with overlap
     ethr =  4.00E-07,  avg # of iterations =  4.0

     negative rho (up, down):  5.982E-05 0.000E+00

     total cpu time spent up to now is      134.6 secs

     total energy              =     -34.75075634 Ry
     Harris-Foulkes estimate   =     -34.75075183 Ry
     estimated scf accuracy    <       0.00002874 Ry

     iteration # 21     ecut=   400.00 Ry     beta= 0.70
     Davidson diagonalization with overlap
     ethr =  3.59E-07,  avg # of iterations =  3.0

     negative rho (up, down):  5.777E-05 0.000E+00

     total cpu time spent up to now is      140.8 secs

     total energy              =     -34.75075354 Ry
     Harris-Foulkes estimate   =     -34.75076205 Ry
     estimated scf accuracy    <       0.00006282 Ry

     iteration # 22     ecut=   400.00 Ry     beta= 0.70
     Davidson diagonalization with overlap
     ethr =  3.59E-07,  avg # of iterations =  1.0

     negative rho (up, down):  5.188E-05 0.000E+00

     total cpu time spent up to now is      147.6 secs

     total energy              =     -34.75072997 Ry
     Harris-Foulkes estimate   =     -34.75075390 Ry
     estimated scf accuracy    <       0.00004384 Ry

     iteration # 23     ecut=   400.00 Ry     beta= 0.70
     Davidson diagonalization with overlap
     ethr =  3.59E-07,  avg # of iterations =  5.0

     negative rho (up, down):  5.352E-05 0.000E+00

     total cpu time spent up to now is      154.3 secs

     total energy              =     -34.75074174 Ry
     Harris-Foulkes estimate   =     -34.75074246 Ry
     estimated scf accuracy    <       0.00000232 Ry

     iteration # 24     ecut=   400.00 Ry     beta= 0.70
     Davidson diagonalization with overlap
     ethr =  2.90E-08,  avg # of iterations =  4.0

     negative rho (up, down):  5.436E-05 0.000E+00

     total cpu time spent up to now is      161.2 secs

     total energy              =     -34.75074364 Ry
     Harris-Foulkes estimate   =     -34.75074483 Ry
     estimated scf accuracy    <       0.00000387 Ry

     iteration # 25     ecut=   400.00 Ry     beta= 0.70
     Davidson diagonalization with overlap
     ethr =  2.90E-08,  avg # of iterations =  3.0

     negative rho (up, down):  5.476E-05 0.000E+00

     total cpu time spent up to now is      167.8 secs

     total energy              =     -34.75074388 Ry
     Harris-Foulkes estimate   =     -34.75074399 Ry
     estimated scf accuracy    <       0.00000071 Ry

     iteration # 26     ecut=   400.00 Ry     beta= 0.70
     Davidson diagonalization with overlap
     ethr =  8.82E-09,  avg # of iterations =  3.0

     negative rho (up, down):  5.484E-05 0.000E+00

     total cpu time spent up to now is      174.7 secs

     total energy              =     -34.75074412 Ry
     Harris-Foulkes estimate   =     -34.75074411 Ry
     estimated scf accuracy    <       0.00000006 Ry

     iteration # 27     ecut=   400.00 Ry     beta= 0.70
     Davidson diagonalization with overlap
     ethr =  8.04E-10,  avg # of iterations =  1.0

     negative rho (up, down):  5.515E-05 0.000E+00

     total cpu time spent up to now is      181.0 secs

     total energy              =     -34.75074414 Ry
     Harris-Foulkes estimate   =     -34.75074413 Ry
     estimated scf accuracy    <       0.00000009 Ry

     iteration # 28     ecut=   400.00 Ry     beta= 0.70
     Davidson diagonalization with overlap
     ethr =  8.04E-10,  avg # of iterations =  2.0

     negative rho (up, down):  5.528E-05 0.000E+00

     total cpu time spent up to now is      187.4 secs

     total energy              =     -34.75074411 Ry
     Harris-Foulkes estimate   =     -34.75074415 Ry
     estimated scf accuracy    <       0.00000016 Ry

     iteration # 29     ecut=   400.00 Ry     beta= 0.70
     Davidson diagonalization with overlap
     ethr =  8.04E-10,  avg # of iterations =  1.0

     negative rho (up, down):  5.546E-05 0.000E+00

     total cpu time spent up to now is      194.2 secs

     total energy              =     -34.75074408 Ry
     Harris-Foulkes estimate   =     -34.75074411 Ry
     estimated scf accuracy    <       0.00000005 Ry

     iteration # 30     ecut=   400.00 Ry     beta= 0.70
     Davidson diagonalization with overlap
     ethr =  6.79E-10,  avg # of iterations =  4.0

     negative rho (up, down):  5.542E-05 0.000E+00

     total cpu time spent up to now is      199.5 secs

     End of self-consistent calculation

          k = 0.0000 0.0000 0.0000 (****** PWs)   bands (ev):

   -24.4831 -11.8864  -9.4352  -6.9935  -1.3306   0.1961   0.5040   0.9868

     the Fermi energy is    -5.0405 ev

!    total energy              =     -34.75074410 Ry
     Harris-Foulkes estimate   =     -34.75074411 Ry
     estimated scf accuracy    <          7.9E-09 Ry

     The total energy is the sum of the following terms:

     one-electron contribution =     -62.45345760 Ry
     hartree contribution      =      32.77102387 Ry
     xc contribution           =      -8.70667351 Ry
     ewald contribution        =       3.63836314 Ry
     smearing contrib. (-TS)   =       0.00000000 Ry

     convergence has been achieved in  30 iterations

     Writing output data file pwscf.save
 
     init_run     :     11.16s CPU     11.81s WALL (       1 calls)
     electrons    :    166.37s CPU    186.96s WALL (       1 calls)

     Called by init_run:
     wfcinit      :      0.81s CPU      0.97s WALL (       1 calls)
     potinit      :      1.63s CPU      1.73s WALL (       1 calls)

     Called by electrons:
     c_bands      :     62.71s CPU     65.02s WALL (      30 calls)
     sum_band     :     41.07s CPU     44.42s WALL (      30 calls)
     v_of_rho     :     30.66s CPU     32.06s WALL (      31 calls)
     newd         :     14.88s CPU     17.97s WALL (      31 calls)
     mix_rho      :     16.72s CPU     26.70s WALL (      30 calls)

     Called by c_bands:
     init_us_2    :      0.76s CPU      0.81s WALL (      61 calls)
     cegterg      :     61.49s CPU     63.64s WALL (      30 calls)

     Called by sum_band:
     sum_band:bec :      0.00s CPU      0.00s WALL (      30 calls)
     addusdens    :     22.43s CPU     24.94s WALL (      30 calls)

     Called by *egterg:
     h_psi        :     57.77s CPU     59.87s WALL (     120 calls)
     s_psi        :      0.37s CPU      0.37s WALL (     120 calls)
     g_psi        :      0.12s CPU      0.12s WALL (      89 calls)
     cdiaghg      :      0.18s CPU      0.19s WALL (     119 calls)

     Called by h_psi:
     h_psi:pot    :     57.44s CPU     59.53s WALL (     120 calls)
     h_psi:calbec :      0.74s CPU      0.77s WALL (     120 calls)
     vloc_psi     :     56.35s CPU     58.41s WALL (     120 calls)
     add_vuspsi   :      0.35s CPU      0.35s WALL (     120 calls)

     General routines
     calbec       :      1.14s CPU      1.19s WALL (     150 calls)
     fft          :     38.19s CPU     40.41s WALL (     402 calls)
     fftw         :     62.07s CPU     64.44s WALL (    1448 calls)
     davcio       :      1.42s CPU     10.47s WALL (     507 calls)
 
     Parallel routines
     fft_scatt_xy :     12.59s CPU     12.67s WALL (    1850 calls)
     fft_scatt_yz :     40.58s CPU     44.70s WALL (    1850 calls)
 
     PWSCF        :  2m59.35s CPU     3m22.26s WALL

 
   This run was terminated on:  19:34:12  17May2018            

=------------------------------------------------------------------------------=
   JOB DONE.
=------------------------------------------------------------------------------=
