
     Program PWSCF v.6.2 (svn rev. 14038) starts on 17May2018 at 19:44: 1 

     This program is part of the open-source Quantum ESPRESSO suite
     for quantum simulation of materials; please cite
         "P. Giannozzi et al., J. Phys.:Condens. Matter 21 395502 (2009);
         "P. Giannozzi et al., J. Phys.:Condens. Matter 29 465901 (2017);
          URL http://www.quantum-espresso.org", 
     in publications or presentations arising from this work. More details at
     http://www.quantum-espresso.org/quote

     Parallel version (MPI), running on    28 processors

     MPI processes distributed on     1 nodes
     R & G space division:  proc/nbgrp/npool/nimage =      28
     Reading input from ../ecut400/6000.in
Warning: card &IONS ignored
Warning: card     POT_EXTRAPOLATION='SECOND-ORDER' ignored
Warning: card     WFC_EXTRAPOLATION='SECOND-ORDER' ignored
Warning: card     ION_TEMPERATURE = 'ANDERSEN' ignored
Warning: card / ignored

     Current dimensions of program PWSCF are:
     Max number of different atomic species (ntypx) = 10
     Max number of k-points (npk) =  40000
     Max angular momentum in pseudopotentials (lmaxx) =  3

     Subspace diagonalization in iterative solution of the eigenvalue problem:
     a serial algorithm will be used

 
     Parallelization info
     --------------------
     sticks:   dense  smooth     PW     G-vecs:    dense   smooth      PW
     Min        1819    1819    455               308823   308823   38597
     Max        1820    1820    456               308826   308826   38599
     Sum       50949   50949  12745              8647083  8647083 1080751
 


     bravais-lattice index     =            1
     lattice parameter (alat)  =      20.0000  a.u.
     unit-cell volume          =    8000.0000 (a.u.)^3
     number of atoms/cell      =            3
     number of atomic types    =            2
     number of electrons       =         8.00
     number of Kohn-Sham states=            8
     kinetic-energy cutoff     =     400.0000  Ry
     charge density cutoff     =    1600.0000  Ry
     convergence threshold     =      1.0E-08
     mixing beta               =       0.7000
     number of iterations used =            8  plain     mixing
     Exchange-correlation      = PBE ( 1  4  3  4 0 0)

     celldm(1)=  20.000000  celldm(2)=   0.000000  celldm(3)=   0.000000
     celldm(4)=   0.000000  celldm(5)=   0.000000  celldm(6)=   0.000000

     crystal axes: (cart. coord. in units of alat)
               a(1) = (   1.000000   0.000000   0.000000 )  
               a(2) = (   0.000000   1.000000   0.000000 )  
               a(3) = (   0.000000   0.000000   1.000000 )  

     reciprocal axes: (cart. coord. in units 2 pi/alat)
               b(1) = (  1.000000  0.000000  0.000000 )  
               b(2) = (  0.000000  1.000000  0.000000 )  
               b(3) = (  0.000000  0.000000  1.000000 )  


     PseudoPot. # 1 for H  read from file:
     ../pslibrary/pbe/PSEUDOPOTENTIALS/H.pbe-rrkjus_psl.1.0.0.UPF
     MD5 check sum: b2b1ff84b4ceabe23335d1bf25025923
     Pseudo is Ultrasoft, Zval =  1.0
     Generated using "atomic" code by A. Dal Corso v.6.2 svn rev. 14038
     Using radial grid of  929 points,  2 beta functions with: 
                l(1) =   0
                l(2) =   0
     Q(r) pseudized with 0 coefficients 


     PseudoPot. # 2 for O  read from file:
     ../pslibrary/pbe/PSEUDOPOTENTIALS/O.pbe-n-rrkjus_psl.1.0.0.UPF
     MD5 check sum: 61455b21a47f6823f888c3bfb9bd1235
     Pseudo is Ultrasoft + core correction, Zval =  6.0
     Generated using "atomic" code by A. Dal Corso v.6.2 svn rev. 14038
     Using radial grid of 1095 points,  4 beta functions with: 
                l(1) =   0
                l(2) =   0
                l(3) =   1
                l(4) =   1
     Q(r) pseudized with 0 coefficients 


     atomic species   valence    mass     pseudopotential
        H              1.00     1.01000     H ( 1.00)
        O              6.00    16.00000     O ( 1.00)

     No symmetry found



   Cartesian axes

     site n.     atom                  positions (alat units)
         1           O   tau(   1) = (  -0.0059508  -0.0015653   0.0002848  )
         2           H   tau(   2) = (   0.0621926   0.0329549  -0.0595298  )
         3           H   tau(   3) = (   0.0320785  -0.0081595   0.1433831  )

     number of k points=     1  Marzari-Vanderbilt smearing, width (Ry)=  0.0250
                       cart. coord. in units 2pi/alat
        k(    1) = (   0.0000000   0.0000000   0.0000000), wk =   2.0000000

     Dense  grid:  8647083 G-vectors     FFT dimensions: ( 256, 256, 256)

     Estimated max dynamical RAM per process >     337.10 MB

     Estimated total dynamical RAM >       9.22 GB

     Initial potential from superposition of free atoms
     Check: negative starting charge=   -0.000138

     starting charge    7.99998, renormalised to    8.00000

     negative rho (up, down):  1.379E-04 0.000E+00
     Starting wfc are    6 randomized atomic wfcs +    2 random wfc

     total cpu time spent up to now is       13.0 secs

     Self-consistent Calculation

     iteration #  1     ecut=   400.00 Ry     beta= 0.70
     Davidson diagonalization with overlap
     ethr =  1.00E-02,  avg # of iterations =  7.0

     negative rho (up, down):  6.671E-05 0.000E+00

     total cpu time spent up to now is       20.1 secs

     total energy              =     -34.24379562 Ry
     Harris-Foulkes estimate   =     -34.69496175 Ry
     estimated scf accuracy    <       0.59979835 Ry

     iteration #  2     ecut=   400.00 Ry     beta= 0.70
     Davidson diagonalization with overlap
     ethr =  7.50E-03,  avg # of iterations =  3.0

     negative rho (up, down):  7.452E-06 0.000E+00

     total cpu time spent up to now is       25.8 secs

     total energy              =     -34.16316988 Ry
     Harris-Foulkes estimate   =     -35.02719217 Ry
     estimated scf accuracy    <       2.57975673 Ry

     iteration #  3     ecut=   400.00 Ry     beta= 0.70
     Davidson diagonalization with overlap
     ethr =  7.50E-03,  avg # of iterations =  1.0

     negative rho (up, down):  1.548E-07 0.000E+00

     total cpu time spent up to now is       31.2 secs

     total energy              =     -34.39417690 Ry
     Harris-Foulkes estimate   =     -34.41680296 Ry
     estimated scf accuracy    <       0.17293143 Ry

     iteration #  4     ecut=   400.00 Ry     beta= 0.70
     Davidson diagonalization with overlap
     ethr =  2.16E-03,  avg # of iterations =  3.0

     negative rho (up, down):  2.197E-07 0.000E+00

     total cpu time spent up to now is       37.3 secs

     total energy              =     -34.54812448 Ry
     Harris-Foulkes estimate   =     -34.56083761 Ry
     estimated scf accuracy    <       0.04295902 Ry

     iteration #  5     ecut=   400.00 Ry     beta= 0.70
     Davidson diagonalization with overlap
     ethr =  5.37E-04,  avg # of iterations =  2.0

     negative rho (up, down):  7.147E-07 0.000E+00

     total cpu time spent up to now is       42.9 secs

     total energy              =     -34.55146847 Ry
     Harris-Foulkes estimate   =     -34.55137344 Ry
     estimated scf accuracy    <       0.00455175 Ry

     iteration #  6     ecut=   400.00 Ry     beta= 0.70
     Davidson diagonalization with overlap
     ethr =  5.69E-05,  avg # of iterations = 11.0

     negative rho (up, down):  8.080E-07 0.000E+00

     total cpu time spent up to now is       50.3 secs

     total energy              =     -34.55138338 Ry
     Harris-Foulkes estimate   =     -34.55199200 Ry
     estimated scf accuracy    <       0.00575734 Ry

     iteration #  7     ecut=   400.00 Ry     beta= 0.70
     Davidson diagonalization with overlap
     ethr =  5.69E-05,  avg # of iterations =  1.0

     negative rho (up, down):  1.510E-06 0.000E+00

     total cpu time spent up to now is       55.8 secs

     total energy              =     -34.55121209 Ry
     Harris-Foulkes estimate   =     -34.55151665 Ry
     estimated scf accuracy    <       0.00330988 Ry

     iteration #  8     ecut=   400.00 Ry     beta= 0.70
     Davidson diagonalization with overlap
     ethr =  4.14E-05,  avg # of iterations =  1.0

     negative rho (up, down):  1.704E-06 0.000E+00

     total cpu time spent up to now is       61.4 secs

     total energy              =     -34.55126482 Ry
     Harris-Foulkes estimate   =     -34.55131226 Ry
     estimated scf accuracy    <       0.00223448 Ry

     iteration #  9     ecut=   400.00 Ry     beta= 0.70
     Davidson diagonalization with overlap
     ethr =  2.79E-05,  avg # of iterations =  1.0

     negative rho (up, down):  1.640E-06 0.000E+00

     total cpu time spent up to now is       67.0 secs

     total energy              =     -34.55134826 Ry
     Harris-Foulkes estimate   =     -34.55135061 Ry
     estimated scf accuracy    <       0.00163966 Ry

     iteration # 10     ecut=   400.00 Ry     beta= 0.70
     Davidson diagonalization with overlap
     ethr =  2.05E-05,  avg # of iterations =  1.0

     negative rho (up, down):  1.784E-06 0.000E+00

     total cpu time spent up to now is       72.6 secs

     total energy              =     -34.55135191 Ry
     Harris-Foulkes estimate   =     -34.55139197 Ry
     estimated scf accuracy    <       0.00151959 Ry

     iteration # 11     ecut=   400.00 Ry     beta= 0.70
     Davidson diagonalization with overlap
     ethr =  1.90E-05,  avg # of iterations =  1.0

     negative rho (up, down):  2.421E-06 0.000E+00

     total cpu time spent up to now is       78.3 secs

     total energy              =     -34.55130921 Ry
     Harris-Foulkes estimate   =     -34.55138006 Ry
     estimated scf accuracy    <       0.00119305 Ry

     iteration # 12     ecut=   400.00 Ry     beta= 0.70
     Davidson diagonalization with overlap
     ethr =  1.49E-05,  avg # of iterations =  1.0

     negative rho (up, down):  4.683E-05 0.000E+00

     total cpu time spent up to now is       83.9 secs

     total energy              =     -34.55100936 Ry
     Harris-Foulkes estimate   =     -34.55134126 Ry
     estimated scf accuracy    <       0.00087844 Ry

     iteration # 13     ecut=   400.00 Ry     beta= 0.70
     Davidson diagonalization with overlap
     ethr =  1.10E-05,  avg # of iterations =  3.0

     negative rho (up, down):  4.268E-05 0.000E+00

     total cpu time spent up to now is       89.8 secs

     total energy              =     -34.55126389 Ry
     Harris-Foulkes estimate   =     -34.55127930 Ry
     estimated scf accuracy    <       0.00007352 Ry

     iteration # 14     ecut=   400.00 Ry     beta= 0.70
     Davidson diagonalization with overlap
     ethr =  9.19E-07,  avg # of iterations =  9.0

     negative rho (up, down):  4.344E-05 0.000E+00

     total cpu time spent up to now is       97.3 secs

     total energy              =     -34.55132052 Ry
     Harris-Foulkes estimate   =     -34.55132002 Ry
     estimated scf accuracy    <       0.00010826 Ry

     iteration # 15     ecut=   400.00 Ry     beta= 0.70
     Davidson diagonalization with overlap
     ethr =  9.19E-07,  avg # of iterations =  1.0

     negative rho (up, down):  4.547E-05 0.000E+00

     total cpu time spent up to now is      102.9 secs

     total energy              =     -34.55131018 Ry
     Harris-Foulkes estimate   =     -34.55132062 Ry
     estimated scf accuracy    <       0.00011106 Ry

     iteration # 16     ecut=   400.00 Ry     beta= 0.70
     Davidson diagonalization with overlap
     ethr =  9.19E-07,  avg # of iterations =  1.0

     negative rho (up, down):  4.468E-05 0.000E+00

     total cpu time spent up to now is      108.6 secs

     total energy              =     -34.55129894 Ry
     Harris-Foulkes estimate   =     -34.55131067 Ry
     estimated scf accuracy    <       0.00008963 Ry

     iteration # 17     ecut=   400.00 Ry     beta= 0.70
     Davidson diagonalization with overlap
     ethr =  9.19E-07,  avg # of iterations =  1.0

     negative rho (up, down):  4.374E-05 0.000E+00

     total cpu time spent up to now is      114.3 secs

     total energy              =     -34.55128986 Ry
     Harris-Foulkes estimate   =     -34.55129978 Ry
     estimated scf accuracy    <       0.00005800 Ry

     iteration # 18     ecut=   400.00 Ry     beta= 0.70
     Davidson diagonalization with overlap
     ethr =  7.25E-07,  avg # of iterations =  1.0

     negative rho (up, down):  4.383E-05 0.000E+00

     total cpu time spent up to now is      119.9 secs

     total energy              =     -34.55128229 Ry
     Harris-Foulkes estimate   =     -34.55129201 Ry
     estimated scf accuracy    <       0.00002447 Ry

     iteration # 19     ecut=   400.00 Ry     beta= 0.70
     Davidson diagonalization with overlap
     ethr =  3.06E-07,  avg # of iterations =  3.0

     negative rho (up, down):  4.665E-05 0.000E+00

     total cpu time spent up to now is      125.9 secs

     total energy              =     -34.55128919 Ry
     Harris-Foulkes estimate   =     -34.55129035 Ry
     estimated scf accuracy    <       0.00000391 Ry

     iteration # 20     ecut=   400.00 Ry     beta= 0.70
     Davidson diagonalization with overlap
     ethr =  4.89E-08,  avg # of iterations =  1.0

     negative rho (up, down):  4.797E-05 0.000E+00

     total cpu time spent up to now is      131.5 secs

     total energy              =     -34.55128905 Ry
     Harris-Foulkes estimate   =     -34.55128939 Ry
     estimated scf accuracy    <       0.00000089 Ry

     iteration # 21     ecut=   400.00 Ry     beta= 0.70
     Davidson diagonalization with overlap
     ethr =  1.12E-08,  avg # of iterations =  3.0

     negative rho (up, down):  4.781E-05 0.000E+00

     total cpu time spent up to now is      137.9 secs

     total energy              =     -34.55128974 Ry
     Harris-Foulkes estimate   =     -34.55129021 Ry
     estimated scf accuracy    <       0.00000306 Ry

     iteration # 22     ecut=   400.00 Ry     beta= 0.70
     Davidson diagonalization with overlap
     ethr =  1.12E-08,  avg # of iterations =  1.0

     negative rho (up, down):  4.786E-05 0.000E+00

     total cpu time spent up to now is      143.6 secs

     total energy              =     -34.55128874 Ry
     Harris-Foulkes estimate   =     -34.55128977 Ry
     estimated scf accuracy    <       0.00000189 Ry

     iteration # 23     ecut=   400.00 Ry     beta= 0.70
     Davidson diagonalization with overlap
     ethr =  1.12E-08,  avg # of iterations =  3.0

     negative rho (up, down):  4.766E-05 0.000E+00

     total cpu time spent up to now is      149.9 secs

     total energy              =     -34.55128936 Ry
     Harris-Foulkes estimate   =     -34.55128957 Ry
     estimated scf accuracy    <       0.00000065 Ry

     iteration # 24     ecut=   400.00 Ry     beta= 0.70
     Davidson diagonalization with overlap
     ethr =  8.07E-09,  avg # of iterations =  1.0

     negative rho (up, down):  4.761E-05 0.000E+00

     total cpu time spent up to now is      155.5 secs

     total energy              =     -34.55128932 Ry
     Harris-Foulkes estimate   =     -34.55128938 Ry
     estimated scf accuracy    <       0.00000017 Ry

     iteration # 25     ecut=   400.00 Ry     beta= 0.70
     Davidson diagonalization with overlap
     ethr =  2.16E-09,  avg # of iterations =  2.0

     negative rho (up, down):  4.759E-05 0.000E+00

     total cpu time spent up to now is      161.7 secs

     total energy              =     -34.55128941 Ry
     Harris-Foulkes estimate   =     -34.55128941 Ry
     estimated scf accuracy    <       0.00000002 Ry

     iteration # 26     ecut=   400.00 Ry     beta= 0.70
     Davidson diagonalization with overlap
     ethr =  2.96E-10,  avg # of iterations =  1.0

     negative rho (up, down):  4.760E-05 0.000E+00

     total cpu time spent up to now is      167.4 secs

     total energy              =     -34.55128941 Ry
     Harris-Foulkes estimate   =     -34.55128941 Ry
     estimated scf accuracy    <       0.00000002 Ry

     iteration # 27     ecut=   400.00 Ry     beta= 0.70
     Davidson diagonalization with overlap
     ethr =  2.71E-10,  avg # of iterations =  1.0

     negative rho (up, down):  4.761E-05 0.000E+00

     total cpu time spent up to now is      173.0 secs

     total energy              =     -34.55128940 Ry
     Harris-Foulkes estimate   =     -34.55128941 Ry
     estimated scf accuracy    <       0.00000001 Ry

     iteration # 28     ecut=   400.00 Ry     beta= 0.70
     Davidson diagonalization with overlap
     ethr =  1.35E-10,  avg # of iterations =  2.0

     negative rho (up, down):  4.761E-05 0.000E+00

     total cpu time spent up to now is      177.7 secs

     End of self-consistent calculation

          k = 0.0000 0.0000 0.0000 (****** PWs)   bands (ev):

   -23.3593 -11.0502  -8.3106  -6.6466  -3.9349  -0.3641   0.3593   0.9277

     the Fermi energy is    -6.3333 ev

!    total energy              =     -34.55128940 Ry
     Harris-Foulkes estimate   =     -34.55128941 Ry
     estimated scf accuracy    <          3.0E-09 Ry

     The total energy is the sum of the following terms:

     one-electron contribution =     -58.81276256 Ry
     hartree contribution      =      31.04658768 Ry
     xc contribution           =      -8.46990307 Ry
     ewald contribution        =       1.68071108 Ry
     smearing contrib. (-TS)   =       0.00407747 Ry

     convergence has been achieved in  28 iterations

     Writing output data file pwscf.save
 
     init_run     :     11.04s CPU     11.60s WALL (       1 calls)
     electrons    :    148.37s CPU    165.32s WALL (       1 calls)

     Called by init_run:
     wfcinit      :      0.85s CPU      0.92s WALL (       1 calls)
     potinit      :      1.63s CPU      1.72s WALL (       1 calls)

     Called by electrons:
     c_bands      :     53.18s CPU     54.90s WALL (      28 calls)
     sum_band     :     37.50s CPU     40.21s WALL (      28 calls)
     v_of_rho     :     27.83s CPU     28.92s WALL (      29 calls)
     newd         :     13.66s CPU     16.58s WALL (      29 calls)
     mix_rho      :     16.30s CPU     24.46s WALL (      28 calls)

     Called by c_bands:
     init_us_2    :      0.73s CPU      0.76s WALL (      57 calls)
     cegterg      :     52.14s CPU     53.77s WALL (      28 calls)

     Called by sum_band:
     sum_band:bec :      0.00s CPU      0.00s WALL (      28 calls)
     addusdens    :     20.98s CPU     23.09s WALL (      28 calls)

     Called by *egterg:
     h_psi        :     49.69s CPU     51.28s WALL (      96 calls)
     s_psi        :      0.33s CPU      0.33s WALL (      96 calls)
     g_psi        :      0.11s CPU      0.11s WALL (      67 calls)
     cdiaghg      :      0.02s CPU      0.02s WALL (      95 calls)

     Called by h_psi:
     h_psi:pot    :     49.38s CPU     50.97s WALL (      96 calls)
     h_psi:calbec :      0.40s CPU      0.42s WALL (      96 calls)
     vloc_psi     :     48.69s CPU     50.26s WALL (      96 calls)
     add_vuspsi   :      0.29s CPU      0.30s WALL (      96 calls)

     General routines
     calbec       :      0.65s CPU      0.68s WALL (     124 calls)
     fft          :     34.84s CPU     36.62s WALL (     376 calls)
     fftw         :     53.60s CPU     55.44s WALL (    1312 calls)
     davcio       :      1.30s CPU      8.59s WALL (     467 calls)
 
     Parallel routines
     fft_scatt_xy :     11.66s CPU     11.69s WALL (    1688 calls)
     fft_scatt_yz :     33.50s CPU     36.87s WALL (    1688 calls)
 
     PWSCF        :  2m41.13s CPU     3m 0.63s WALL

 
   This run was terminated on:  19:47: 2  17May2018            

=------------------------------------------------------------------------------=
   JOB DONE.
=------------------------------------------------------------------------------=
