
     Program PWSCF v.6.2 (svn rev. 14038) starts on 17May2018 at 20: 1:36 

     This program is part of the open-source Quantum ESPRESSO suite
     for quantum simulation of materials; please cite
         "P. Giannozzi et al., J. Phys.:Condens. Matter 21 395502 (2009);
         "P. Giannozzi et al., J. Phys.:Condens. Matter 29 465901 (2017);
          URL http://www.quantum-espresso.org", 
     in publications or presentations arising from this work. More details at
     http://www.quantum-espresso.org/quote

     Parallel version (MPI), running on    28 processors

     MPI processes distributed on     1 nodes
     R & G space division:  proc/nbgrp/npool/nimage =      28
     Reading input from ../ecut400/9500.in
Warning: card &IONS ignored
Warning: card     POT_EXTRAPOLATION='SECOND-ORDER' ignored
Warning: card     WFC_EXTRAPOLATION='SECOND-ORDER' ignored
Warning: card     ION_TEMPERATURE = 'ANDERSEN' ignored
Warning: card / ignored

     Current dimensions of program PWSCF are:
     Max number of different atomic species (ntypx) = 10
     Max number of k-points (npk) =  40000
     Max angular momentum in pseudopotentials (lmaxx) =  3

     Subspace diagonalization in iterative solution of the eigenvalue problem:
     a serial algorithm will be used

 
     Parallelization info
     --------------------
     sticks:   dense  smooth     PW     G-vecs:    dense   smooth      PW
     Min        1819    1819    455               308823   308823   38597
     Max        1820    1820    456               308826   308826   38599
     Sum       50949   50949  12745              8647083  8647083 1080751
 


     bravais-lattice index     =            1
     lattice parameter (alat)  =      20.0000  a.u.
     unit-cell volume          =    8000.0000 (a.u.)^3
     number of atoms/cell      =            3
     number of atomic types    =            2
     number of electrons       =         8.00
     number of Kohn-Sham states=            8
     kinetic-energy cutoff     =     400.0000  Ry
     charge density cutoff     =    1600.0000  Ry
     convergence threshold     =      1.0E-08
     mixing beta               =       0.7000
     number of iterations used =            8  plain     mixing
     Exchange-correlation      = PBE ( 1  4  3  4 0 0)

     celldm(1)=  20.000000  celldm(2)=   0.000000  celldm(3)=   0.000000
     celldm(4)=   0.000000  celldm(5)=   0.000000  celldm(6)=   0.000000

     crystal axes: (cart. coord. in units of alat)
               a(1) = (   1.000000   0.000000   0.000000 )  
               a(2) = (   0.000000   1.000000   0.000000 )  
               a(3) = (   0.000000   0.000000   1.000000 )  

     reciprocal axes: (cart. coord. in units 2 pi/alat)
               b(1) = (  1.000000  0.000000  0.000000 )  
               b(2) = (  0.000000  1.000000  0.000000 )  
               b(3) = (  0.000000  0.000000  1.000000 )  


     PseudoPot. # 1 for H  read from file:
     ../pslibrary/pbe/PSEUDOPOTENTIALS/H.pbe-rrkjus_psl.1.0.0.UPF
     MD5 check sum: b2b1ff84b4ceabe23335d1bf25025923
     Pseudo is Ultrasoft, Zval =  1.0
     Generated using "atomic" code by A. Dal Corso v.6.2 svn rev. 14038
     Using radial grid of  929 points,  2 beta functions with: 
                l(1) =   0
                l(2) =   0
     Q(r) pseudized with 0 coefficients 


     PseudoPot. # 2 for O  read from file:
     ../pslibrary/pbe/PSEUDOPOTENTIALS/O.pbe-n-rrkjus_psl.1.0.0.UPF
     MD5 check sum: 61455b21a47f6823f888c3bfb9bd1235
     Pseudo is Ultrasoft + core correction, Zval =  6.0
     Generated using "atomic" code by A. Dal Corso v.6.2 svn rev. 14038
     Using radial grid of 1095 points,  4 beta functions with: 
                l(1) =   0
                l(2) =   0
                l(3) =   1
                l(4) =   1
     Q(r) pseudized with 0 coefficients 


     atomic species   valence    mass     pseudopotential
        H              1.00     1.01000     H ( 1.00)
        O              6.00    16.00000     O ( 1.00)

     No symmetry found



   Cartesian axes

     site n.     atom                  positions (alat units)
         1           O   tau(   1) = (   0.0015214   0.0051135   0.0075320  )
         2           H   tau(   2) = (  -0.0350339   0.0044770  -0.0958283  )
         3           H   tau(   3) = (   0.0109318  -0.0854833   0.0648736  )

     number of k points=     1  Marzari-Vanderbilt smearing, width (Ry)=  0.0250
                       cart. coord. in units 2pi/alat
        k(    1) = (   0.0000000   0.0000000   0.0000000), wk =   2.0000000

     Dense  grid:  8647083 G-vectors     FFT dimensions: ( 256, 256, 256)

     Estimated max dynamical RAM per process >     337.10 MB

     Estimated total dynamical RAM >       9.22 GB

     Initial potential from superposition of free atoms
     Check: negative starting charge=   -0.000142

     starting charge    7.99998, renormalised to    8.00000

     negative rho (up, down):  1.418E-04 0.000E+00
     Starting wfc are    6 randomized atomic wfcs +    2 random wfc

     total cpu time spent up to now is       12.9 secs

     Self-consistent Calculation

     iteration #  1     ecut=   400.00 Ry     beta= 0.70
     Davidson diagonalization with overlap
     ethr =  1.00E-02,  avg # of iterations =  7.0

     negative rho (up, down):  7.067E-05 0.000E+00

     total cpu time spent up to now is       20.2 secs

     total energy              =     -34.48730239 Ry
     Harris-Foulkes estimate   =     -34.80804217 Ry
     estimated scf accuracy    <       0.43348070 Ry

     iteration #  2     ecut=   400.00 Ry     beta= 0.70
     Davidson diagonalization with overlap
     ethr =  5.42E-03,  avg # of iterations =  3.0

     negative rho (up, down):  3.462E-05 0.000E+00

     total cpu time spent up to now is       26.0 secs

     total energy              =     -34.50091755 Ry
     Harris-Foulkes estimate   =     -34.87808107 Ry
     estimated scf accuracy    <       0.91772546 Ry

     iteration #  3     ecut=   400.00 Ry     beta= 0.70
     Davidson diagonalization with overlap
     ethr =  5.42E-03,  avg # of iterations =  1.0

     negative rho (up, down):  2.542E-08 0.000E+00

     total cpu time spent up to now is       31.3 secs

     total energy              =     -34.51834657 Ry
     Harris-Foulkes estimate   =     -34.58428152 Ry
     estimated scf accuracy    <       0.13774751 Ry

     iteration #  4     ecut=   400.00 Ry     beta= 0.70
     Davidson diagonalization with overlap
     ethr =  1.72E-03,  avg # of iterations =  3.0

     negative rho (up, down):  1.539E-08 0.000E+00

     total cpu time spent up to now is       37.3 secs

     total energy              =     -34.68128049 Ry
     Harris-Foulkes estimate   =     -34.75225677 Ry
     estimated scf accuracy    <       0.26268345 Ry

     iteration #  5     ecut=   400.00 Ry     beta= 0.70
     Davidson diagonalization with overlap
     ethr =  1.72E-03,  avg # of iterations =  1.0

     negative rho (up, down):  1.257E-08 0.000E+00

     total cpu time spent up to now is       42.6 secs

     total energy              =     -34.67696931 Ry
     Harris-Foulkes estimate   =     -34.69062952 Ry
     estimated scf accuracy    <       0.09580899 Ry

     iteration #  6     ecut=   400.00 Ry     beta= 0.70
     Davidson diagonalization with overlap
     ethr =  1.20E-03,  avg # of iterations =  2.0

     negative rho (up, down):  2.092E-08 0.000E+00

     total cpu time spent up to now is       48.2 secs

     total energy              =     -34.68367457 Ry
     Harris-Foulkes estimate   =     -34.68495811 Ry
     estimated scf accuracy    <       0.03612732 Ry

     iteration #  7     ecut=   400.00 Ry     beta= 0.70
     Davidson diagonalization with overlap
     ethr =  4.52E-04,  avg # of iterations =  3.0

     negative rho (up, down):  1.253E-07 0.000E+00

     total cpu time spent up to now is       53.9 secs

     total energy              =     -34.68671665 Ry
     Harris-Foulkes estimate   =     -34.68773098 Ry
     estimated scf accuracy    <       0.01675202 Ry

     iteration #  8     ecut=   400.00 Ry     beta= 0.70
     Davidson diagonalization with overlap
     ethr =  2.09E-04,  avg # of iterations =  4.0

     negative rho (up, down):  1.251E-07 0.000E+00

     total cpu time spent up to now is       59.9 secs

     total energy              =     -34.68715817 Ry
     Harris-Foulkes estimate   =     -34.68715701 Ry
     estimated scf accuracy    <       0.01195245 Ry

     iteration #  9     ecut=   400.00 Ry     beta= 0.70
     Davidson diagonalization with overlap
     ethr =  1.49E-04,  avg # of iterations =  1.0

     negative rho (up, down):  5.971E-08 0.000E+00

     total cpu time spent up to now is       65.6 secs

     total energy              =     -34.68785318 Ry
     Harris-Foulkes estimate   =     -34.68721587 Ry
     estimated scf accuracy    <       0.01171178 Ry

     iteration # 10     ecut=   400.00 Ry     beta= 0.70
     Davidson diagonalization with overlap
     ethr =  1.46E-04,  avg # of iterations =  1.0

     negative rho (up, down):  6.177E-05 0.000E+00

     total cpu time spent up to now is       71.3 secs

     total energy              =     -34.68232370 Ry
     Harris-Foulkes estimate   =     -34.68791512 Ry
     estimated scf accuracy    <       0.01322934 Ry

     iteration # 11     ecut=   400.00 Ry     beta= 0.70
     Davidson diagonalization with overlap
     ethr =  1.46E-04,  avg # of iterations =  2.0

     negative rho (up, down):  2.532E-05 0.000E+00

     total cpu time spent up to now is       77.2 secs

     total energy              =     -34.68422840 Ry
     Harris-Foulkes estimate   =     -34.68419768 Ry
     estimated scf accuracy    <       0.00038857 Ry

     iteration # 12     ecut=   400.00 Ry     beta= 0.70
     Davidson diagonalization with overlap
     ethr =  4.86E-06,  avg # of iterations = 11.0

     negative rho (up, down):  4.112E-05 0.000E+00

     total cpu time spent up to now is       87.6 secs

     total energy              =     -34.68472938 Ry
     Harris-Foulkes estimate   =     -34.68473088 Ry
     estimated scf accuracy    <       0.00004233 Ry

     iteration # 13     ecut=   400.00 Ry     beta= 0.70
     Davidson diagonalization with overlap
     ethr =  5.29E-07,  avg # of iterations = 11.0

     negative rho (up, down):  5.509E-05 0.000E+00

     total cpu time spent up to now is       95.1 secs

     total energy              =     -34.68474538 Ry
     Harris-Foulkes estimate   =     -34.68473530 Ry
     estimated scf accuracy    <       0.00008837 Ry

     iteration # 14     ecut=   400.00 Ry     beta= 0.70
     Davidson diagonalization with overlap
     ethr =  5.29E-07,  avg # of iterations =  3.0

     negative rho (up, down):  5.667E-05 0.000E+00

     total cpu time spent up to now is      102.7 secs

     total energy              =     -34.68474097 Ry
     Harris-Foulkes estimate   =     -34.68475227 Ry
     estimated scf accuracy    <       0.00021299 Ry

     iteration # 15     ecut=   400.00 Ry     beta= 0.70
     Davidson diagonalization with overlap
     ethr =  5.29E-07,  avg # of iterations =  1.0

     negative rho (up, down):  1.045E-04 0.000E+00

     total cpu time spent up to now is      109.4 secs

     total energy              =     -34.68473781 Ry
     Harris-Foulkes estimate   =     -34.68474148 Ry
     estimated scf accuracy    <       0.00018097 Ry

     iteration # 16     ecut=   400.00 Ry     beta= 0.70
     Davidson diagonalization with overlap
     ethr =  5.29E-07,  avg # of iterations =  3.0

     negative rho (up, down):  1.042E-04 0.000E+00

     total cpu time spent up to now is      116.7 secs

     total energy              =     -34.68478050 Ry
     Harris-Foulkes estimate   =     -34.68479297 Ry
     estimated scf accuracy    <       0.00047967 Ry

     iteration # 17     ecut=   400.00 Ry     beta= 0.70
     Davidson diagonalization with overlap
     ethr =  5.29E-07,  avg # of iterations =  1.0

     negative rho (up, down):  3.190E-05 0.000E+00

     total cpu time spent up to now is      123.0 secs

     total energy              =     -34.68468489 Ry
     Harris-Foulkes estimate   =     -34.68478116 Ry
     estimated scf accuracy    <       0.00045017 Ry

     iteration # 18     ecut=   400.00 Ry     beta= 0.70
     Davidson diagonalization with overlap
     ethr =  5.29E-07,  avg # of iterations =  4.0

     negative rho (up, down):  4.831E-05 0.000E+00

     total cpu time spent up to now is      130.6 secs

     total energy              =     -34.68474081 Ry
     Harris-Foulkes estimate   =     -34.68475416 Ry
     estimated scf accuracy    <       0.00002902 Ry

     iteration # 19     ecut=   400.00 Ry     beta= 0.70
     Davidson diagonalization with overlap
     ethr =  3.63E-07,  avg # of iterations =  1.0

     negative rho (up, down):  5.173E-05 0.000E+00

     total cpu time spent up to now is      136.9 secs

     total energy              =     -34.68474504 Ry
     Harris-Foulkes estimate   =     -34.68474522 Ry
     estimated scf accuracy    <       0.00000069 Ry

     iteration # 20     ecut=   400.00 Ry     beta= 0.70
     Davidson diagonalization with overlap
     ethr =  8.61E-09,  avg # of iterations =  4.0

     negative rho (up, down):  5.103E-05 0.000E+00

     total cpu time spent up to now is      144.0 secs

     total energy              =     -34.68475042 Ry
     Harris-Foulkes estimate   =     -34.68475116 Ry
     estimated scf accuracy    <       0.00001002 Ry

     iteration # 21     ecut=   400.00 Ry     beta= 0.70
     Davidson diagonalization with overlap
     ethr =  8.61E-09,  avg # of iterations =  1.0

     negative rho (up, down):  4.992E-05 0.000E+00

     total cpu time spent up to now is      149.8 secs

     total energy              =     -34.68474860 Ry
     Harris-Foulkes estimate   =     -34.68475046 Ry
     estimated scf accuracy    <       0.00000779 Ry

     iteration # 22     ecut=   400.00 Ry     beta= 0.70
     Davidson diagonalization with overlap
     ethr =  8.61E-09,  avg # of iterations =  3.0

     negative rho (up, down):  5.036E-05 0.000E+00

     total cpu time spent up to now is      156.3 secs

     total energy              =     -34.68474912 Ry
     Harris-Foulkes estimate   =     -34.68474912 Ry
     estimated scf accuracy    <       0.00000131 Ry

     iteration # 23     ecut=   400.00 Ry     beta= 0.70
     Davidson diagonalization with overlap
     ethr =  8.61E-09,  avg # of iterations =  1.0

     negative rho (up, down):  5.034E-05 0.000E+00

     total cpu time spent up to now is      161.9 secs

     total energy              =     -34.68474878 Ry
     Harris-Foulkes estimate   =     -34.68474912 Ry
     estimated scf accuracy    <       0.00000134 Ry

     iteration # 24     ecut=   400.00 Ry     beta= 0.70
     Davidson diagonalization with overlap
     ethr =  8.61E-09,  avg # of iterations =  1.0

     negative rho (up, down):  5.041E-05 0.000E+00

     total cpu time spent up to now is      167.7 secs

     total energy              =     -34.68474864 Ry
     Harris-Foulkes estimate   =     -34.68474882 Ry
     estimated scf accuracy    <       0.00000051 Ry

     iteration # 25     ecut=   400.00 Ry     beta= 0.70
     Davidson diagonalization with overlap
     ethr =  6.41E-09,  avg # of iterations =  4.0

     negative rho (up, down):  5.048E-05 0.000E+00

     total cpu time spent up to now is      173.8 secs

     total energy              =     -34.68474880 Ry
     Harris-Foulkes estimate   =     -34.68474881 Ry
     estimated scf accuracy    <       0.00000002 Ry

     iteration # 26     ecut=   400.00 Ry     beta= 0.70
     Davidson diagonalization with overlap
     ethr =  2.26E-10,  avg # of iterations =  1.0

     negative rho (up, down):  5.057E-05 0.000E+00

     total cpu time spent up to now is      178.5 secs

     End of self-consistent calculation

          k = 0.0000 0.0000 0.0000 (****** PWs)   bands (ev):

   -23.3793 -12.0963  -8.1370  -6.6898  -1.8283   0.0434   0.1527   0.9938

     the Fermi energy is    -4.7593 ev

!    total energy              =     -34.68474880 Ry
     Harris-Foulkes estimate   =     -34.68474880 Ry
     estimated scf accuracy    <          1.7E-09 Ry

     The total energy is the sum of the following terms:

     one-electron contribution =     -60.57168863 Ry
     hartree contribution      =      31.92217235 Ry
     xc contribution           =      -8.56726902 Ry
     ewald contribution        =       2.53203650 Ry
     smearing contrib. (-TS)   =       0.00000000 Ry

     convergence has been achieved in  26 iterations

     Writing output data file pwscf.save
 
     init_run     :     11.05s CPU     11.56s WALL (       1 calls)
     electrons    :    148.82s CPU    166.19s WALL (       1 calls)

     Called by init_run:
     wfcinit      :      0.81s CPU      0.87s WALL (       1 calls)
     potinit      :      1.62s CPU      1.72s WALL (       1 calls)

     Called by electrons:
     c_bands      :     56.74s CPU     59.11s WALL (      26 calls)
     sum_band     :     35.00s CPU     38.14s WALL (      26 calls)
     v_of_rho     :     27.06s CPU     28.35s WALL (      27 calls)
     newd         :     12.94s CPU     15.67s WALL (      27 calls)
     mix_rho      :     16.90s CPU     24.35s WALL (      26 calls)

     Called by c_bands:
     init_us_2    :      0.67s CPU      0.72s WALL (      53 calls)
     cegterg      :     55.62s CPU     57.88s WALL (      26 calls)

     Called by sum_band:
     sum_band:bec :      0.00s CPU      0.00s WALL (      26 calls)
     addusdens    :     19.47s CPU     21.40s WALL (      26 calls)

     Called by *egterg:
     h_psi        :     52.47s CPU     54.63s WALL (     105 calls)
     s_psi        :      0.33s CPU      0.33s WALL (     105 calls)
     g_psi        :      0.11s CPU      0.11s WALL (      78 calls)
     cdiaghg      :      0.09s CPU      0.09s WALL (     104 calls)

     Called by h_psi:
     h_psi:pot    :     52.17s CPU     54.33s WALL (     105 calls)
     h_psi:calbec :      0.69s CPU      0.77s WALL (     105 calls)
     vloc_psi     :     51.16s CPU     53.24s WALL (     105 calls)
     add_vuspsi   :      0.31s CPU      0.31s WALL (     105 calls)

     General routines
     calbec       :      1.01s CPU      1.11s WALL (     131 calls)
     fft          :     33.32s CPU     35.27s WALL (     350 calls)
     fftw         :     55.55s CPU     58.34s WALL (    1292 calls)
     davcio       :      1.13s CPU      7.73s WALL (     427 calls)
 
     Parallel routines
     fft_scatt_xy :     11.18s CPU     11.39s WALL (    1642 calls)
     fft_scatt_yz :     36.04s CPU     39.94s WALL (    1642 calls)
 
     PWSCF        :  2m41.82s CPU     3m 1.15s WALL

 
   This run was terminated on:  20: 4:37  17May2018            

=------------------------------------------------------------------------------=
   JOB DONE.
=------------------------------------------------------------------------------=
