
     Program PWSCF v.6.0 (svn rev. 13079) starts on 14Feb2018 at  7: 3: 7 

     This program is part of the open-source Quantum ESPRESSO suite
     for quantum simulation of materials; please cite
         "P. Giannozzi et al., J. Phys.:Condens. Matter 21 395502 (2009);
          URL http://www.quantum-espresso.org", 
     in publications or presentations arising from this work. More details at
     http://www.quantum-espresso.org/quote

     Parallel version (MPI), running on    28 processors
     R & G space division:  proc/nbgrp/npool/nimage =      28
     Reading input from inputs/MD-H2O-2/1.in

     Current dimensions of program PWSCF are:
     Max number of different atomic species (ntypx) = 10
     Max number of k-points (npk) =  40000
     Max angular momentum in pseudopotentials (lmaxx) =  3

     Subspace diagonalization in iterative solution of the eigenvalue problem:
     a serial algorithm will be used

 
     Parallelization info
     --------------------
     sticks:   dense  smooth     PW     G-vecs:    dense   smooth      PW
     Min         136     136     33                 6338     6338     787
     Max         137     137     34                 6341     6341     792
     Sum        3809    3809    949               177509   177509   22119
 


     bravais-lattice index     =            1
     lattice parameter (alat)  =      20.0000  a.u.
     unit-cell volume          =    8000.0000 (a.u.)^3
     number of atoms/cell      =            3
     number of atomic types    =            2
     number of electrons       =         8.00
     number of Kohn-Sham states=            8
     kinetic-energy cutoff     =      30.0000  Ry
     charge density cutoff     =     120.0000  Ry
     convergence threshold     =      1.0E-08
     mixing beta               =       0.7000
     number of iterations used =            8  plain     mixing
     Exchange-correlation      = BLYP ( 1  3  1  3 0 0)
     nstep                     =         5000


     celldm(1)=  20.000000  celldm(2)=   0.000000  celldm(3)=   0.000000
     celldm(4)=   0.000000  celldm(5)=   0.000000  celldm(6)=   0.000000

     crystal axes: (cart. coord. in units of alat)
               a(1) = (   1.000000   0.000000   0.000000 )  
               a(2) = (   0.000000   1.000000   0.000000 )  
               a(3) = (   0.000000   0.000000   1.000000 )  

     reciprocal axes: (cart. coord. in units 2 pi/alat)
               b(1) = (  1.000000  0.000000  0.000000 )  
               b(2) = (  0.000000  1.000000  0.000000 )  
               b(3) = (  0.000000  0.000000  1.000000 )  


     PseudoPot. # 1 for  H read from file:
     ./H.blyp-hgh.UPF
     MD5 check sum: c576e69559cde411e611be972c763230
     Pseudo is Norm-conserving, Zval =  1.0
     Generated in analytical, separable form
     Using radial grid of  929 points,  0 beta functions with: 

     PseudoPot. # 2 for  O read from file:
     ./O.blyp-hgh.UPF
     MD5 check sum: d0b7156309aa9befef28faac7bc56342
     Pseudo is Norm-conserving, Zval =  6.0
     Generated in analytical, separable form
     Using radial grid of 1095 points,  1 beta functions with: 
                l(1) =   0

     atomic species   valence    mass     pseudopotential
        H              1.00     1.01000      H( 1.00)
        O              6.00    16.00000      O( 1.00)

     No symmetry found



   Cartesian axes

     site n.     atom                  positions (alat units)
         1           H   tau(   1) = (   0.7486940   1.1092807  -0.0692248  )
         2           H   tau(   2) = (   0.7453706   0.1114278  -0.0757281  )
         3           O   tau(   3) = (   0.6566943   0.1612513   0.9886132  )

     number of k points=     1  Marzari-Vanderbilt smearing, width (Ry)=  0.0250
                       cart. coord. in units 2pi/alat
        k(    1) = (   0.0000000   0.0000000   0.0000000), wk =   2.0000000

     Dense  grid:   177509 G-vectors     FFT dimensions: (  72,  72,  72)

     Estimated max dynamical RAM per process >       6.09Mb

     Estimated total allocated dynamical RAM >     170.64Mb

     Initial potential from superposition of free atoms
     Check: negative starting charge=   -0.358874

     starting charge    7.99998, renormalised to    8.00000

     negative rho (up, down):  3.589E-01 0.000E+00
     Starting wfc are    6 randomized atomic wfcs +    2 random wfc

     total cpu time spent up to now is        0.2 secs

     per-process dynamical memory:    18.8 Mb

     Self-consistent Calculation

     iteration #  1     ecut=    30.00 Ry     beta=0.70
     Davidson diagonalization with overlap
     ethr =  1.00E-02,  avg # of iterations =  8.0

     negative rho (up, down):  9.858E-02 0.000E+00

     total cpu time spent up to now is        0.3 secs

     total energy              =     -21.41310078 Ry
     Harris-Foulkes estimate   =     -22.32879570 Ry
     estimated scf accuracy    <       1.22834778 Ry

     iteration #  2     ecut=    30.00 Ry     beta=0.70
     Davidson diagonalization with overlap
     ethr =  1.00E-02,  avg # of iterations =  2.0

     negative rho (up, down):  5.331E-02 0.000E+00

     total cpu time spent up to now is        0.3 secs

     total energy              =     -21.63662680 Ry
     Harris-Foulkes estimate   =     -21.88665546 Ry
     estimated scf accuracy    <       0.48628230 Ry

     iteration #  3     ecut=    30.00 Ry     beta=0.70
     Davidson diagonalization with overlap
     ethr =  6.08E-03,  avg # of iterations =  2.0

     negative rho (up, down):  2.449E-03 0.000E+00

     total cpu time spent up to now is        0.4 secs

     total energy              =     -21.80778444 Ry
     Harris-Foulkes estimate   =     -21.77383116 Ry
     estimated scf accuracy    <       0.03058856 Ry

     iteration #  4     ecut=    30.00 Ry     beta=0.70
     Davidson diagonalization with overlap
     ethr =  3.82E-04,  avg # of iterations =  3.0

     negative rho (up, down):  1.223E-03 0.000E+00

     total cpu time spent up to now is        0.4 secs

     total energy              =     -21.81337179 Ry
     Harris-Foulkes estimate   =     -21.81294335 Ry
     estimated scf accuracy    <       0.00055251 Ry

     iteration #  5     ecut=    30.00 Ry     beta=0.70
     Davidson diagonalization with overlap
     ethr =  6.91E-06,  avg # of iterations = 17.0

     negative rho (up, down):  2.600E-05 0.000E+00

     total cpu time spent up to now is        0.5 secs

     total energy              =     -21.81373410 Ry
     Harris-Foulkes estimate   =     -21.81364009 Ry
     estimated scf accuracy    <       0.00006372 Ry

     iteration #  6     ecut=    30.00 Ry     beta=0.70
     Davidson diagonalization with overlap
     ethr =  7.97E-07,  avg # of iterations =  9.0

     negative rho (up, down):  2.082E-06 0.000E+00

     total cpu time spent up to now is        0.5 secs

     total energy              =     -21.81375052 Ry
     Harris-Foulkes estimate   =     -21.81374892 Ry
     estimated scf accuracy    <       0.00000503 Ry

     iteration #  7     ecut=    30.00 Ry     beta=0.70
     Davidson diagonalization with overlap
     ethr =  6.29E-08,  avg # of iterations =  1.0

     total cpu time spent up to now is        0.5 secs

     total energy              =     -21.81375221 Ry
     Harris-Foulkes estimate   =     -21.81375115 Ry
     estimated scf accuracy    <       0.00000030 Ry

     iteration #  8     ecut=    30.00 Ry     beta=0.70
     Davidson diagonalization with overlap
     ethr =  3.80E-09,  avg # of iterations =  2.0

     total cpu time spent up to now is        0.5 secs

     End of self-consistent calculation

          k = 0.0000 0.0000 0.0000 ( 22119 PWs)   bands (ev):

   -26.3656 -18.0722  -7.3767  -7.3739  -5.3417  -0.2623   0.9052   1.0350

     the Fermi energy is    -7.0620 ev

!    total energy              =     -21.81375255 Ry
     Harris-Foulkes estimate   =     -21.81375227 Ry
     estimated scf accuracy    <          4.8E-09 Ry

     convergence has been achieved in   8 iterations

     Forces acting on atoms (Ry/au):

     atom    1 type  1   force =    37.38983387  -24.15938413   73.20513798
     atom    2 type  1   force =   -37.41891070   24.17422497  -73.18694193
     atom    3 type  2   force =     0.02907683   -0.01484084   -0.01819605

     Total force =   121.167511     Total SCF correction =     0.000214

     Molecular Dynamics Calculation

     Starting temperature  =  1000.00 K

     temperature is controlled by Andersen thermostat
     Collision frequency = 1.0000/timestep
     mass H                =     1.01
     mass O                =    16.00
     Time step             =   100.00 a.u.,  4.8378 femto-seconds

     Entering Dynamics:    iteration =     1
                           time      =   0.0048 pico-seconds


     Andersen thermostat:    3 collisions

ATOMIC_POSITIONS (bohr)
H      217.744230795-108.774598306 396.215172549
H     -188.434383216 133.632253736-399.543372980
O       13.169959366   3.197031982  19.799353679


     kinetic energy (Ekin) =     0.02247739 Ry
     temperature           =  1182.96480399 K 
     Ekin + Etot (const)   =   -21.79127516 Ry

     Linear momentum :   -0.0000000000    0.0000000000   -0.0000000000

     Writing output data file pwscf.save
     Check: negative starting charge=   -0.358874
     NEW-OLD atomic charge density approx. for the potential
     Check: negative starting charge=   -0.347993

     negative rho (up, down):  5.104E-01 0.000E+00

     total cpu time spent up to now is        1.0 secs

     per-process dynamical memory:    20.4 Mb

     Self-consistent Calculation

     iteration #  1     ecut=    30.00 Ry     beta=0.70
     Davidson diagonalization with overlap
     ethr =  1.00E-06,  avg # of iterations = 14.0

     negative rho (up, down):  5.736E-02 0.000E+00

     total cpu time spent up to now is        1.1 secs

     total energy              =      49.01166470 Ry
     Harris-Foulkes estimate   =     -72.92736646 Ry
     estimated scf accuracy    <      32.49036190 Ry

     iteration #  2     ecut=    30.00 Ry     beta=0.70
     Davidson diagonalization with overlap
     ethr =  1.00E-02,  avg # of iterations =  7.0

     negative rho (up, down):  3.528E-02 0.000E+00

     total cpu time spent up to now is        1.2 secs

     total energy              =     -34.50126461 Ry
     Harris-Foulkes estimate   =     -49.34437744 Ry
     estimated scf accuracy    <      28.05973398 Ry

     iteration #  3     ecut=    30.00 Ry     beta=0.70
     Davidson diagonalization with overlap
     ethr =  1.00E-02,  avg # of iterations =  4.0

     negative rho (up, down):  2.883E-02 0.000E+00

     total cpu time spent up to now is        1.2 secs

     total energy              =     -34.92194255 Ry
     Harris-Foulkes estimate   =     -38.50317286 Ry
     estimated scf accuracy    <      13.15319431 Ry

     iteration #  4     ecut=    30.00 Ry     beta=0.70
     Davidson diagonalization with overlap
     ethr =  1.00E-02,  avg # of iterations =  2.0

     negative rho (up, down):  2.191E-02 0.000E+00

     total cpu time spent up to now is        1.3 secs

     total energy              =     -33.72661969 Ry
     Harris-Foulkes estimate   =     -35.36589222 Ry
     estimated scf accuracy    <       6.86011874 Ry

     iteration #  5     ecut=    30.00 Ry     beta=0.70
     Davidson diagonalization with overlap
     ethr =  1.00E-02,  avg # of iterations =  1.0

     negative rho (up, down):  1.794E-02 0.000E+00

     total cpu time spent up to now is        1.3 secs

     total energy              =     -33.15882843 Ry
     Harris-Foulkes estimate   =     -34.01772588 Ry
     estimated scf accuracy    <       4.77394608 Ry

     iteration #  6     ecut=    30.00 Ry     beta=0.70
     Davidson diagonalization with overlap
     ethr =  1.00E-02,  avg # of iterations =  1.0

     negative rho (up, down):  1.275E-02 0.000E+00

     total cpu time spent up to now is        1.3 secs

     total energy              =     -32.03750478 Ry
     Harris-Foulkes estimate   =     -33.32295748 Ry
     estimated scf accuracy    <       6.10599304 Ry

     iteration #  7     ecut=    30.00 Ry     beta=0.70
     Davidson diagonalization with overlap
     ethr =  1.00E-02,  avg # of iterations =  1.0

     negative rho (up, down):  1.000E-02 0.000E+00

     total cpu time spent up to now is        1.4 secs

     total energy              =     -32.18714341 Ry
     Harris-Foulkes estimate   =     -32.58767085 Ry
     estimated scf accuracy    <       5.07340514 Ry

     iteration #  8     ecut=    30.00 Ry     beta=0.70
     Davidson diagonalization with overlap
     ethr =  1.00E-02,  avg # of iterations =  1.0

     negative rho (up, down):  2.078E-03 0.000E+00

     total cpu time spent up to now is        1.4 secs

     total energy              =     -31.11310162 Ry
     Harris-Foulkes estimate   =     -32.19099735 Ry
     estimated scf accuracy    <       4.36329816 Ry

     iteration #  9     ecut=    30.00 Ry     beta=0.70
     Davidson diagonalization with overlap
     ethr =  1.00E-02,  avg # of iterations =  1.0

     negative rho (up, down):  1.521E-04 0.000E+00

     total cpu time spent up to now is        1.4 secs

     total energy              =     -32.00343896 Ry
     Harris-Foulkes estimate   =     -31.93695484 Ry
     estimated scf accuracy    <       4.22240049 Ry

     iteration # 10     ecut=    30.00 Ry     beta=0.70
     Davidson diagonalization with overlap
     ethr =  1.00E-02,  avg # of iterations =  1.0

     negative rho (up, down):  1.248E-05 0.000E+00

     total cpu time spent up to now is        1.5 secs

     total energy              =     -32.07398550 Ry
     Harris-Foulkes estimate   =     -32.01466335 Ry
     estimated scf accuracy    <       4.38488798 Ry

     iteration # 11     ecut=    30.00 Ry     beta=0.70
     Davidson diagonalization with overlap
     ethr =  1.00E-02,  avg # of iterations =  1.0

     negative rho (up, down):  3.395E-08 0.000E+00

     total cpu time spent up to now is        1.5 secs

     total energy              =     -31.90067974 Ry
     Harris-Foulkes estimate   =     -32.07504835 Ry
     estimated scf accuracy    <       4.47160654 Ry

     iteration # 12     ecut=    30.00 Ry     beta=0.70
     Davidson diagonalization with overlap
     ethr =  1.00E-02,  avg # of iterations =  1.0

     total cpu time spent up to now is        1.5 secs

     total energy              =     -31.85445150 Ry
     Harris-Foulkes estimate   =     -31.90803676 Ry
     estimated scf accuracy    <       4.27281491 Ry

     iteration # 13     ecut=    30.00 Ry     beta=0.70
     Davidson diagonalization with overlap
     ethr =  1.00E-02,  avg # of iterations =  1.0

     total cpu time spent up to now is        1.6 secs

     total energy              =     -31.61172666 Ry
     Harris-Foulkes estimate   =     -31.85463826 Ry
     estimated scf accuracy    <       4.17896416 Ry

     iteration # 14     ecut=    30.00 Ry     beta=0.70
     Davidson diagonalization with overlap
     ethr =  1.00E-02,  avg # of iterations =  1.0

     total cpu time spent up to now is        1.6 secs

     total energy              =     -31.43910218 Ry
     Harris-Foulkes estimate   =     -31.61404829 Ry
     estimated scf accuracy    <       4.22787529 Ry

     iteration # 15     ecut=    30.00 Ry     beta=0.70
     Davidson diagonalization with overlap
     ethr =  1.00E-02,  avg # of iterations =  1.0

     negative rho (up, down):  2.060E-07 0.000E+00

     total cpu time spent up to now is        1.6 secs

     total energy              =     -31.43619587 Ry
     Harris-Foulkes estimate   =     -31.49798028 Ry
     estimated scf accuracy    <       0.23265425 Ry

     iteration # 16     ecut=    30.00 Ry     beta=0.70
     Davidson diagonalization with overlap
     ethr =  2.91E-03,  avg # of iterations =  1.0

     negative rho (up, down):  4.805E-06 0.000E+00

     total cpu time spent up to now is        1.7 secs

     total energy              =     -31.51323122 Ry
     Harris-Foulkes estimate   =     -31.83068196 Ry
     estimated scf accuracy    <       4.10119009 Ry

     iteration # 17     ecut=    30.00 Ry     beta=0.70
     Davidson diagonalization with overlap
     ethr =  2.91E-03,  avg # of iterations =  1.0

     negative rho (up, down):  8.703E-06 0.000E+00

     total cpu time spent up to now is        1.7 secs

     total energy              =     -31.99272325 Ry
     Harris-Foulkes estimate   =     -31.51855078 Ry
     estimated scf accuracy    <       1.63528803 Ry

     iteration # 18     ecut=    30.00 Ry     beta=0.70
     Davidson diagonalization with overlap
     ethr =  2.91E-03,  avg # of iterations =  1.0

     negative rho (up, down):  1.013E-03 0.000E+00

     total cpu time spent up to now is        1.7 secs

     total energy              =     -32.50062322 Ry
     Harris-Foulkes estimate   =     -32.24968248 Ry
     estimated scf accuracy    <       4.71450867 Ry

     iteration # 19     ecut=    30.00 Ry     beta=0.70
     Davidson diagonalization with overlap
     ethr =  2.91E-03,  avg # of iterations =  1.0

     negative rho (up, down):  1.619E-03 0.000E+00

     total cpu time spent up to now is        1.7 secs

     total energy              =     -32.49149652 Ry
     Harris-Foulkes estimate   =     -32.50442708 Ry
     estimated scf accuracy    <       5.15469711 Ry

     iteration # 20     ecut=    30.00 Ry     beta=0.70
     Davidson diagonalization with overlap
     ethr =  2.91E-03,  avg # of iterations =  1.0

     negative rho (up, down):  2.700E-03 0.000E+00

     total cpu time spent up to now is        1.8 secs

     total energy              =     -32.56595150 Ry
     Harris-Foulkes estimate   =     -32.49179342 Ry
     estimated scf accuracy    <       5.14674341 Ry

     iteration # 21     ecut=    30.00 Ry     beta=0.70
     Davidson diagonalization with overlap
     ethr =  2.91E-03,  avg # of iterations =  1.0

     negative rho (up, down):  9.113E-04 0.000E+00

     total cpu time spent up to now is        1.8 secs

     total energy              =     -32.45969096 Ry
     Harris-Foulkes estimate   =     -32.56623161 Ry
     estimated scf accuracy    <       5.28583659 Ry

     iteration # 22     ecut=    30.00 Ry     beta=0.70
     Davidson diagonalization with overlap
     ethr =  2.91E-03,  avg # of iterations =  1.0

     negative rho (up, down):  1.234E-03 0.000E+00

     total cpu time spent up to now is        1.8 secs

     total energy              =     -32.39135302 Ry
     Harris-Foulkes estimate   =     -32.45998671 Ry
     estimated scf accuracy    <       5.12126730 Ry

     iteration # 23     ecut=    30.00 Ry     beta=0.70
     Davidson diagonalization with overlap
     ethr =  2.91E-03,  avg # of iterations =  1.0

     negative rho (up, down):  1.351E-04 0.000E+00

     total cpu time spent up to now is        1.9 secs

     total energy              =     -32.01995493 Ry
     Harris-Foulkes estimate   =     -32.39166597 Ry
     estimated scf accuracy    <       4.99137125 Ry

     iteration # 24     ecut=    30.00 Ry     beta=0.70
     Davidson diagonalization with overlap
     ethr =  2.91E-03,  avg # of iterations =  1.0

     negative rho (up, down):  2.562E-01 0.000E+00

     total cpu time spent up to now is        1.9 secs

     total energy              =     -28.97088133 Ry
     Harris-Foulkes estimate   =     -32.02424369 Ry
     estimated scf accuracy    <       4.37181910 Ry

     iteration # 25     ecut=    30.00 Ry     beta=0.70
     Davidson diagonalization with overlap
     ethr =  2.91E-03,  avg # of iterations =  4.0

     negative rho (up, down):  1.849E-02 0.000E+00

     total cpu time spent up to now is        2.0 secs

     total energy              =     -33.27504780 Ry
     Harris-Foulkes estimate   =     -35.58146227 Ry
     estimated scf accuracy    <       8.70801993 Ry

     iteration # 26     ecut=    30.00 Ry     beta=0.70
     Davidson diagonalization with overlap
     ethr =  2.91E-03,  avg # of iterations =  2.0

     negative rho (up, down):  7.400E-08 0.000E+00

     total cpu time spent up to now is        2.0 secs

     total energy              =     -31.18073066 Ry
     Harris-Foulkes estimate   =     -33.33120837 Ry
     estimated scf accuracy    <       5.46833484 Ry

     iteration # 27     ecut=    30.00 Ry     beta=0.70
     Davidson diagonalization with overlap
     ethr =  2.91E-03,  avg # of iterations =  5.0

     total cpu time spent up to now is        2.0 secs

     total energy              =     -31.49102988 Ry
     Harris-Foulkes estimate   =     -31.69643199 Ry
     estimated scf accuracy    <       3.86764421 Ry

     iteration # 28     ecut=    30.00 Ry     beta=0.70
     Davidson diagonalization with overlap
     ethr =  2.91E-03,  avg # of iterations =  1.0

     negative rho (up, down):  7.521E-08 0.000E+00

     total cpu time spent up to now is        2.1 secs

     total energy              =     -31.38494090 Ry
     Harris-Foulkes estimate   =     -31.50633932 Ry
     estimated scf accuracy    <       0.79927981 Ry

     iteration # 29     ecut=    30.00 Ry     beta=0.70
     Davidson diagonalization with overlap
     ethr =  2.91E-03,  avg # of iterations =  1.0

     negative rho (up, down):  1.574E-07 0.000E+00

     total cpu time spent up to now is        2.1 secs

     total energy              =     -31.77430615 Ry
     Harris-Foulkes estimate   =     -31.86996467 Ry
     estimated scf accuracy    <       3.17329784 Ry

     iteration # 30     ecut=    30.00 Ry     beta=0.70
     Davidson diagonalization with overlap
     ethr =  2.91E-03,  avg # of iterations =  1.0

     total cpu time spent up to now is        2.2 secs

     total energy              =     -31.42704908 Ry
     Harris-Foulkes estimate   =     -31.77461896 Ry
     estimated scf accuracy    <       3.05285452 Ry

     iteration # 31     ecut=    30.00 Ry     beta=0.70
     Davidson diagonalization with overlap
     ethr =  2.91E-03,  avg # of iterations =  1.0

     total cpu time spent up to now is        2.2 secs

     total energy              =     -31.43065334 Ry
     Harris-Foulkes estimate   =     -31.50500122 Ry
     estimated scf accuracy    <       1.00805693 Ry

     iteration # 32     ecut=    30.00 Ry     beta=0.70
     Davidson diagonalization with overlap
     ethr =  2.91E-03,  avg # of iterations =  1.0

     total cpu time spent up to now is        2.2 secs

     total energy              =     -31.63436362 Ry
     Harris-Foulkes estimate   =     -31.58950236 Ry
     estimated scf accuracy    <       2.69895157 Ry

     iteration # 33     ecut=    30.00 Ry     beta=0.70
     Davidson diagonalization with overlap
     ethr =  2.91E-03,  avg # of iterations =  1.0

     total cpu time spent up to now is        2.2 secs

     total energy              =     -31.49208749 Ry
     Harris-Foulkes estimate   =     -31.63491469 Ry
     estimated scf accuracy    <       2.83109682 Ry

     iteration # 34     ecut=    30.00 Ry     beta=0.70
     Davidson diagonalization with overlap
     ethr =  2.91E-03,  avg # of iterations =  1.0

     total cpu time spent up to now is        2.3 secs

     total energy              =     -31.57031223 Ry
     Harris-Foulkes estimate   =     -31.51092918 Ry
     estimated scf accuracy    <       0.64052679 Ry

     iteration # 35     ecut=    30.00 Ry     beta=0.70
     Davidson diagonalization with overlap
     ethr =  2.91E-03,  avg # of iterations =  1.0

     total cpu time spent up to now is        2.3 secs

     total energy              =     -31.45909413 Ry
     Harris-Foulkes estimate   =     -31.62448068 Ry
     estimated scf accuracy    <       2.81307128 Ry

     iteration # 36     ecut=    30.00 Ry     beta=0.70
     Davidson diagonalization with overlap
     ethr =  2.91E-03,  avg # of iterations =  1.0

     negative rho (up, down):  4.569E-07 0.000E+00

     total cpu time spent up to now is        2.3 secs

     total energy              =     -31.51079460 Ry
     Harris-Foulkes estimate   =     -31.50826149 Ry
     estimated scf accuracy    <       0.67435598 Ry

     iteration # 37     ecut=    30.00 Ry     beta=0.70
     Davidson diagonalization with overlap
     ethr =  2.91E-03,  avg # of iterations =  1.0

     negative rho (up, down):  2.961E-06 0.000E+00

     total cpu time spent up to now is        2.4 secs

     total energy              =     -31.58681937 Ry
     Harris-Foulkes estimate   =     -31.51645148 Ry
     estimated scf accuracy    <       0.59654186 Ry

     iteration # 38     ecut=    30.00 Ry     beta=0.70
     Davidson diagonalization with overlap
     ethr =  2.91E-03,  avg # of iterations =  1.0

     negative rho (up, down):  9.080E-08 0.000E+00

     total cpu time spent up to now is        2.4 secs

     total energy              =     -31.48900628 Ry
     Harris-Foulkes estimate   =     -31.69678840 Ry
     estimated scf accuracy    <       2.93493970 Ry

     iteration # 39     ecut=    30.00 Ry     beta=0.70
     Davidson diagonalization with overlap
     ethr =  2.91E-03,  avg # of iterations =  1.0

     total cpu time spent up to now is        2.4 secs

     total energy              =     -31.57549364 Ry
     Harris-Foulkes estimate   =     -31.51894544 Ry
     estimated scf accuracy    <       0.59963328 Ry

     iteration # 40     ecut=    30.00 Ry     beta=0.70
     Davidson diagonalization with overlap
     ethr =  2.91E-03,  avg # of iterations =  1.0

     negative rho (up, down):  1.902E-08 0.000E+00

     total cpu time spent up to now is        2.5 secs

     total energy              =     -31.73566381 Ry
     Harris-Foulkes estimate   =     -31.68732972 Ry
     estimated scf accuracy    <       2.90229898 Ry

     iteration # 41     ecut=    30.00 Ry     beta=0.70
     Davidson diagonalization with overlap
     ethr =  2.91E-03,  avg # of iterations =  1.0

     negative rho (up, down):  5.159E-05 0.000E+00

     total cpu time spent up to now is        2.5 secs

     total energy              =     -31.98252238 Ry
     Harris-Foulkes estimate   =     -31.73619011 Ry
     estimated scf accuracy    <       3.00516776 Ry

     iteration # 42     ecut=    30.00 Ry     beta=0.70
     Davidson diagonalization with overlap
     ethr =  2.91E-03,  avg # of iterations =  1.0

     negative rho (up, down):  4.648E-04 0.000E+00

     total cpu time spent up to now is        2.5 secs

     total energy              =     -32.12629727 Ry
     Harris-Foulkes estimate   =     -31.98356472 Ry
     estimated scf accuracy    <       3.35945151 Ry

     iteration # 43     ecut=    30.00 Ry     beta=0.70
     Davidson diagonalization with overlap
     ethr =  2.91E-03,  avg # of iterations =  1.0

     negative rho (up, down):  2.594E-07 0.000E+00

     total cpu time spent up to now is        2.6 secs

     total energy              =     -31.75277405 Ry
     Harris-Foulkes estimate   =     -32.12673056 Ry
     estimated scf accuracy    <       3.57986320 Ry

     iteration # 44     ecut=    30.00 Ry     beta=0.70
     Davidson diagonalization with overlap
     ethr =  2.91E-03,  avg # of iterations =  1.0

     negative rho (up, down):  3.352E-07 0.000E+00

     total cpu time spent up to now is        2.6 secs

     total energy              =     -31.24019629 Ry
     Harris-Foulkes estimate   =     -31.75523456 Ry
     estimated scf accuracy    <       3.02040832 Ry

     iteration # 45     ecut=    30.00 Ry     beta=0.70
     Davidson diagonalization with overlap
     ethr =  2.91E-03,  avg # of iterations =  1.0

     negative rho (up, down):  3.980E-08 0.000E+00

     total cpu time spent up to now is        2.6 secs

     total energy              =     -31.01095849 Ry
     Harris-Foulkes estimate   =     -31.73350132 Ry
     estimated scf accuracy    <       3.96212316 Ry

     iteration # 46     ecut=    30.00 Ry     beta=0.70
     Davidson diagonalization with overlap
     ethr =  2.91E-03,  avg # of iterations =  1.0

     total cpu time spent up to now is        2.7 secs

     total energy              =     -31.56132616 Ry
     Harris-Foulkes estimate   =     -31.87904725 Ry
     estimated scf accuracy    <       3.18552928 Ry

     iteration # 47     ecut=    30.00 Ry     beta=0.70
     Davidson diagonalization with overlap
     ethr =  2.91E-03,  avg # of iterations =  1.0

     total cpu time spent up to now is        2.7 secs

     total energy              =     -31.39116670 Ry
     Harris-Foulkes estimate   =     -31.56487765 Ry
     estimated scf accuracy    <       2.26380962 Ry

     iteration # 48     ecut=    30.00 Ry     beta=0.70
     Davidson diagonalization with overlap
     ethr =  2.91E-03,  avg # of iterations =  1.0

     total cpu time spent up to now is        2.8 secs

     total energy              =     -31.51258287 Ry
     Harris-Foulkes estimate   =     -31.57470282 Ry
     estimated scf accuracy    <       1.91498928 Ry

     iteration # 49     ecut=    30.00 Ry     beta=0.70
     Davidson diagonalization with overlap
     ethr =  2.91E-03,  avg # of iterations =  1.0

     total cpu time spent up to now is        2.8 secs

     total energy              =     -31.54995435 Ry
     Harris-Foulkes estimate   =     -31.53359574 Ry
     estimated scf accuracy    <       1.14737790 Ry

     iteration # 50     ecut=    30.00 Ry     beta=0.70
     Davidson diagonalization with overlap
     ethr =  2.91E-03,  avg # of iterations =  1.0

     total cpu time spent up to now is        2.8 secs

     total energy              =     -31.53932317 Ry
     Harris-Foulkes estimate   =     -31.55169274 Ry
     estimated scf accuracy    <       1.02971477 Ry

     iteration # 51     ecut=    30.00 Ry     beta=0.70
     Davidson diagonalization with overlap
     ethr =  2.91E-03,  avg # of iterations =  1.0

     total cpu time spent up to now is        2.9 secs

     total energy              =     -31.53418094 Ry
     Harris-Foulkes estimate   =     -31.54376326 Ry
     estimated scf accuracy    <       1.09130775 Ry

     iteration # 52     ecut=    30.00 Ry     beta=0.70
     Davidson diagonalization with overlap
     ethr =  2.91E-03,  avg # of iterations =  1.0

     total cpu time spent up to now is        2.9 secs

     total energy              =     -31.52569257 Ry
     Harris-Foulkes estimate   =     -31.53498269 Ry
     estimated scf accuracy    <       1.08261306 Ry

     iteration # 53     ecut=    30.00 Ry     beta=0.70
     Davidson diagonalization with overlap
     ethr =  2.91E-03,  avg # of iterations =  1.0

     total cpu time spent up to now is        2.9 secs

     total energy              =     -31.51980448 Ry
     Harris-Foulkes estimate   =     -31.55226242 Ry
     estimated scf accuracy    <       1.30145790 Ry

     iteration # 54     ecut=    30.00 Ry     beta=0.70
     Davidson diagonalization with overlap
     ethr =  2.91E-03,  avg # of iterations =  1.0

     total cpu time spent up to now is        2.9 secs

     total energy              =     -31.53870898 Ry
     Harris-Foulkes estimate   =     -31.53772711 Ry
     estimated scf accuracy    <       0.81958224 Ry

     iteration # 55     ecut=    30.00 Ry     beta=0.70
     Davidson diagonalization with overlap
     ethr =  2.91E-03,  avg # of iterations =  1.0

     total cpu time spent up to now is        3.0 secs

     total energy              =     -31.54673244 Ry
     Harris-Foulkes estimate   =     -31.54099641 Ry
     estimated scf accuracy    <       1.16811268 Ry

     iteration # 56     ecut=    30.00 Ry     beta=0.70
     Davidson diagonalization with overlap
     ethr =  2.91E-03,  avg # of iterations =  1.0

     total cpu time spent up to now is        3.0 secs

     total energy              =     -31.54769167 Ry
     Harris-Foulkes estimate   =     -31.54695663 Ry
     estimated scf accuracy    <       1.21757594 Ry

     iteration # 57     ecut=    30.00 Ry     beta=0.70
     Davidson diagonalization with overlap
     ethr =  2.91E-03,  avg # of iterations =  1.0

     total cpu time spent up to now is        3.1 secs

     total energy              =     -31.53698163 Ry
     Harris-Foulkes estimate   =     -31.54769943 Ry
     estimated scf accuracy    <       1.22822383 Ry

     iteration # 58     ecut=    30.00 Ry     beta=0.70
     Davidson diagonalization with overlap
     ethr =  2.91E-03,  avg # of iterations =  1.0

     total cpu time spent up to now is        3.1 secs

     total energy              =     -31.52635062 Ry
     Harris-Foulkes estimate   =     -31.54763932 Ry
     estimated scf accuracy    <       1.33113152 Ry

     iteration # 59     ecut=    30.00 Ry     beta=0.70
     Davidson diagonalization with overlap
     ethr =  2.91E-03,  avg # of iterations =  1.0

     total cpu time spent up to now is        3.1 secs

     total energy              =     -31.53128521 Ry
     Harris-Foulkes estimate   =     -31.53552696 Ry
     estimated scf accuracy    <       1.12470128 Ry

     iteration # 60     ecut=    30.00 Ry     beta=0.70
     Davidson diagonalization with overlap
     ethr =  2.91E-03,  avg # of iterations =  1.0

     total cpu time spent up to now is        3.2 secs

     total energy              =     -31.51729368 Ry
     Harris-Foulkes estimate   =     -31.53132859 Ry
     estimated scf accuracy    <       1.12923654 Ry

     iteration # 61     ecut=    30.00 Ry     beta=0.70
     Davidson diagonalization with overlap
     ethr =  2.91E-03,  avg # of iterations =  1.0

     total cpu time spent up to now is        3.2 secs

     total energy              =     -31.49279288 Ry
     Harris-Foulkes estimate   =     -31.51927587 Ry
     estimated scf accuracy    <       0.88717595 Ry

     iteration # 62     ecut=    30.00 Ry     beta=0.70
     Davidson diagonalization with overlap
     ethr =  2.91E-03,  avg # of iterations =  1.0

     total cpu time spent up to now is        3.2 secs

     total energy              =     -31.49822151 Ry
     Harris-Foulkes estimate   =     -31.50315318 Ry
     estimated scf accuracy    <       0.90943095 Ry

     iteration # 63     ecut=    30.00 Ry     beta=0.70
     Davidson diagonalization with overlap
     ethr =  2.91E-03,  avg # of iterations =  1.0

     total cpu time spent up to now is        3.3 secs

     total energy              =     -31.45363444 Ry
     Harris-Foulkes estimate   =     -31.49888039 Ry
     estimated scf accuracy    <       0.54380895 Ry

     iteration # 64     ecut=    30.00 Ry     beta=0.70
     Davidson diagonalization with overlap
     ethr =  2.91E-03,  avg # of iterations =  1.0

     total cpu time spent up to now is        3.3 secs

     total energy              =     -31.52588497 Ry
     Harris-Foulkes estimate   =     -31.55655324 Ry
     estimated scf accuracy    <       1.17461994 Ry

     iteration # 65     ecut=    30.00 Ry     beta=0.70
     Davidson diagonalization with overlap
     ethr =  2.91E-03,  avg # of iterations =  1.0

     total cpu time spent up to now is        3.3 secs

     total energy              =     -31.50261622 Ry
     Harris-Foulkes estimate   =     -31.52665375 Ry
     estimated scf accuracy    <       0.83776045 Ry

     iteration # 66     ecut=    30.00 Ry     beta=0.70
     Davidson diagonalization with overlap
     ethr =  2.91E-03,  avg # of iterations =  1.0

     total cpu time spent up to now is        3.4 secs

     total energy              =     -31.48879712 Ry
     Harris-Foulkes estimate   =     -31.50609141 Ry
     estimated scf accuracy    <       0.49517896 Ry

     iteration # 67     ecut=    30.00 Ry     beta=0.70
     Davidson diagonalization with overlap
     ethr =  2.91E-03,  avg # of iterations =  1.0

     total cpu time spent up to now is        3.4 secs

     total energy              =     -31.48958897 Ry
     Harris-Foulkes estimate   =     -31.49648891 Ry
     estimated scf accuracy    <       0.44057237 Ry

     iteration # 68     ecut=    30.00 Ry     beta=0.70
     Davidson diagonalization with overlap
     ethr =  2.91E-03,  avg # of iterations =  1.0

     total cpu time spent up to now is        3.4 secs

     total energy              =     -31.49196336 Ry
     Harris-Foulkes estimate   =     -31.49201489 Ry
     estimated scf accuracy    <       0.03362747 Ry

     iteration # 69     ecut=    30.00 Ry     beta=0.70
     Davidson diagonalization with overlap
     ethr =  4.20E-04,  avg # of iterations =  1.0

     total cpu time spent up to now is        3.5 secs

     total energy              =     -31.49209365 Ry
     Harris-Foulkes estimate   =     -31.49199623 Ry
     estimated scf accuracy    <       0.03472476 Ry

     iteration # 70     ecut=    30.00 Ry     beta=0.70
     Davidson diagonalization with overlap
     ethr =  4.20E-04,  avg # of iterations =  1.0

     total cpu time spent up to now is        3.5 secs

     total energy              =     -31.49141904 Ry
     Harris-Foulkes estimate   =     -31.49212105 Ry
     estimated scf accuracy    <       0.04713707 Ry

     iteration # 71     ecut=    30.00 Ry     beta=0.70
     Davidson diagonalization with overlap
     ethr =  4.20E-04,  avg # of iterations =  1.0

     total cpu time spent up to now is        3.5 secs

     total energy              =     -31.49168107 Ry
     Harris-Foulkes estimate   =     -31.49174476 Ry
     estimated scf accuracy    <       0.00655970 Ry

     iteration # 72     ecut=    30.00 Ry     beta=0.70
     Davidson diagonalization with overlap
     ethr =  8.20E-05,  avg # of iterations =  1.0

     total cpu time spent up to now is        3.6 secs

     total energy              =     -31.49174139 Ry
     Harris-Foulkes estimate   =     -31.49170255 Ry
     estimated scf accuracy    <       0.00263903 Ry

     iteration # 73     ecut=    30.00 Ry     beta=0.70
     Davidson diagonalization with overlap
     ethr =  3.30E-05,  avg # of iterations =  1.0

     total cpu time spent up to now is        3.6 secs

     total energy              =     -31.49181251 Ry
     Harris-Foulkes estimate   =     -31.49174955 Ry
     estimated scf accuracy    <       0.00533230 Ry

     iteration # 74     ecut=    30.00 Ry     beta=0.70
     Davidson diagonalization with overlap
     ethr =  3.30E-05,  avg # of iterations =  1.0

     total cpu time spent up to now is        3.6 secs

     total energy              =     -31.49151770 Ry
     Harris-Foulkes estimate   =     -31.49184028 Ry
     estimated scf accuracy    <       0.01256305 Ry

     iteration # 75     ecut=    30.00 Ry     beta=0.70
     Davidson diagonalization with overlap
     ethr =  3.30E-05,  avg # of iterations =  1.0

     total cpu time spent up to now is        3.7 secs

     total energy              =     -31.49165324 Ry
     Harris-Foulkes estimate   =     -31.49165716 Ry
     estimated scf accuracy    <       0.00036259 Ry

     iteration # 76     ecut=    30.00 Ry     beta=0.70
     Davidson diagonalization with overlap
     ethr =  4.53E-06,  avg # of iterations = 14.0

     total cpu time spent up to now is        3.7 secs

     total energy              =     -31.49165257 Ry
     Harris-Foulkes estimate   =     -31.49165437 Ry
     estimated scf accuracy    <       0.00010330 Ry

     iteration # 77     ecut=    30.00 Ry     beta=0.70
     Davidson diagonalization with overlap
     ethr =  1.29E-06,  avg # of iterations =  1.0

     total cpu time spent up to now is        3.7 secs

     total energy              =     -31.49165353 Ry
     Harris-Foulkes estimate   =     -31.49165357 Ry
     estimated scf accuracy    <       0.00000063 Ry

     iteration # 78     ecut=    30.00 Ry     beta=0.70
     Davidson diagonalization with overlap
     ethr =  7.88E-09,  avg # of iterations =  1.0

     total cpu time spent up to now is        3.8 secs

     total energy              =     -31.49165357 Ry
     Harris-Foulkes estimate   =     -31.49165356 Ry
     estimated scf accuracy    <       0.00000003 Ry

     iteration # 79     ecut=    30.00 Ry     beta=0.70
     Davidson diagonalization with overlap
     ethr =  3.17E-10,  avg # of iterations =  1.0

     total cpu time spent up to now is        3.8 secs

     End of self-consistent calculation

          k = 0.0000 0.0000 0.0000 ( 22119 PWs)   bands (ev):

   -23.6338  -7.0495  -7.0461  -7.0454  -6.9990  -6.8751  -0.2104   0.6549

     the Fermi energy is    -6.9115 ev

!    total energy              =     -31.49165354 Ry
     Harris-Foulkes estimate   =     -31.49165357 Ry
     estimated scf accuracy    <          6.8E-09 Ry

     convergence has been achieved in  79 iterations

     Forces acting on atoms (Ry/au):

     atom    1 type  1   force =    -0.00135584    0.00031190    0.00062095
     atom    2 type  1   force =     0.00100674   -0.00030096   -0.00101674
     atom    3 type  2   force =     0.00034911   -0.00001093    0.00039579

     Total force =     0.002177     Total SCF correction =     0.000085

     Entering Dynamics:    iteration =     2
                           time      =   0.0097 pico-seconds


     Andersen thermostat:    3 collisions

ATOMIC_POSITIONS (bohr)
H      217.672116464-108.548272450 395.973202123
H     -188.251661162 133.997686218-399.501744417
O       13.162977253   3.159677237  19.812000259


     kinetic energy (Ekin) =     0.01547840 Ry
     temperature           =   814.61420264 K 
     Ekin + Etot (const)   =   -31.47617515 Ry
     Message from routine dynamics:
     Total linear momentum <> 0

     Linear momentum :    0.1127600439   -0.1861402807    0.2392812432

     Writing output data file pwscf.save

     first order wave-functions extrapolation
     Message from extrapolate_wfcs: 
     the matrix <psi(t-dt)|psi(t)> has  1 small (< 0.1) eigenvalues
     Check: negative starting charge=   -0.347993
     first order charge density extrapolation
     Check: negative starting charge=   -0.348153

     negative rho (up, down):  5.214E-01 0.000E+00

     total cpu time spent up to now is        4.1 secs

     per-process dynamical memory:    20.4 Mb

     Self-consistent Calculation

     iteration #  1     ecut=    30.00 Ry     beta=0.70
     Davidson diagonalization with overlap
     ethr =  1.00E-06,  avg # of iterations = 11.0

     negative rho (up, down):  3.551E-02 0.000E+00

     total cpu time spent up to now is        4.3 secs

     total energy              =     120.86492340 Ry
     Harris-Foulkes estimate   =    -533.48300566 Ry
     estimated scf accuracy    <      51.68953365 Ry

     iteration #  2     ecut=    30.00 Ry     beta=0.70
     Davidson diagonalization with overlap
     ethr =  1.00E-02,  avg # of iterations = 12.0

     negative rho (up, down):  2.793E-03 0.000E+00

     total cpu time spent up to now is        4.4 secs

     total energy              =      33.74661612 Ry
     Harris-Foulkes estimate   =    -181.97916662 Ry
     estimated scf accuracy    <      22.46423190 Ry

     iteration #  3     ecut=    30.00 Ry     beta=0.70
     Davidson diagonalization with overlap
     ethr =  1.00E-02,  avg # of iterations =  8.0

     negative rho (up, down):  3.205E-03 0.000E+00

     total cpu time spent up to now is        4.4 secs

     total energy              =     -38.07357177 Ry
     Harris-Foulkes estimate   =     -47.21874834 Ry
     estimated scf accuracy    <      21.97149747 Ry

     iteration #  4     ecut=    30.00 Ry     beta=0.70
     Davidson diagonalization with overlap
     ethr =  1.00E-02,  avg # of iterations =  2.0

     negative rho (up, down):  3.206E-03 0.000E+00

     total cpu time spent up to now is        4.4 secs

     total energy              =     -37.05141955 Ry
     Harris-Foulkes estimate   =     -39.07258249 Ry
     estimated scf accuracy    <      11.96947318 Ry

     iteration #  5     ecut=    30.00 Ry     beta=0.70
     Davidson diagonalization with overlap
     ethr =  1.00E-02,  avg # of iterations =  1.0

     negative rho (up, down):  7.447E-02 0.000E+00

     total cpu time spent up to now is        4.5 secs

     total energy              =     -31.64567360 Ry
     Harris-Foulkes estimate   =     -37.06183586 Ry
     estimated scf accuracy    <       8.84325226 Ry

     iteration #  6     ecut=    30.00 Ry     beta=0.70
     Davidson diagonalization with overlap
     ethr =  1.00E-02,  avg # of iterations =  5.0

     negative rho (up, down):  7.281E-02 0.000E+00

     total cpu time spent up to now is        4.5 secs

     total energy              =     -13.58153059 Ry
     Harris-Foulkes estimate   =     -45.29917688 Ry
     estimated scf accuracy    <       7.22902959 Ry

     iteration #  7     ecut=    30.00 Ry     beta=0.70
     Davidson diagonalization with overlap
     ethr =  1.00E-02,  avg # of iterations =  3.0

     negative rho (up, down):  2.878E-02 0.000E+00

     total cpu time spent up to now is        4.5 secs

     total energy              =     -36.78059265 Ry
     Harris-Foulkes estimate   =     -33.61893559 Ry
     estimated scf accuracy    <       3.68283797 Ry

     iteration #  8     ecut=    30.00 Ry     beta=0.70
     Davidson diagonalization with overlap
     ethr =  1.00E-02,  avg # of iterations =  4.0

     negative rho (up, down):  5.148E-02 0.000E+00

     total cpu time spent up to now is        4.6 secs

     total energy              =     -30.04589981 Ry
     Harris-Foulkes estimate   =    -196.66862447 Ry
     estimated scf accuracy    <      18.57436176 Ry

     iteration #  9     ecut=    30.00 Ry     beta=0.70
     Davidson diagonalization with overlap
     ethr =  1.00E-02,  avg # of iterations =  4.0

     negative rho (up, down):  5.845E-02 0.000E+00

     total cpu time spent up to now is        4.6 secs

     total energy              =     -57.14376936 Ry
     Harris-Foulkes estimate   =    -139.12395437 Ry
     estimated scf accuracy    <      31.98018181 Ry

     iteration # 10     ecut=    30.00 Ry     beta=0.70
     Davidson diagonalization with overlap
     ethr =  1.00E-02,  avg # of iterations =  4.0

     negative rho (up, down):  6.081E-01 0.000E+00

     total cpu time spent up to now is        4.7 secs

     total energy              =     -18.28764358 Ry
     Harris-Foulkes estimate   =    -240.19729252 Ry
     estimated scf accuracy    <      29.60129580 Ry

     iteration # 11     ecut=    30.00 Ry     beta=0.70
     Davidson diagonalization with overlap
     ethr =  1.00E-02,  avg # of iterations =  5.0

     negative rho (up, down):  6.555E-01 0.000E+00

     total cpu time spent up to now is        4.7 secs

     total energy              =     -20.04203837 Ry
     Harris-Foulkes estimate   =    -262.06138314 Ry
     estimated scf accuracy    <      51.42295520 Ry

     iteration # 12     ecut=    30.00 Ry     beta=0.70
     Davidson diagonalization with overlap
     ethr =  1.00E-02,  avg # of iterations =  5.0

     negative rho (up, down):  7.611E-02 0.000E+00

     total cpu time spent up to now is        4.8 secs

     total energy              =     105.57494465 Ry
     Harris-Foulkes estimate   =    -624.11929153 Ry
     estimated scf accuracy    <      64.11449427 Ry

     iteration # 13     ecut=    30.00 Ry     beta=0.70
     Davidson diagonalization with overlap
     ethr =  1.00E-02,  avg # of iterations =  7.0

     negative rho (up, down):  1.383E-01 0.000E+00

     total cpu time spent up to now is        4.8 secs

     total energy              =     -17.36303246 Ry
     Harris-Foulkes estimate   =     -40.27918485 Ry
     estimated scf accuracy    <       7.31667094 Ry

     iteration # 14     ecut=    30.00 Ry     beta=0.70
     Davidson diagonalization with overlap
     ethr =  1.00E-02,  avg # of iterations =  5.0

     negative rho (up, down):  1.921E-01 0.000E+00

     total cpu time spent up to now is        4.9 secs

     total energy              =     -45.10500735 Ry
     Harris-Foulkes estimate   =    -554.00133981 Ry
     estimated scf accuracy    <      43.10246082 Ry

     iteration # 15     ecut=    30.00 Ry     beta=0.70
     Davidson diagonalization with overlap
     ethr =  1.00E-02,  avg # of iterations =  7.0

     negative rho (up, down):  3.228E-01 0.000E+00

     total cpu time spent up to now is        4.9 secs

     total energy              =   -2356.41966725 Ry
     Harris-Foulkes estimate   =   -5225.21142038 Ry
     estimated scf accuracy    <      41.20131263 Ry

     iteration # 16     ecut=    30.00 Ry     beta=0.70
     Davidson diagonalization with overlap
     ethr =  1.00E-02,  avg # of iterations =  6.0

     negative rho (up, down):  5.405E-01 0.000E+00

     total cpu time spent up to now is        5.0 secs

     total energy              =      98.34378210 Ry
     Harris-Foulkes estimate   =   -5360.25115785 Ry
     estimated scf accuracy    <      42.41423050 Ry

     iteration # 17     ecut=    30.00 Ry     beta=0.70
     Davidson diagonalization with overlap
     ethr =  1.00E-02,  avg # of iterations =  9.0

     negative rho (up, down):  6.348E-01 0.000E+00

     total cpu time spent up to now is        5.0 secs

     total energy              =       2.05192764 Ry
     Harris-Foulkes estimate   =   -1570.75982560 Ry
     estimated scf accuracy    <      42.44638305 Ry

     iteration # 18     ecut=    30.00 Ry     beta=0.70
     Davidson diagonalization with overlap
     ethr =  1.00E-02,  avg # of iterations =  6.0

     negative rho (up, down):  5.809E-01 0.000E+00

     total cpu time spent up to now is        5.1 secs

     total energy              =    -433.13008906 Ry
     Harris-Foulkes estimate   =    -314.94578536 Ry
     estimated scf accuracy    <      41.42771997 Ry

     iteration # 19     ecut=    30.00 Ry     beta=0.70
     Davidson diagonalization with overlap
     ethr =  1.00E-02,  avg # of iterations =  5.0

     negative rho (up, down):  8.907E-01 0.000E+00

     total cpu time spent up to now is        5.1 secs

     total energy              =       8.98706866 Ry
     Harris-Foulkes estimate   =   -5616.00311968 Ry
     estimated scf accuracy    <      31.03470124 Ry

     iteration # 20     ecut=    30.00 Ry     beta=0.70
     Davidson diagonalization with overlap
     ethr =  1.00E-02,  avg # of iterations =  6.0

     negative rho (up, down):  9.251E-01 0.000E+00

     total cpu time spent up to now is        5.2 secs

     total energy              =      56.01767999 Ry
     Harris-Foulkes estimate   =    -793.99499963 Ry
     estimated scf accuracy    <      30.59440298 Ry

     iteration # 21     ecut=    30.00 Ry     beta=0.70
     Davidson diagonalization with overlap
     ethr =  1.00E-02,  avg # of iterations =  6.0

     negative rho (up, down):  6.820E-01 0.000E+00

     total cpu time spent up to now is        5.2 secs

     total energy              =     287.31284667 Ry
     Harris-Foulkes estimate   =    -670.39512603 Ry
     estimated scf accuracy    <      38.24584847 Ry

     iteration # 22     ecut=    30.00 Ry     beta=0.70
     Davidson diagonalization with overlap
     ethr =  1.00E-02,  avg # of iterations =  8.0

     negative rho (up, down):  1.135E+00 0.000E+00

     total cpu time spent up to now is        5.3 secs

     total energy              =       9.39961064 Ry
     Harris-Foulkes estimate   =    -224.29152048 Ry
     estimated scf accuracy    <      15.77600636 Ry

     iteration # 23     ecut=    30.00 Ry     beta=0.70
     Davidson diagonalization with overlap
     ethr =  1.00E-02,  avg # of iterations =  7.0

     negative rho (up, down):  3.301E-01 0.000E+00

     total cpu time spent up to now is        5.3 secs

     total energy              =     914.88527214 Ry
     Harris-Foulkes estimate   =   -1553.54483744 Ry
     estimated scf accuracy    <      25.87429534 Ry

     iteration # 24     ecut=    30.00 Ry     beta=0.70
     Davidson diagonalization with overlap
     ethr =  1.00E-02,  avg # of iterations =  7.0

     negative rho (up, down):  3.266E-01 0.000E+00

     total cpu time spent up to now is        5.4 secs

     total energy              =      83.52109451 Ry
     Harris-Foulkes estimate   =   -8927.26671944 Ry
     estimated scf accuracy    <      17.82476795 Ry

     iteration # 25     ecut=    30.00 Ry     beta=0.70
     Davidson diagonalization with overlap
     ethr =  1.00E-02,  avg # of iterations =  9.0

     negative rho (up, down):  3.028E-01 0.000E+00

     total cpu time spent up to now is        5.4 secs

     total energy              =   -1508.87947467 Ry
     Harris-Foulkes estimate   =    -837.61911254 Ry
     estimated scf accuracy    <      17.60951316 Ry

     iteration # 26     ecut=    30.00 Ry     beta=0.70
     Davidson diagonalization with overlap
     ethr =  1.00E-02,  avg # of iterations =  9.0

     negative rho (up, down):  2.935E-01 0.000E+00

     total cpu time spent up to now is        5.5 secs

     total energy              =   -1347.03005949 Ry
     Harris-Foulkes estimate   =   -4887.09950466 Ry
     estimated scf accuracy    <      15.68005491 Ry

     iteration # 27     ecut=    30.00 Ry     beta=0.70
     Davidson diagonalization with overlap
     ethr =  1.00E-02,  avg # of iterations =  7.0

     negative rho (up, down):  4.095E-02 0.000E+00

     total cpu time spent up to now is        5.5 secs

     total energy              =    4016.25122004 Ry
     Harris-Foulkes estimate   =   -3739.68100578 Ry
     estimated scf accuracy    <      21.33826886 Ry

     iteration # 28     ecut=    30.00 Ry     beta=0.70
     Davidson diagonalization with overlap
     ethr =  1.00E-02,  avg # of iterations =  7.0

     negative rho (up, down):  6.227E-04 0.000E+00

     total cpu time spent up to now is        5.6 secs

     total energy              =      43.74487985 Ry
     Harris-Foulkes estimate   =    -434.95810417 Ry
     estimated scf accuracy    <      12.41672652 Ry

     iteration # 29     ecut=    30.00 Ry     beta=0.70
     Davidson diagonalization with overlap
     ethr =  1.00E-02,  avg # of iterations =  8.0

     negative rho (up, down):  7.139E-04 0.000E+00

     total cpu time spent up to now is        5.6 secs

     total energy              =     -46.08286145 Ry
     Harris-Foulkes estimate   =     -50.38222477 Ry
     estimated scf accuracy    <      30.82166114 Ry

     iteration # 30     ecut=    30.00 Ry     beta=0.70
     Davidson diagonalization with overlap
     ethr =  1.00E-02,  avg # of iterations =  1.0

     negative rho (up, down):  2.033E-01 0.000E+00

     total cpu time spent up to now is        5.7 secs

     total energy              =     -36.88889564 Ry
     Harris-Foulkes estimate   =     -46.12681219 Ry
     estimated scf accuracy    <      24.44453778 Ry

     iteration # 31     ecut=    30.00 Ry     beta=0.70
     Davidson diagonalization with overlap
     ethr =  1.00E-02,  avg # of iterations =  8.0

     negative rho (up, down):  1.659E-02 0.000E+00

     total cpu time spent up to now is        5.7 secs

     total energy              =     103.52448421 Ry
     Harris-Foulkes estimate   =    -400.67707980 Ry
     estimated scf accuracy    <      32.38902359 Ry

     iteration # 32     ecut=    30.00 Ry     beta=0.70
     Davidson diagonalization with overlap
     ethr =  1.00E-02,  avg # of iterations = 10.0

     negative rho (up, down):  2.231E-02 0.000E+00

     total cpu time spent up to now is        5.8 secs

     total energy              =      12.80339179 Ry
     Harris-Foulkes estimate   =    -104.49783784 Ry
     estimated scf accuracy    <       9.94739801 Ry

     iteration # 33     ecut=    30.00 Ry     beta=0.70
     Davidson diagonalization with overlap
     ethr =  1.00E-02,  avg # of iterations =  4.0

     negative rho (up, down):  2.238E-01 0.000E+00

     total cpu time spent up to now is        5.8 secs

     total energy              =       3.01590670 Ry
     Harris-Foulkes estimate   =   -2078.53695461 Ry
     estimated scf accuracy    <      10.56505014 Ry

     iteration # 34     ecut=    30.00 Ry     beta=0.70
     Davidson diagonalization with overlap
     ethr =  1.00E-02,  avg # of iterations =  9.0

     negative rho (up, down):  3.967E-01 0.000E+00

     total cpu time spent up to now is        5.9 secs

     total energy              =      71.40103565 Ry
     Harris-Foulkes estimate   =  -53924.16796292 Ry
     estimated scf accuracy    <      58.60022599 Ry

     iteration # 35     ecut=    30.00 Ry     beta=0.70
     Davidson diagonalization with overlap
     ethr =  1.00E-02,  avg # of iterations = 10.0

     negative rho (up, down):  1.752E-01 0.000E+00

     total cpu time spent up to now is        6.0 secs

     total energy              =      47.98676817 Ry
     Harris-Foulkes estimate   =   -1024.01571104 Ry
     estimated scf accuracy    <      34.71062949 Ry

     iteration # 36     ecut=    30.00 Ry     beta=0.70
     Davidson diagonalization with overlap
     ethr =  1.00E-02,  avg # of iterations =  6.0

     negative rho (up, down):  2.357E-03 0.000E+00

     total cpu time spent up to now is        6.0 secs

     total energy              =     111.64184960 Ry
     Harris-Foulkes estimate   =   -3390.33963956 Ry
     estimated scf accuracy    <      28.74817526 Ry

     iteration # 37     ecut=    30.00 Ry     beta=0.70
     Davidson diagonalization with overlap
     ethr =  1.00E-02,  avg # of iterations = 12.0

     negative rho (up, down):  1.927E-03 0.000E+00

     total cpu time spent up to now is        6.1 secs

     total energy              =     -41.81728210 Ry
     Harris-Foulkes estimate   =     -39.25242724 Ry
     estimated scf accuracy    <      12.20970006 Ry

     iteration # 38     ecut=    30.00 Ry     beta=0.70
     Davidson diagonalization with overlap
     ethr =  1.00E-02,  avg # of iterations =  2.0

     negative rho (up, down):  3.841E-02 0.000E+00

     total cpu time spent up to now is        6.2 secs

     total energy              =     -38.62796486 Ry
     Harris-Foulkes estimate   =     -43.35212533 Ry
     estimated scf accuracy    <      21.29354053 Ry

     iteration # 39     ecut=    30.00 Ry     beta=0.70
     Davidson diagonalization with overlap
     ethr =  1.00E-02,  avg # of iterations =  9.0

     negative rho (up, down):  9.742E-03 0.000E+00

     total cpu time spent up to now is        6.2 secs

     total energy              =      11.93870333 Ry
     Harris-Foulkes estimate   =    -102.49484883 Ry
     estimated scf accuracy    <      25.89167280 Ry

     iteration # 40     ecut=    30.00 Ry     beta=0.70
     Davidson diagonalization with overlap
     ethr =  1.00E-02,  avg # of iterations =  6.0

     negative rho (up, down):  4.891E-06 0.000E+00

     total cpu time spent up to now is        6.3 secs

     total energy              =      29.49011407 Ry
     Harris-Foulkes estimate   =    -103.55527775 Ry
     estimated scf accuracy    <      17.77644287 Ry

     iteration # 41     ecut=    30.00 Ry     beta=0.70
     Davidson diagonalization with overlap
     ethr =  1.00E-02,  avg # of iterations =  5.0

     negative rho (up, down):  3.230E-02 0.000E+00

     total cpu time spent up to now is        6.3 secs

     total energy              =     -37.22402303 Ry
     Harris-Foulkes estimate   =     -38.37743917 Ry
     estimated scf accuracy    <      10.95587439 Ry

     iteration # 42     ecut=    30.00 Ry     beta=0.70
     Davidson diagonalization with overlap
     ethr =  1.00E-02,  avg # of iterations =  4.0

     negative rho (up, down):  2.241E-01 0.000E+00

     total cpu time spent up to now is        6.3 secs

     total energy              =    -298.11837119 Ry
     Harris-Foulkes estimate   =     -42.78637249 Ry
     estimated scf accuracy    <      11.23630187 Ry

     iteration # 43     ecut=    30.00 Ry     beta=0.70
     Davidson diagonalization with overlap
     ethr =  1.00E-02,  avg # of iterations =  6.0

     negative rho (up, down):  2.504E-01 0.000E+00

     total cpu time spent up to now is        6.4 secs

     total energy              =       0.68567448 Ry
     Harris-Foulkes estimate   =   -2751.34036133 Ry
     estimated scf accuracy    <      33.66845485 Ry

     iteration # 44     ecut=    30.00 Ry     beta=0.70
     Davidson diagonalization with overlap
     ethr =  1.00E-02,  avg # of iterations = 10.0

     negative rho (up, down):  2.231E-01 0.000E+00

     total cpu time spent up to now is        6.5 secs

     total energy              =       9.42859145 Ry
     Harris-Foulkes estimate   =    -183.11085394 Ry
     estimated scf accuracy    <      27.63864933 Ry

     iteration # 45     ecut=    30.00 Ry     beta=0.70
     Davidson diagonalization with overlap
     ethr =  1.00E-02,  avg # of iterations =  7.0

     negative rho (up, down):  1.125E-01 0.000E+00

     total cpu time spent up to now is        6.5 secs

     total energy              =      85.15059406 Ry
     Harris-Foulkes estimate   =    -757.80133521 Ry
     estimated scf accuracy    <      33.06612637 Ry

     iteration # 46     ecut=    30.00 Ry     beta=0.70
     Davidson diagonalization with overlap
     ethr =  1.00E-02,  avg # of iterations =  7.0

     negative rho (up, down):  7.819E-02 0.000E+00

     total cpu time spent up to now is        6.6 secs

     total energy              =      27.65148844 Ry
     Harris-Foulkes estimate   =    -938.84130891 Ry
     estimated scf accuracy    <      13.33707759 Ry

     iteration # 47     ecut=    30.00 Ry     beta=0.70
     Davidson diagonalization with overlap
     ethr =  1.00E-02,  avg # of iterations =  7.0

     negative rho (up, down):  1.359E-01 0.000E+00

     total cpu time spent up to now is        6.6 secs

     total energy              =     220.77824568 Ry
     Harris-Foulkes estimate   =   -1713.75905905 Ry
     estimated scf accuracy    <      36.60487969 Ry

     iteration # 48     ecut=    30.00 Ry     beta=0.70
     Davidson diagonalization with overlap
     ethr =  1.00E-02,  avg # of iterations =  5.0

     negative rho (up, down):  9.363E-02 0.000E+00

     total cpu time spent up to now is        6.6 secs

     total energy              =     104.54882963 Ry
     Harris-Foulkes estimate   =   -3613.78433498 Ry
     estimated scf accuracy    <      30.75863815 Ry

     iteration # 49     ecut=    30.00 Ry     beta=0.70
     Davidson diagonalization with overlap
     ethr =  1.00E-02,  avg # of iterations =  7.0

     negative rho (up, down):  2.272E-01 0.000E+00

     total cpu time spent up to now is        6.7 secs

     total energy              =      93.55881564 Ry
     Harris-Foulkes estimate   =   -1357.71802446 Ry
     estimated scf accuracy    <      31.87886110 Ry

     iteration # 50     ecut=    30.00 Ry     beta=0.70
     Davidson diagonalization with overlap
     ethr =  1.00E-02,  avg # of iterations = 13.0

     negative rho (up, down):  3.027E-01 0.000E+00

     total cpu time spent up to now is        6.8 secs

     total energy              =      11.21555522 Ry
     Harris-Foulkes estimate   =    -141.02497467 Ry
     estimated scf accuracy    <      11.87198904 Ry

     iteration # 51     ecut=    30.00 Ry     beta=0.70
     Davidson diagonalization with overlap
     ethr =  1.00E-02,  avg # of iterations =  7.0

     negative rho (up, down):  4.514E-01 0.000E+00

     total cpu time spent up to now is        6.8 secs

     total energy              =    -946.26980015 Ry
     Harris-Foulkes estimate   =     -91.34088086 Ry
     estimated scf accuracy    <      16.82765157 Ry

     iteration # 52     ecut=    30.00 Ry     beta=0.70
     Davidson diagonalization with overlap
     ethr =  1.00E-02,  avg # of iterations =  5.0

     negative rho (up, down):  4.533E-02 0.000E+00

     total cpu time spent up to now is        6.9 secs

     total energy              =     125.94074429 Ry
     Harris-Foulkes estimate   =  -17000.08794214 Ry
     estimated scf accuracy    <      30.61291857 Ry

     iteration # 53     ecut=    30.00 Ry     beta=0.70
     Davidson diagonalization with overlap
     ethr =  1.00E-02,  avg # of iterations =  9.0

     negative rho (up, down):  2.541E-01 0.000E+00

     total cpu time spent up to now is        6.9 secs

     total energy              =    -298.13180672 Ry
     Harris-Foulkes estimate   =    -503.22374823 Ry
     estimated scf accuracy    <      27.57947283 Ry

     iteration # 54     ecut=    30.00 Ry     beta=0.70
     Davidson diagonalization with overlap
     ethr =  1.00E-02,  avg # of iterations =  7.0

     negative rho (up, down):  4.810E-01 0.000E+00

     total cpu time spent up to now is        7.0 secs

     total energy              =      33.39972351 Ry
     Harris-Foulkes estimate   =   -7324.70594715 Ry
     estimated scf accuracy    <      33.49025331 Ry

     iteration # 55     ecut=    30.00 Ry     beta=0.70
     Davidson diagonalization with overlap
     ethr =  1.00E-02,  avg # of iterations =  6.0

     negative rho (up, down):  4.559E-01 0.000E+00

     total cpu time spent up to now is        7.0 secs

     total energy              =     -51.01009841 Ry
     Harris-Foulkes estimate   =   -1201.28154907 Ry
     estimated scf accuracy    <      28.17089328 Ry

     iteration # 56     ecut=    30.00 Ry     beta=0.70
     Davidson diagonalization with overlap
     ethr =  1.00E-02,  avg # of iterations =  7.0

     negative rho (up, down):  3.963E-01 0.000E+00

     total cpu time spent up to now is        7.1 secs

     total energy              =    -378.42358349 Ry
     Harris-Foulkes estimate   =   -1613.88793670 Ry
     estimated scf accuracy    <      18.32401218 Ry

     iteration # 57     ecut=    30.00 Ry     beta=0.70
     Davidson diagonalization with overlap
     ethr =  1.00E-02,  avg # of iterations =  8.0

     negative rho (up, down):  3.774E-01 0.000E+00

     total cpu time spent up to now is        7.1 secs

     total energy              =    -261.18406905 Ry
     Harris-Foulkes estimate   =   -2497.79756627 Ry
     estimated scf accuracy    <      21.20936729 Ry

     iteration # 58     ecut=    30.00 Ry     beta=0.70
     Davidson diagonalization with overlap
     ethr =  1.00E-02,  avg # of iterations = 10.0

     negative rho (up, down):  8.380E-03 0.000E+00

     total cpu time spent up to now is        7.2 secs

     total energy              =     114.30560886 Ry
     Harris-Foulkes estimate   =   -8118.90601957 Ry
     estimated scf accuracy    <      22.79655288 Ry

     iteration # 59     ecut=    30.00 Ry     beta=0.70
     Davidson diagonalization with overlap
     ethr =  1.00E-02,  avg # of iterations = 13.0

     negative rho (up, down):  1.060E-05 0.000E+00

     total cpu time spent up to now is        7.3 secs

     total energy              =     -16.90613856 Ry
     Harris-Foulkes estimate   =     -49.94459731 Ry
     estimated scf accuracy    <      17.17531363 Ry

     iteration # 60     ecut=    30.00 Ry     beta=0.70
     Davidson diagonalization with overlap
     ethr =  1.00E-02,  avg # of iterations =  5.0

     negative rho (up, down):  1.129E-02 0.000E+00

     total cpu time spent up to now is        7.3 secs

     total energy              =     -40.62851309 Ry
     Harris-Foulkes estimate   =     -42.45223365 Ry
     estimated scf accuracy    <      19.86698168 Ry

     iteration # 61     ecut=    30.00 Ry     beta=0.70
     Davidson diagonalization with overlap
     ethr =  1.00E-02,  avg # of iterations =  4.0

     negative rho (up, down):  2.530E-02 0.000E+00

     total cpu time spent up to now is        7.3 secs

     total energy              =     -20.63077860 Ry
     Harris-Foulkes estimate   =     -50.02415339 Ry
     estimated scf accuracy    <      15.52398507 Ry

     iteration # 62     ecut=    30.00 Ry     beta=0.70
     Davidson diagonalization with overlap
     ethr =  1.00E-02,  avg # of iterations =  4.0

     negative rho (up, down):  1.197E-01 0.000E+00

     total cpu time spent up to now is        7.4 secs

     total energy              =     -12.32162466 Ry
     Harris-Foulkes estimate   =    -340.31101691 Ry
     estimated scf accuracy    <      11.24878786 Ry

     iteration # 63     ecut=    30.00 Ry     beta=0.70
     Davidson diagonalization with overlap
     ethr =  1.00E-02,  avg # of iterations =  5.0

     negative rho (up, down):  1.724E-01 0.000E+00

     total cpu time spent up to now is        7.4 secs

     total energy              =   -1239.26618876 Ry
     Harris-Foulkes estimate   =    -495.42020776 Ry
     estimated scf accuracy    <      14.25825226 Ry

     iteration # 64     ecut=    30.00 Ry     beta=0.70
     Davidson diagonalization with overlap
     ethr =  1.00E-02,  avg # of iterations =  7.0

     negative rho (up, down):  2.177E-02 0.000E+00

     total cpu time spent up to now is        7.5 secs

     total energy              =     105.75490458 Ry
     Harris-Foulkes estimate   =  -13493.02107509 Ry
     estimated scf accuracy    <      27.57751535 Ry

     iteration # 65     ecut=    30.00 Ry     beta=0.70
     Davidson diagonalization with overlap
     ethr =  1.00E-02,  avg # of iterations =  9.0

     negative rho (up, down):  1.163E-04 0.000E+00

     total cpu time spent up to now is        7.5 secs

     total energy              =      56.11737157 Ry
     Harris-Foulkes estimate   =    -171.52255875 Ry
     estimated scf accuracy    <      20.93274647 Ry

     iteration # 66     ecut=    30.00 Ry     beta=0.70
     Davidson diagonalization with overlap
     ethr =  1.00E-02,  avg # of iterations =  7.0

     negative rho (up, down):  1.086E-03 0.000E+00

     total cpu time spent up to now is        7.6 secs

     total energy              =     -39.06505406 Ry
     Harris-Foulkes estimate   =     -40.23031393 Ry
     estimated scf accuracy    <      13.79490371 Ry

     iteration # 67     ecut=    30.00 Ry     beta=0.70
     Davidson diagonalization with overlap
     ethr =  1.00E-02,  avg # of iterations =  1.0

     negative rho (up, down):  5.801E-03 0.000E+00

     total cpu time spent up to now is        7.6 secs

     total energy              =     -37.11573948 Ry
     Harris-Foulkes estimate   =     -39.26156695 Ry
     estimated scf accuracy    <      12.93888444 Ry

     iteration # 68     ecut=    30.00 Ry     beta=0.70
     Davidson diagonalization with overlap
     ethr =  1.00E-02,  avg # of iterations =  4.0

     negative rho (up, down):  2.429E-02 0.000E+00

     total cpu time spent up to now is        7.7 secs

     total energy              =      31.40882531 Ry
     Harris-Foulkes estimate   =    -245.59886885 Ry
     estimated scf accuracy    <       7.90476503 Ry

     iteration # 69     ecut=    30.00 Ry     beta=0.70
     Davidson diagonalization with overlap
     ethr =  1.00E-02,  avg # of iterations = 10.0

     negative rho (up, down):  5.340E-02 0.000E+00

     total cpu time spent up to now is        7.7 secs

     total energy              =  -15752.31874516 Ry
     Harris-Foulkes estimate   =   -3940.03158607 Ry
     estimated scf accuracy    <      11.77617842 Ry

     iteration # 70     ecut=    30.00 Ry     beta=0.70
     Davidson diagonalization with overlap
     ethr =  1.00E-02,  avg # of iterations =  4.0

     negative rho (up, down):  3.121E-02 0.000E+00

     total cpu time spent up to now is        7.7 secs

     total energy              =    -294.95546770 Ry
     Harris-Foulkes estimate   =  -30347.56308118 Ry
     estimated scf accuracy    <      10.47357231 Ry

     iteration # 71     ecut=    30.00 Ry     beta=0.70
     Davidson diagonalization with overlap
     ethr =  1.00E-02,  avg # of iterations =  5.0

     negative rho (up, down):  6.801E-03 0.000E+00

     total cpu time spent up to now is        7.8 secs

     total energy              =       0.28987891 Ry
     Harris-Foulkes estimate   =   -1043.26114383 Ry
     estimated scf accuracy    <       7.98418887 Ry

     iteration # 72     ecut=    30.00 Ry     beta=0.70
     Davidson diagonalization with overlap
     ethr =  1.00E-02,  avg # of iterations =  7.0

     negative rho (up, down):  2.542E-02 0.000E+00

     total cpu time spent up to now is        7.8 secs

     total energy              =     -19.14919152 Ry
     Harris-Foulkes estimate   =    -112.56935568 Ry
     estimated scf accuracy    <      20.76016862 Ry

     iteration # 73     ecut=    30.00 Ry     beta=0.70
     Davidson diagonalization with overlap
     ethr =  1.00E-02,  avg # of iterations =  5.0

     negative rho (up, down):  8.663E-04 0.000E+00

     total cpu time spent up to now is        7.9 secs

     total energy              =       2.71900659 Ry
     Harris-Foulkes estimate   =    -234.27016413 Ry
     estimated scf accuracy    <       8.91317612 Ry

     iteration # 74     ecut=    30.00 Ry     beta=0.70
     Davidson diagonalization with overlap
     ethr =  1.00E-02,  avg # of iterations =  4.0

     negative rho (up, down):  1.009E-01 0.000E+00

     total cpu time spent up to now is        7.9 secs

     total energy              =     -24.82004656 Ry
     Harris-Foulkes estimate   =     -36.98374671 Ry
     estimated scf accuracy    <      10.99257156 Ry

     iteration # 75     ecut=    30.00 Ry     beta=0.70
     Davidson diagonalization with overlap
     ethr =  1.00E-02,  avg # of iterations =  8.0

     negative rho (up, down):  1.192E-01 0.000E+00

     total cpu time spent up to now is        8.0 secs

     total energy              =    -519.32752720 Ry
     Harris-Foulkes estimate   =    -276.75640176 Ry
     estimated scf accuracy    <      26.61540405 Ry

     iteration # 76     ecut=    30.00 Ry     beta=0.70
     Davidson diagonalization with overlap
     ethr =  1.00E-02,  avg # of iterations =  5.0

     negative rho (up, down):  1.222E-01 0.000E+00

     total cpu time spent up to now is        8.0 secs

     total energy              =     -55.97333596 Ry
     Harris-Foulkes estimate   =   -2187.78168424 Ry
     estimated scf accuracy    <      31.14598928 Ry

     iteration # 77     ecut=    30.00 Ry     beta=0.70
     Davidson diagonalization with overlap
     ethr =  1.00E-02,  avg # of iterations =  4.0

     negative rho (up, down):  1.383E-01 0.000E+00

     total cpu time spent up to now is        8.1 secs

     total energy              =     -85.18124521 Ry
     Harris-Foulkes estimate   =    -196.99952678 Ry
     estimated scf accuracy    <      27.52591057 Ry

     iteration # 78     ecut=    30.00 Ry     beta=0.70
     Davidson diagonalization with overlap
     ethr =  1.00E-02,  avg # of iterations =  5.0

     negative rho (up, down):  2.411E-01 0.000E+00

     total cpu time spent up to now is        8.1 secs

     total energy              =      32.70947383 Ry
     Harris-Foulkes estimate   =    -362.26723687 Ry
     estimated scf accuracy    <      14.66433557 Ry

     iteration # 79     ecut=    30.00 Ry     beta=0.70
     Davidson diagonalization with overlap
     ethr =  1.00E-02,  avg # of iterations =  8.0

     negative rho (up, down):  2.353E-01 0.000E+00

     total cpu time spent up to now is        8.2 secs

     total energy              =      48.19116528 Ry
     Harris-Foulkes estimate   =    -566.11391901 Ry
     estimated scf accuracy    <      46.54542634 Ry

     iteration # 80     ecut=    30.00 Ry     beta=0.70
     Davidson diagonalization with overlap
     ethr =  1.00E-02,  avg # of iterations =  7.0

     negative rho (up, down):  2.750E-01 0.000E+00

     total cpu time spent up to now is        8.2 secs

     total energy              =    -981.09440443 Ry
     Harris-Foulkes estimate   =   -1863.57922627 Ry
     estimated scf accuracy    <      43.30710806 Ry

     iteration # 81     ecut=    30.00 Ry     beta=0.70
     Davidson diagonalization with overlap
     ethr =  1.00E-02,  avg # of iterations =  6.0

     negative rho (up, down):  3.519E-01 0.000E+00

     total cpu time spent up to now is        8.3 secs

     total energy              =    -350.67899634 Ry
     Harris-Foulkes estimate   =   -2589.02724419 Ry
     estimated scf accuracy    <      42.39351120 Ry

     iteration # 82     ecut=    30.00 Ry     beta=0.70
     Davidson diagonalization with overlap
     ethr =  1.00E-02,  avg # of iterations =  5.0

     negative rho (up, down):  4.126E-01 0.000E+00

     total cpu time spent up to now is        8.3 secs

     total energy              =    -361.23788468 Ry
     Harris-Foulkes estimate   =   -2580.33980752 Ry
     estimated scf accuracy    <      43.03142115 Ry

     iteration # 83     ecut=    30.00 Ry     beta=0.70
     Davidson diagonalization with overlap
     ethr =  1.00E-02,  avg # of iterations =  7.0

     negative rho (up, down):  1.182E+00 0.000E+00

     total cpu time spent up to now is        8.4 secs

     total energy              =     -81.59560730 Ry
     Harris-Foulkes estimate   =   -5483.59044031 Ry
     estimated scf accuracy    <      40.45441043 Ry

     iteration # 84     ecut=    30.00 Ry     beta=0.70
     Davidson diagonalization with overlap
     ethr =  1.00E-02,  avg # of iterations =  7.0

     negative rho (up, down):  1.607E+00 0.000E+00

     total cpu time spent up to now is        8.4 secs

     total energy              =      27.80800852 Ry
     Harris-Foulkes estimate   =    -689.17886556 Ry
     estimated scf accuracy    <      39.22049708 Ry

     iteration # 85     ecut=    30.00 Ry     beta=0.70
     Davidson diagonalization with overlap
     ethr =  1.00E-02,  avg # of iterations =  7.0

     negative rho (up, down):  1.576E+00 0.000E+00

     total cpu time spent up to now is        8.5 secs

     total energy              =    -589.88310608 Ry
     Harris-Foulkes estimate   =   -2998.07578367 Ry
     estimated scf accuracy    <      35.82253417 Ry

     iteration # 86     ecut=    30.00 Ry     beta=0.70
     Davidson diagonalization with overlap
     ethr =  1.00E-02,  avg # of iterations =  7.0

     negative rho (up, down):  1.706E+00 0.000E+00

     total cpu time spent up to now is        8.5 secs

     total energy              =    -296.84552087 Ry
     Harris-Foulkes estimate   =   -6627.17828995 Ry
     estimated scf accuracy    <      31.68906653 Ry

     iteration # 87     ecut=    30.00 Ry     beta=0.70
     Davidson diagonalization with overlap
     ethr =  1.00E-02,  avg # of iterations =  8.0

     negative rho (up, down):  5.922E-01 0.000E+00

     total cpu time spent up to now is        8.6 secs

     total energy              =      34.97400219 Ry
     Harris-Foulkes estimate   =   -1765.76516341 Ry
     estimated scf accuracy    <      27.54165216 Ry

     iteration # 88     ecut=    30.00 Ry     beta=0.70
     Davidson diagonalization with overlap
     ethr =  1.00E-02,  avg # of iterations =  5.0

     negative rho (up, down):  5.689E-01 0.000E+00

     total cpu time spent up to now is        8.6 secs

     total energy              =      -1.62745988 Ry
     Harris-Foulkes estimate   =   -1786.58006802 Ry
     estimated scf accuracy    <      16.07308354 Ry

     iteration # 89     ecut=    30.00 Ry     beta=0.70
     Davidson diagonalization with overlap
     ethr =  1.00E-02,  avg # of iterations =  9.0

     negative rho (up, down):  3.257E-01 0.000E+00

     total cpu time spent up to now is        8.7 secs

     total energy              =      76.25910434 Ry
     Harris-Foulkes estimate   =   -2475.86474804 Ry
     estimated scf accuracy    <      28.90640039 Ry

     iteration # 90     ecut=    30.00 Ry     beta=0.70
     Davidson diagonalization with overlap
     ethr =  1.00E-02,  avg # of iterations =  5.0

     negative rho (up, down):  3.234E-01 0.000E+00

     total cpu time spent up to now is        8.8 secs

     total energy              =      99.69039798 Ry
     Harris-Foulkes estimate   =   -6583.12763963 Ry
     estimated scf accuracy    <      18.40873582 Ry

     iteration # 91     ecut=    30.00 Ry     beta=0.70
     Davidson diagonalization with overlap
     ethr =  1.00E-02,  avg # of iterations =  8.0

     negative rho (up, down):  1.605E-02 0.000E+00

     total cpu time spent up to now is        8.8 secs

     total energy              =      28.95583514 Ry
     Harris-Foulkes estimate   =   -5399.32143976 Ry
     estimated scf accuracy    <      30.43081582 Ry

     iteration # 92     ecut=    30.00 Ry     beta=0.70
     Davidson diagonalization with overlap
     ethr =  1.00E-02,  avg # of iterations =  6.0

     negative rho (up, down):  3.222E-02 0.000E+00

     total cpu time spent up to now is        8.9 secs

     total energy              =     -58.77218052 Ry
     Harris-Foulkes estimate   =     -68.57752239 Ry
     estimated scf accuracy    <      52.19785308 Ry

     iteration # 93     ecut=    30.00 Ry     beta=0.70
     Davidson diagonalization with overlap
     ethr =  1.00E-02,  avg # of iterations =  6.0

     negative rho (up, down):  4.799E-02 0.000E+00

     total cpu time spent up to now is        8.9 secs

     total energy              =      21.36072008 Ry
     Harris-Foulkes estimate   =   -3675.67816067 Ry
     estimated scf accuracy    <      25.92671893 Ry

     iteration # 94     ecut=    30.00 Ry     beta=0.70
     Davidson diagonalization with overlap
     ethr =  1.00E-02,  avg # of iterations =  4.0

     negative rho (up, down):  4.418E-02 0.000E+00

     total cpu time spent up to now is        9.0 secs

     total energy              =     -22.92730633 Ry
     Harris-Foulkes estimate   =     -94.73047509 Ry
     estimated scf accuracy    <      26.85090124 Ry

     iteration # 95     ecut=    30.00 Ry     beta=0.70
     Davidson diagonalization with overlap
     ethr =  1.00E-02,  avg # of iterations =  5.0

     negative rho (up, down):  2.438E-01 0.000E+00

     total cpu time spent up to now is        9.0 secs

     total energy              =     -50.08652458 Ry
     Harris-Foulkes estimate   =     -62.36321732 Ry
     estimated scf accuracy    <      43.55716876 Ry

     iteration # 96     ecut=    30.00 Ry     beta=0.70
     Davidson diagonalization with overlap
     ethr =  1.00E-02,  avg # of iterations = 10.0

     negative rho (up, down):  8.773E-02 0.000E+00

     total cpu time spent up to now is        9.1 secs

     total energy              =      19.17194732 Ry
     Harris-Foulkes estimate   =     -94.12355725 Ry
     estimated scf accuracy    <      25.48634727 Ry

     iteration # 97     ecut=    30.00 Ry     beta=0.70
     Davidson diagonalization with overlap
     ethr =  1.00E-02,  avg # of iterations =  9.0

     negative rho (up, down):  1.456E-01 0.000E+00

     total cpu time spent up to now is        9.1 secs

     total energy              =     -64.92926141 Ry
     Harris-Foulkes estimate   =    -131.74838112 Ry
     estimated scf accuracy    <      40.47993941 Ry

     iteration # 98     ecut=    30.00 Ry     beta=0.70
     Davidson diagonalization with overlap
     ethr =  1.00E-02,  avg # of iterations =  4.0

     negative rho (up, down):  3.364E-01 0.000E+00

     total cpu time spent up to now is        9.1 secs

     total energy              =     -60.15595628 Ry
     Harris-Foulkes estimate   =    -456.24550269 Ry
     estimated scf accuracy    <      26.94511614 Ry

     iteration # 99     ecut=    30.00 Ry     beta=0.70
     Davidson diagonalization with overlap
     ethr =  1.00E-02,  avg # of iterations = 11.0

     negative rho (up, down):  6.369E-01 0.000E+00

     total cpu time spent up to now is        9.2 secs

     total energy              =    -163.55368924 Ry
     Harris-Foulkes estimate   =    -203.57512130 Ry
     estimated scf accuracy    <      13.56600419 Ry

     iteration #100     ecut=    30.00 Ry     beta=0.70
     Davidson diagonalization with overlap
     ethr =  1.00E-02,  avg # of iterations =  8.0

     negative rho (up, down):  4.686E-01 0.000E+00

     total cpu time spent up to now is        9.3 secs

     total energy              =     -18.95661991 Ry
     Harris-Foulkes estimate   =   -2730.23203751 Ry
     estimated scf accuracy    <      17.23945759 Ry

     End of self-consistent calculation

     convergence NOT achieved after 100 iterations: stopping

     Writing output data file pwscf.save
 
     init_run     :      0.09s CPU      0.12s WALL (       1 calls)
     electrons    :      6.96s CPU      8.43s WALL (       3 calls)
     update_pot   :      0.19s CPU      0.28s WALL (       2 calls)
     forces       :      0.06s CPU      0.06s WALL (       2 calls)

     Called by init_run:
     wfcinit      :      0.01s CPU      0.03s WALL (       1 calls)
     potinit      :      0.02s CPU      0.03s WALL (       1 calls)

     Called by electrons:
     c_bands      :      3.40s CPU      3.53s WALL (     187 calls)
     sum_band     :      0.54s CPU      0.57s WALL (     187 calls)
     v_of_rho     :      1.40s CPU      1.48s WALL (     190 calls)
     mix_rho      :      1.38s CPU      2.28s WALL (     187 calls)

     Called by c_bands:
     init_us_2    :      0.02s CPU      0.02s WALL (     375 calls)
     cegterg      :      3.36s CPU      3.43s WALL (     187 calls)

     Called by sum_band:

     Called by *egterg:
     h_psi        :      2.81s CPU      2.88s WALL (    1013 calls)
     g_psi        :      0.03s CPU      0.03s WALL (     825 calls)
     cdiaghg      :      0.20s CPU      0.21s WALL (    1010 calls)

     Called by h_psi:
     h_psi:pot    :      2.79s CPU      2.86s WALL (    1013 calls)
     h_psi:calbec :      0.03s CPU      0.04s WALL (    1013 calls)
     vloc_psi     :      2.75s CPU      2.81s WALL (    1013 calls)
     add_vuspsi   :      0.01s CPU      0.01s WALL (    1013 calls)

     General routines
     calbec       :      0.04s CPU      0.05s WALL (    1022 calls)
     fft          :      0.83s CPU      0.88s WALL (    2094 calls)
     fftw         :      2.84s CPU      2.91s WALL (   12846 calls)
     davcio       :      0.21s CPU      0.82s WALL (    3488 calls)
 
     Parallel routines
     fft_scatter  :      1.35s CPU      1.44s WALL (   14940 calls)
 
     PWSCF        :     7.44s CPU         9.37s WALL

 
   This run was terminated on:   7: 3:16  14Feb2018            

=------------------------------------------------------------------------------=
   JOB DONE.
=------------------------------------------------------------------------------=
