
     Program PWSCF v.6.0 (svn rev. 13079) starts on 14Feb2018 at  7:32:41 

     This program is part of the open-source Quantum ESPRESSO suite
     for quantum simulation of materials; please cite
         "P. Giannozzi et al., J. Phys.:Condens. Matter 21 395502 (2009);
          URL http://www.quantum-espresso.org", 
     in publications or presentations arising from this work. More details at
     http://www.quantum-espresso.org/quote

     Parallel version (MPI), running on    28 processors
     R & G space division:  proc/nbgrp/npool/nimage =      28
     Reading input from inputs/MD-H2O-2/131.in

     Current dimensions of program PWSCF are:
     Max number of different atomic species (ntypx) = 10
     Max number of k-points (npk) =  40000
     Max angular momentum in pseudopotentials (lmaxx) =  3

     Subspace diagonalization in iterative solution of the eigenvalue problem:
     a serial algorithm will be used

 
     Parallelization info
     --------------------
     sticks:   dense  smooth     PW     G-vecs:    dense   smooth      PW
     Min         136     136     33                 6338     6338     787
     Max         137     137     34                 6341     6341     792
     Sum        3809    3809    949               177509   177509   22119
 


     bravais-lattice index     =            1
     lattice parameter (alat)  =      20.0000  a.u.
     unit-cell volume          =    8000.0000 (a.u.)^3
     number of atoms/cell      =            3
     number of atomic types    =            2
     number of electrons       =         8.00
     number of Kohn-Sham states=            8
     kinetic-energy cutoff     =      30.0000  Ry
     charge density cutoff     =     120.0000  Ry
     convergence threshold     =      1.0E-08
     mixing beta               =       0.7000
     number of iterations used =            8  plain     mixing
     Exchange-correlation      = BLYP ( 1  3  1  3 0 0)
     nstep                     =         5000


     celldm(1)=  20.000000  celldm(2)=   0.000000  celldm(3)=   0.000000
     celldm(4)=   0.000000  celldm(5)=   0.000000  celldm(6)=   0.000000

     crystal axes: (cart. coord. in units of alat)
               a(1) = (   1.000000   0.000000   0.000000 )  
               a(2) = (   0.000000   1.000000   0.000000 )  
               a(3) = (   0.000000   0.000000   1.000000 )  

     reciprocal axes: (cart. coord. in units 2 pi/alat)
               b(1) = (  1.000000  0.000000  0.000000 )  
               b(2) = (  0.000000  1.000000  0.000000 )  
               b(3) = (  0.000000  0.000000  1.000000 )  


     PseudoPot. # 1 for  H read from file:
     ./H.blyp-hgh.UPF
     MD5 check sum: c576e69559cde411e611be972c763230
     Pseudo is Norm-conserving, Zval =  1.0
     Generated in analytical, separable form
     Using radial grid of  929 points,  0 beta functions with: 

     PseudoPot. # 2 for  O read from file:
     ./O.blyp-hgh.UPF
     MD5 check sum: d0b7156309aa9befef28faac7bc56342
     Pseudo is Norm-conserving, Zval =  6.0
     Generated in analytical, separable form
     Using radial grid of 1095 points,  1 beta functions with: 
                l(1) =   0

     atomic species   valence    mass     pseudopotential
        H              1.00     1.01000      H( 1.00)
        O              6.00    16.00000      O( 1.00)

     No symmetry found



   Cartesian axes

     site n.     atom                  positions (alat units)
         1           H   tau(   1) = (   0.9118930   0.4337700   0.4799401  )
         2           H   tau(   2) = (   0.3045100   0.5605813   0.4077468  )
         3           O   tau(   3) = (   0.3102305   0.6199118   0.4872708  )

     number of k points=     1  Marzari-Vanderbilt smearing, width (Ry)=  0.0250
                       cart. coord. in units 2pi/alat
        k(    1) = (   0.0000000   0.0000000   0.0000000), wk =   2.0000000

     Dense  grid:   177509 G-vectors     FFT dimensions: (  72,  72,  72)

     Estimated max dynamical RAM per process >       6.09Mb

     Estimated total allocated dynamical RAM >     170.64Mb

     Initial potential from superposition of free atoms
     Check: negative starting charge=   -0.345641

     starting charge    7.99998, renormalised to    8.00000

     negative rho (up, down):  3.456E-01 0.000E+00
     Starting wfc are    6 randomized atomic wfcs +    2 random wfc

     total cpu time spent up to now is        0.2 secs

     per-process dynamical memory:    18.8 Mb

     Self-consistent Calculation

     iteration #  1     ecut=    30.00 Ry     beta=0.70
     Davidson diagonalization with overlap
     ethr =  1.00E-02,  avg # of iterations =  6.0

     negative rho (up, down):  9.051E-02 0.000E+00

     total cpu time spent up to now is        0.3 secs

     total energy              =     -30.42197289 Ry
     Harris-Foulkes estimate   =     -32.22679349 Ry
     estimated scf accuracy    <       2.08782706 Ry

     iteration #  2     ecut=    30.00 Ry     beta=0.70
     Davidson diagonalization with overlap
     ethr =  1.00E-02,  avg # of iterations =  3.0

     negative rho (up, down):  6.590E-02 0.000E+00

     total cpu time spent up to now is        0.3 secs

     total energy              =     -32.25896671 Ry
     Harris-Foulkes estimate   =     -34.46754801 Ry
     estimated scf accuracy    <       5.40590989 Ry

     iteration #  3     ecut=    30.00 Ry     beta=0.70
     Davidson diagonalization with overlap
     ethr =  1.00E-02,  avg # of iterations =  2.0

     negative rho (up, down):  6.337E-02 0.000E+00

     total cpu time spent up to now is        0.3 secs

     total energy              =     -32.40932512 Ry
     Harris-Foulkes estimate   =     -32.49132008 Ry
     estimated scf accuracy    <       1.73443063 Ry

     iteration #  4     ecut=    30.00 Ry     beta=0.70
     Davidson diagonalization with overlap
     ethr =  1.00E-02,  avg # of iterations =  1.0

     negative rho (up, down):  1.235E-02 0.000E+00

     total cpu time spent up to now is        0.4 secs

     total energy              =     -31.33251353 Ry
     Harris-Foulkes estimate   =     -32.40968779 Ry
     estimated scf accuracy    <       1.61967100 Ry

     iteration #  5     ecut=    30.00 Ry     beta=0.70
     Davidson diagonalization with overlap
     ethr =  1.00E-02,  avg # of iterations =  3.0

     negative rho (up, down):  8.475E-03 0.000E+00

     total cpu time spent up to now is        0.4 secs

     total energy              =     -33.02249746 Ry
     Harris-Foulkes estimate   =     -33.10109944 Ry
     estimated scf accuracy    <       4.60033939 Ry

     iteration #  6     ecut=    30.00 Ry     beta=0.70
     Davidson diagonalization with overlap
     ethr =  1.00E-02,  avg # of iterations =  1.0

     negative rho (up, down):  1.150E-02 0.000E+00

     total cpu time spent up to now is        0.4 secs

     total energy              =     -32.85386462 Ry
     Harris-Foulkes estimate   =     -33.03409321 Ry
     estimated scf accuracy    <       3.38293399 Ry

     iteration #  7     ecut=    30.00 Ry     beta=0.70
     Davidson diagonalization with overlap
     ethr =  1.00E-02,  avg # of iterations =  1.0

     negative rho (up, down):  8.295E-03 0.000E+00

     total cpu time spent up to now is        0.5 secs

     total energy              =     -32.37056632 Ry
     Harris-Foulkes estimate   =     -32.86029188 Ry
     estimated scf accuracy    <       2.89088115 Ry

     iteration #  8     ecut=    30.00 Ry     beta=0.70
     Davidson diagonalization with overlap
     ethr =  1.00E-02,  avg # of iterations =  1.0

     negative rho (up, down):  5.779E-03 0.000E+00

     total cpu time spent up to now is        0.5 secs

     total energy              =     -32.00606394 Ry
     Harris-Foulkes estimate   =     -32.38608659 Ry
     estimated scf accuracy    <       1.95337281 Ry

     iteration #  9     ecut=    30.00 Ry     beta=0.70
     Davidson diagonalization with overlap
     ethr =  1.00E-02,  avg # of iterations =  1.0

     negative rho (up, down):  5.152E-03 0.000E+00

     total cpu time spent up to now is        0.5 secs

     total energy              =     -31.81438643 Ry
     Harris-Foulkes estimate   =     -32.02002343 Ry
     estimated scf accuracy    <       1.27725238 Ry

     iteration # 10     ecut=    30.00 Ry     beta=0.70
     Davidson diagonalization with overlap
     ethr =  1.00E-02,  avg # of iterations =  1.0

     negative rho (up, down):  1.674E-02 0.000E+00

     total cpu time spent up to now is        0.6 secs

     total energy              =     -31.92004886 Ry
     Harris-Foulkes estimate   =     -32.04046627 Ry
     estimated scf accuracy    <       0.96312169 Ry

     iteration # 11     ecut=    30.00 Ry     beta=0.70
     Davidson diagonalization with overlap
     ethr =  1.00E-02,  avg # of iterations =  1.0

     negative rho (up, down):  2.464E-02 0.000E+00

     total cpu time spent up to now is        0.6 secs

     total energy              =     -31.99310024 Ry
     Harris-Foulkes estimate   =     -31.95015845 Ry
     estimated scf accuracy    <       0.23161545 Ry

     iteration # 12     ecut=    30.00 Ry     beta=0.70
     Davidson diagonalization with overlap
     ethr =  2.90E-03,  avg # of iterations =  1.0

     negative rho (up, down):  2.489E-02 0.000E+00

     total cpu time spent up to now is        0.6 secs

     total energy              =     -32.00995777 Ry
     Harris-Foulkes estimate   =     -32.04194560 Ry
     estimated scf accuracy    <       1.28243766 Ry

     iteration # 13     ecut=    30.00 Ry     beta=0.70
     Davidson diagonalization with overlap
     ethr =  2.90E-03,  avg # of iterations =  1.0

     negative rho (up, down):  2.257E-02 0.000E+00

     total cpu time spent up to now is        0.7 secs

     total energy              =     -31.96587355 Ry
     Harris-Foulkes estimate   =     -32.00989597 Ry
     estimated scf accuracy    <       1.29361221 Ry

     iteration # 14     ecut=    30.00 Ry     beta=0.70
     Davidson diagonalization with overlap
     ethr =  2.90E-03,  avg # of iterations =  1.0

     negative rho (up, down):  2.482E-02 0.000E+00

     total cpu time spent up to now is        0.7 secs

     total energy              =     -32.00877431 Ry
     Harris-Foulkes estimate   =     -31.96346629 Ry
     estimated scf accuracy    <       1.09352629 Ry

     iteration # 15     ecut=    30.00 Ry     beta=0.70
     Davidson diagonalization with overlap
     ethr =  2.90E-03,  avg # of iterations =  1.0

     negative rho (up, down):  3.908E-03 0.000E+00

     total cpu time spent up to now is        0.7 secs

     total energy              =     -31.81768008 Ry
     Harris-Foulkes estimate   =     -32.01405111 Ry
     estimated scf accuracy    <       1.27125816 Ry

     iteration # 16     ecut=    30.00 Ry     beta=0.70
     Davidson diagonalization with overlap
     ethr =  2.90E-03,  avg # of iterations =  1.0

     negative rho (up, down):  6.059E-04 0.000E+00

     total cpu time spent up to now is        0.8 secs

     total energy              =     -31.98418442 Ry
     Harris-Foulkes estimate   =     -32.03629299 Ry
     estimated scf accuracy    <       0.97786635 Ry

     iteration # 17     ecut=    30.00 Ry     beta=0.70
     Davidson diagonalization with overlap
     ethr =  2.90E-03,  avg # of iterations =  1.0

     negative rho (up, down):  8.508E-04 0.000E+00

     total cpu time spent up to now is        0.8 secs

     total energy              =     -31.94787569 Ry
     Harris-Foulkes estimate   =     -31.98456547 Ry
     estimated scf accuracy    <       0.89298958 Ry

     iteration # 18     ecut=    30.00 Ry     beta=0.70
     Davidson diagonalization with overlap
     ethr =  2.90E-03,  avg # of iterations =  1.0

     negative rho (up, down):  9.430E-04 0.000E+00

     total cpu time spent up to now is        0.8 secs

     total energy              =     -31.92046196 Ry
     Harris-Foulkes estimate   =     -31.95193318 Ry
     estimated scf accuracy    <       0.30738403 Ry

     iteration # 19     ecut=    30.00 Ry     beta=0.70
     Davidson diagonalization with overlap
     ethr =  2.90E-03,  avg # of iterations =  1.0

     negative rho (up, down):  3.141E-05 0.000E+00

     total cpu time spent up to now is        0.9 secs

     total energy              =     -31.90780033 Ry
     Harris-Foulkes estimate   =     -31.97656402 Ry
     estimated scf accuracy    <       1.52439846 Ry

     iteration # 20     ecut=    30.00 Ry     beta=0.70
     Davidson diagonalization with overlap
     ethr =  2.90E-03,  avg # of iterations =  1.0

     negative rho (up, down):  9.602E-06 0.000E+00

     total cpu time spent up to now is        0.9 secs

     total energy              =     -31.94341405 Ry
     Harris-Foulkes estimate   =     -31.95073190 Ry
     estimated scf accuracy    <       0.24506673 Ry

     iteration # 21     ecut=    30.00 Ry     beta=0.70
     Davidson diagonalization with overlap
     ethr =  2.90E-03,  avg # of iterations =  1.0

     total cpu time spent up to now is        0.9 secs

     total energy              =     -31.94674844 Ry
     Harris-Foulkes estimate   =     -31.94674629 Ry
     estimated scf accuracy    <       0.00023111 Ry

     iteration # 22     ecut=    30.00 Ry     beta=0.70
     Davidson diagonalization with overlap
     ethr =  2.89E-06,  avg # of iterations = 14.0

     total cpu time spent up to now is        1.0 secs

     total energy              =     -31.94689625 Ry
     Harris-Foulkes estimate   =     -31.94674947 Ry
     estimated scf accuracy    <       0.00036254 Ry

     iteration # 23     ecut=    30.00 Ry     beta=0.70
     Davidson diagonalization with overlap
     ethr =  2.89E-06,  avg # of iterations =  1.0

     total cpu time spent up to now is        1.0 secs

     total energy              =     -31.94573174 Ry
     Harris-Foulkes estimate   =     -31.94772563 Ry
     estimated scf accuracy    <       0.06754286 Ry

     iteration # 24     ecut=    30.00 Ry     beta=0.70
     Davidson diagonalization with overlap
     ethr =  2.89E-06,  avg # of iterations =  1.0

     total cpu time spent up to now is        1.0 secs

     total energy              =     -31.94676137 Ry
     Harris-Foulkes estimate   =     -31.94674819 Ry
     estimated scf accuracy    <       0.00016732 Ry

     iteration # 25     ecut=    30.00 Ry     beta=0.70
     Davidson diagonalization with overlap
     ethr =  2.09E-06,  avg # of iterations =  1.0

     total cpu time spent up to now is        1.1 secs

     total energy              =     -31.94669321 Ry
     Harris-Foulkes estimate   =     -31.94677826 Ry
     estimated scf accuracy    <       0.00234887 Ry

     iteration # 26     ecut=    30.00 Ry     beta=0.70
     Davidson diagonalization with overlap
     ethr =  2.09E-06,  avg # of iterations =  1.0

     total cpu time spent up to now is        1.1 secs

     total energy              =     -31.94674261 Ry
     Harris-Foulkes estimate   =     -31.94675097 Ry
     estimated scf accuracy    <       0.00030615 Ry

     iteration # 27     ecut=    30.00 Ry     beta=0.70
     Davidson diagonalization with overlap
     ethr =  2.09E-06,  avg # of iterations =  1.0

     total cpu time spent up to now is        1.1 secs

     total energy              =     -31.94674701 Ry
     Harris-Foulkes estimate   =     -31.94674680 Ry
     estimated scf accuracy    <       0.00000007 Ry

     iteration # 28     ecut=    30.00 Ry     beta=0.70
     Davidson diagonalization with overlap
     ethr =  8.53E-10,  avg # of iterations =  2.0

     total cpu time spent up to now is        1.2 secs

     total energy              =     -31.94674687 Ry
     Harris-Foulkes estimate   =     -31.94674708 Ry
     estimated scf accuracy    <       0.00000557 Ry

     iteration # 29     ecut=    30.00 Ry     beta=0.70
     Davidson diagonalization with overlap
     ethr =  8.53E-10,  avg # of iterations =  1.0

     total cpu time spent up to now is        1.2 secs

     total energy              =     -31.94674700 Ry
     Harris-Foulkes estimate   =     -31.94674701 Ry
     estimated scf accuracy    <       0.00000094 Ry

     iteration # 30     ecut=    30.00 Ry     beta=0.70
     Davidson diagonalization with overlap
     ethr =  8.53E-10,  avg # of iterations =  1.0

     total cpu time spent up to now is        1.2 secs

     total energy              =     -31.94674702 Ry
     Harris-Foulkes estimate   =     -31.94674701 Ry
     estimated scf accuracy    <       0.00000007 Ry

     iteration # 31     ecut=    30.00 Ry     beta=0.70
     Davidson diagonalization with overlap
     ethr =  8.53E-10,  avg # of iterations =  1.0

     total cpu time spent up to now is        1.3 secs

     total energy              =     -31.94674702 Ry
     Harris-Foulkes estimate   =     -31.94674702 Ry
     estimated scf accuracy    <       0.00000003 Ry

     iteration # 32     ecut=    30.00 Ry     beta=0.70
     Davidson diagonalization with overlap
     ethr =  3.44E-10,  avg # of iterations =  1.0

     total cpu time spent up to now is        1.3 secs

     total energy              =     -31.94674701 Ry
     Harris-Foulkes estimate   =     -31.94674702 Ry
     estimated scf accuracy    <       0.00000002 Ry

     iteration # 33     ecut=    30.00 Ry     beta=0.70
     Davidson diagonalization with overlap
     ethr =  2.08E-10,  avg # of iterations =  1.0

     total cpu time spent up to now is        1.3 secs

     End of self-consistent calculation

          k = 0.0000 0.0000 0.0000 ( 22119 PWs)   bands (ev):

   -24.7968 -10.6453  -7.0626  -7.0536  -6.9056  -0.6923   0.3219   0.8178

     the Fermi energy is    -6.8833 ev

!    total energy              =     -31.94674701 Ry
     Harris-Foulkes estimate   =     -31.94674701 Ry
     estimated scf accuracy    <          6.6E-11 Ry

     convergence has been achieved in  33 iterations

     Forces acting on atoms (Ry/au):

     atom    1 type  1   force =     0.00008161    0.00041841    0.00007728
     atom    2 type  1   force =    -0.00112976   -0.01050491   -0.01416995
     atom    3 type  2   force =     0.00104816    0.01008650    0.01409267

     Total force =     0.024780     Total SCF correction =     0.000006

     Molecular Dynamics Calculation

     Starting temperature  =  1000.00 K

     temperature is controlled by Andersen thermostat
     Collision frequency = 1.0000/timestep
     mass H                =     1.01
     mass O                =    16.00
     Time step             =   100.00 a.u.,  4.8378 femto-seconds

     Entering Dynamics:    iteration =     1
                           time      =   0.0048 pico-seconds


     Andersen thermostat:    3 collisions

ATOMIC_POSITIONS (bohr)
H       17.982072526   9.101597801   9.657161319
H        5.725889997  11.246626150   8.244605033
O        6.243753527  12.369122753   9.736071647


     kinetic energy (Ekin) =     0.02103809 Ry
     temperature           =  1107.21597979 K 
     Ekin + Etot (const)   =   -31.92570892 Ry

     Linear momentum :   -0.0000000000    0.0000000000    0.0000000000

     Writing output data file pwscf.save
     Check: negative starting charge=   -0.345641
     NEW-OLD atomic charge density approx. for the potential
     Check: negative starting charge=   -0.346061

     negative rho (up, down):  1.005E-01 0.000E+00

     total cpu time spent up to now is        1.7 secs

     per-process dynamical memory:    20.4 Mb

     Self-consistent Calculation

     iteration #  1     ecut=    30.00 Ry     beta=0.70
     Davidson diagonalization with overlap
     c_bands:  1 eigenvalues not converged
     ethr =  1.00E-06,  avg # of iterations = 20.0

     negative rho (up, down):  2.534E-02 0.000E+00

     total cpu time spent up to now is        1.8 secs

     total energy              =     -31.80457920 Ry
     Harris-Foulkes estimate   =     -31.87405228 Ry
     estimated scf accuracy    <       0.15379855 Ry

     iteration #  2     ecut=    30.00 Ry     beta=0.70
     Davidson diagonalization with overlap
     ethr =  1.92E-03,  avg # of iterations =  2.0

     negative rho (up, down):  2.076E-02 0.000E+00

     total cpu time spent up to now is        1.9 secs

     total energy              =     -31.97486835 Ry
     Harris-Foulkes estimate   =     -32.48854433 Ry
     estimated scf accuracy    <       2.27756053 Ry

     iteration #  3     ecut=    30.00 Ry     beta=0.70
     Davidson diagonalization with overlap
     ethr =  1.92E-03,  avg # of iterations =  2.0

     negative rho (up, down):  1.983E-02 0.000E+00

     total cpu time spent up to now is        1.9 secs

     total energy              =     -31.94568580 Ry
     Harris-Foulkes estimate   =     -32.00934553 Ry
     estimated scf accuracy    <       1.27563876 Ry

     iteration #  4     ecut=    30.00 Ry     beta=0.70
     Davidson diagonalization with overlap
     ethr =  1.92E-03,  avg # of iterations =  1.0

     negative rho (up, down):  1.730E-02 0.000E+00

     total cpu time spent up to now is        2.0 secs

     total energy              =     -31.83256561 Ry
     Harris-Foulkes estimate   =     -31.94240316 Ry
     estimated scf accuracy    <       1.10127354 Ry

     iteration #  5     ecut=    30.00 Ry     beta=0.70
     Davidson diagonalization with overlap
     ethr =  1.92E-03,  avg # of iterations =  1.0

     negative rho (up, down):  2.150E-03 0.000E+00

     total cpu time spent up to now is        2.0 secs

     total energy              =     -31.99020652 Ry
     Harris-Foulkes estimate   =     -31.98994364 Ry
     estimated scf accuracy    <       0.93737116 Ry

     iteration #  6     ecut=    30.00 Ry     beta=0.70
     Davidson diagonalization with overlap
     ethr =  1.92E-03,  avg # of iterations =  1.0

     negative rho (up, down):  2.762E-04 0.000E+00

     total cpu time spent up to now is        2.0 secs

     total energy              =     -31.95018220 Ry
     Harris-Foulkes estimate   =     -31.99043846 Ry
     estimated scf accuracy    <       0.91217240 Ry

     iteration #  7     ecut=    30.00 Ry     beta=0.70
     Davidson diagonalization with overlap
     ethr =  1.92E-03,  avg # of iterations =  1.0

     negative rho (up, down):  2.087E-04 0.000E+00

     total cpu time spent up to now is        2.1 secs

     total energy              =     -31.93654677 Ry
     Harris-Foulkes estimate   =     -31.95282422 Ry
     estimated scf accuracy    <       0.45214286 Ry

     iteration #  8     ecut=    30.00 Ry     beta=0.70
     Davidson diagonalization with overlap
     ethr =  1.92E-03,  avg # of iterations =  1.0

     negative rho (up, down):  1.542E-04 0.000E+00

     total cpu time spent up to now is        2.1 secs

     total energy              =     -31.94401679 Ry
     Harris-Foulkes estimate   =     -31.94447189 Ry
     estimated scf accuracy    <       0.00401535 Ry

     iteration #  9     ecut=    30.00 Ry     beta=0.70
     Davidson diagonalization with overlap
     ethr =  5.02E-05,  avg # of iterations =  8.0

     negative rho (up, down):  4.038E-08 0.000E+00

     total cpu time spent up to now is        2.2 secs

     total energy              =     -31.94232365 Ry
     Harris-Foulkes estimate   =     -31.94502144 Ry
     estimated scf accuracy    <       0.04191284 Ry

     iteration # 10     ecut=    30.00 Ry     beta=0.70
     Davidson diagonalization with overlap
     ethr =  5.02E-05,  avg # of iterations =  1.0

     total cpu time spent up to now is        2.2 secs

     total energy              =     -31.94240353 Ry
     Harris-Foulkes estimate   =     -31.94557289 Ry
     estimated scf accuracy    <       0.08737354 Ry

     iteration # 11     ecut=    30.00 Ry     beta=0.70
     Davidson diagonalization with overlap
     ethr =  5.02E-05,  avg # of iterations =  1.0

     total cpu time spent up to now is        2.2 secs

     total energy              =     -31.94389739 Ry
     Harris-Foulkes estimate   =     -31.94460539 Ry
     estimated scf accuracy    <       0.01252631 Ry

     iteration # 12     ecut=    30.00 Ry     beta=0.70
     Davidson diagonalization with overlap
     ethr =  5.02E-05,  avg # of iterations =  1.0

     total cpu time spent up to now is        2.3 secs

     total energy              =     -31.94412310 Ry
     Harris-Foulkes estimate   =     -31.94464695 Ry
     estimated scf accuracy    <       0.01613809 Ry

     iteration # 13     ecut=    30.00 Ry     beta=0.70
     Davidson diagonalization with overlap
     ethr =  5.02E-05,  avg # of iterations =  1.0

     total cpu time spent up to now is        2.3 secs

     total energy              =     -31.94439138 Ry
     Harris-Foulkes estimate   =     -31.94444177 Ry
     estimated scf accuracy    <       0.00079380 Ry

     iteration # 14     ecut=    30.00 Ry     beta=0.70
     Davidson diagonalization with overlap
     ethr =  9.92E-06,  avg # of iterations =  1.0

     total cpu time spent up to now is        2.3 secs

     total energy              =     -31.94442616 Ry
     Harris-Foulkes estimate   =     -31.94445032 Ry
     estimated scf accuracy    <       0.00148965 Ry

     iteration # 15     ecut=    30.00 Ry     beta=0.70
     Davidson diagonalization with overlap
     ethr =  9.92E-06,  avg # of iterations =  1.0

     total cpu time spent up to now is        2.4 secs

     total energy              =     -31.94442666 Ry
     Harris-Foulkes estimate   =     -31.94443327 Ry
     estimated scf accuracy    <       0.00023821 Ry

     iteration # 16     ecut=    30.00 Ry     beta=0.70
     Davidson diagonalization with overlap
     ethr =  2.98E-06,  avg # of iterations =  1.0

     total cpu time spent up to now is        2.4 secs

     total energy              =     -31.94442999 Ry
     Harris-Foulkes estimate   =     -31.94443008 Ry
     estimated scf accuracy    <       0.00000039 Ry

     iteration # 17     ecut=    30.00 Ry     beta=0.70
     Davidson diagonalization with overlap
     ethr =  4.90E-09,  avg # of iterations =  1.0

     total cpu time spent up to now is        2.4 secs

     total energy              =     -31.94442995 Ry
     Harris-Foulkes estimate   =     -31.94442999 Ry
     estimated scf accuracy    <       0.00000002 Ry

     iteration # 18     ecut=    30.00 Ry     beta=0.70
     Davidson diagonalization with overlap
     ethr =  2.61E-10,  avg # of iterations =  1.0

     total cpu time spent up to now is        2.4 secs

     End of self-consistent calculation

          k = 0.0000 0.0000 0.0000 ( 22119 PWs)   bands (ev):

   -24.9412 -10.7251  -7.0829  -7.0756  -6.9289  -0.6414   0.3406   0.8072

     the Fermi energy is    -6.9051 ev

!    total energy              =     -31.94442992 Ry
     Harris-Foulkes estimate   =     -31.94442995 Ry
     estimated scf accuracy    <          3.8E-09 Ry

     convergence has been achieved in  18 iterations

     Forces acting on atoms (Ry/au):

     atom    1 type  1   force =     0.00010669    0.00019912    0.00016381
     atom    2 type  1   force =    -0.01817984   -0.04107428   -0.05433410
     atom    3 type  2   force =     0.01807314    0.04087517    0.05417029

     Total force =     0.099507     Total SCF correction =     0.000068

     Entering Dynamics:    iteration =     2
                           time      =   0.0097 pico-seconds


     Andersen thermostat:    3 collisions

ATOMIC_POSITIONS (bohr)
H       17.797905459   9.004886432  10.019048019
H        5.168441562  10.741629438   7.599058724
O        6.290568006  12.407105576   9.753977660


     kinetic energy (Ekin) =     0.02908640 Ry
     temperature           =  1530.79154681 K 
     Ekin + Etot (const)   =   -31.91534351 Ry
     Message from routine dynamics:
     Total linear momentum <> 0

     Linear momentum :   -0.0419644939    0.1473312054    0.1195722753

     Writing output data file pwscf.save

     first order wave-functions extrapolation
     Check: negative starting charge=   -0.346061
     first order charge density extrapolation
     Check: negative starting charge=   -0.342951

     negative rho (up, down):  1.515E-01 0.000E+00

     total cpu time spent up to now is        2.8 secs

     per-process dynamical memory:    20.4 Mb

     Self-consistent Calculation

     iteration #  1     ecut=    30.00 Ry     beta=0.70
     Davidson diagonalization with overlap
     c_bands:  1 eigenvalues not converged
     ethr =  1.00E-06,  avg # of iterations = 20.0

     negative rho (up, down):  3.905E-02 0.000E+00

     total cpu time spent up to now is        2.9 secs

     total energy              =     -30.50990057 Ry
     Harris-Foulkes estimate   =     -32.01093872 Ry
     estimated scf accuracy    <       1.61384875 Ry

     iteration #  2     ecut=    30.00 Ry     beta=0.70
     Davidson diagonalization with overlap
     ethr =  1.00E-02,  avg # of iterations =  3.0

     negative rho (up, down):  2.958E-02 0.000E+00

     total cpu time spent up to now is        2.9 secs

     total energy              =     -32.01999850 Ry
     Harris-Foulkes estimate   =     -34.27769462 Ry
     estimated scf accuracy    <       6.09527756 Ry

     iteration #  3     ecut=    30.00 Ry     beta=0.70
     Davidson diagonalization with overlap
     ethr =  1.00E-02,  avg # of iterations =  2.0

     negative rho (up, down):  2.525E-02 0.000E+00

     total cpu time spent up to now is        3.0 secs

     total energy              =     -32.05398963 Ry
     Harris-Foulkes estimate   =     -32.31880121 Ry
     estimated scf accuracy    <       1.68874459 Ry

     iteration #  4     ecut=    30.00 Ry     beta=0.70
     Davidson diagonalization with overlap
     ethr =  1.00E-02,  avg # of iterations =  1.0

     negative rho (up, down):  1.221E-02 0.000E+00

     total cpu time spent up to now is        3.0 secs

     total energy              =     -31.41819595 Ry
     Harris-Foulkes estimate   =     -32.05537676 Ry
     estimated scf accuracy    <       1.34042384 Ry

     iteration #  5     ecut=    30.00 Ry     beta=0.70
     Davidson diagonalization with overlap
     ethr =  1.00E-02,  avg # of iterations =  4.0

     negative rho (up, down):  5.931E-03 0.000E+00

     total cpu time spent up to now is        3.1 secs

     total energy              =     -31.89001745 Ry
     Harris-Foulkes estimate   =     -32.31284203 Ry
     estimated scf accuracy    <       2.17771885 Ry

     iteration #  6     ecut=    30.00 Ry     beta=0.70
     Davidson diagonalization with overlap
     ethr =  1.00E-02,  avg # of iterations =  1.0

     negative rho (up, down):  6.221E-03 0.000E+00

     total cpu time spent up to now is        3.1 secs

     total energy              =     -31.84549810 Ry
     Harris-Foulkes estimate   =     -31.90598666 Ry
     estimated scf accuracy    <       1.34343223 Ry

     iteration #  7     ecut=    30.00 Ry     beta=0.70
     Davidson diagonalization with overlap
     ethr =  1.00E-02,  avg # of iterations =  1.0

     negative rho (up, down):  5.988E-03 0.000E+00

     total cpu time spent up to now is        3.1 secs

     total energy              =     -31.95479517 Ry
     Harris-Foulkes estimate   =     -31.84603925 Ry
     estimated scf accuracy    <       1.36776842 Ry

     iteration #  8     ecut=    30.00 Ry     beta=0.70
     Davidson diagonalization with overlap
     ethr =  1.00E-02,  avg # of iterations =  1.0

     negative rho (up, down):  1.773E-02 0.000E+00

     total cpu time spent up to now is        3.2 secs

     total energy              =     -32.15656290 Ry
     Harris-Foulkes estimate   =     -31.95036483 Ry
     estimated scf accuracy    <       1.40041099 Ry

     iteration #  9     ecut=    30.00 Ry     beta=0.70
     Davidson diagonalization with overlap
     ethr =  1.00E-02,  avg # of iterations =  1.0

     negative rho (up, down):  1.782E-01 0.000E+00

     total cpu time spent up to now is        3.2 secs

     total energy              =     -32.76449879 Ry
     Harris-Foulkes estimate   =     -32.16095513 Ry
     estimated scf accuracy    <       1.81063525 Ry

     iteration # 10     ecut=    30.00 Ry     beta=0.70
     Davidson diagonalization with overlap
     ethr =  1.00E-02,  avg # of iterations =  1.0

     negative rho (up, down):  2.969E-01 0.000E+00

     total cpu time spent up to now is        3.2 secs

     total energy              =     -33.12018173 Ry
     Harris-Foulkes estimate   =     -32.79582093 Ry
     estimated scf accuracy    <       3.20871979 Ry

     iteration # 11     ecut=    30.00 Ry     beta=0.70
     Davidson diagonalization with overlap
     ethr =  1.00E-02,  avg # of iterations =  3.0

     negative rho (up, down):  2.293E-01 0.000E+00

     total cpu time spent up to now is        3.3 secs

     total energy              =     -32.96470917 Ry
     Harris-Foulkes estimate   =     -33.23425874 Ry
     estimated scf accuracy    <      10.21000449 Ry

     iteration # 12     ecut=    30.00 Ry     beta=0.70
     Davidson diagonalization with overlap
     ethr =  1.00E-02,  avg # of iterations =  1.0

     negative rho (up, down):  1.177E-01 0.000E+00

     total cpu time spent up to now is        3.3 secs

     total energy              =     -32.60472340 Ry
     Harris-Foulkes estimate   =     -32.99353828 Ry
     estimated scf accuracy    <       6.51892341 Ry

     iteration # 13     ecut=    30.00 Ry     beta=0.70
     Davidson diagonalization with overlap
     ethr =  1.00E-02,  avg # of iterations =  1.0

     negative rho (up, down):  5.164E-02 0.000E+00

     total cpu time spent up to now is        3.4 secs

     total energy              =     -31.49049679 Ry
     Harris-Foulkes estimate   =     -32.71559331 Ry
     estimated scf accuracy    <       3.10458086 Ry

     iteration # 14     ecut=    30.00 Ry     beta=0.70
     Davidson diagonalization with overlap
     ethr =  1.00E-02,  avg # of iterations =  2.0

     negative rho (up, down):  3.372E-02 0.000E+00

     total cpu time spent up to now is        3.4 secs

     total energy              =     -32.41316190 Ry
     Harris-Foulkes estimate   =     -31.93494553 Ry
     estimated scf accuracy    <       1.06544528 Ry

     iteration # 15     ecut=    30.00 Ry     beta=0.70
     Davidson diagonalization with overlap
     ethr =  1.00E-02,  avg # of iterations =  1.0

     negative rho (up, down):  1.430E-02 0.000E+00

     total cpu time spent up to now is        3.4 secs

     total energy              =     -32.06600993 Ry
     Harris-Foulkes estimate   =     -32.42847394 Ry
     estimated scf accuracy    <       1.87160043 Ry

     iteration # 16     ecut=    30.00 Ry     beta=0.70
     Davidson diagonalization with overlap
     ethr =  1.00E-02,  avg # of iterations =  1.0

     negative rho (up, down):  3.350E-03 0.000E+00

     total cpu time spent up to now is        3.5 secs

     total energy              =     -31.80429739 Ry
     Harris-Foulkes estimate   =     -32.07084142 Ry
     estimated scf accuracy    <       1.32312117 Ry

     iteration # 17     ecut=    30.00 Ry     beta=0.70
     Davidson diagonalization with overlap
     ethr =  1.00E-02,  avg # of iterations =  1.0

     negative rho (up, down):  1.216E-02 0.000E+00

     total cpu time spent up to now is        3.5 secs

     total energy              =     -31.69709025 Ry
     Harris-Foulkes estimate   =     -31.81093331 Ry
     estimated scf accuracy    <       0.63218806 Ry

     iteration # 18     ecut=    30.00 Ry     beta=0.70
     Davidson diagonalization with overlap
     ethr =  7.90E-03,  avg # of iterations =  1.0

     negative rho (up, down):  4.934E-03 0.000E+00

     total cpu time spent up to now is        3.5 secs

     total energy              =     -31.74871463 Ry
     Harris-Foulkes estimate   =     -31.92088832 Ry
     estimated scf accuracy    <       1.32287143 Ry

     iteration # 19     ecut=    30.00 Ry     beta=0.70
     Davidson diagonalization with overlap
     ethr =  7.90E-03,  avg # of iterations =  1.0

     negative rho (up, down):  4.940E-03 0.000E+00

     total cpu time spent up to now is        3.6 secs

     total energy              =     -31.82416756 Ry
     Harris-Foulkes estimate   =     -31.81525402 Ry
     estimated scf accuracy    <       0.73118895 Ry

     iteration # 20     ecut=    30.00 Ry     beta=0.70
     Davidson diagonalization with overlap
     ethr =  7.90E-03,  avg # of iterations =  1.0

     negative rho (up, down):  3.518E-03 0.000E+00

     total cpu time spent up to now is        3.6 secs

     total energy              =     -31.83971902 Ry
     Harris-Foulkes estimate   =     -31.82466585 Ry
     estimated scf accuracy    <       0.86043220 Ry

     iteration # 21     ecut=    30.00 Ry     beta=0.70
     Davidson diagonalization with overlap
     ethr =  7.90E-03,  avg # of iterations =  1.0

     negative rho (up, down):  3.057E-04 0.000E+00

     total cpu time spent up to now is        3.6 secs

     total energy              =     -31.85902360 Ry
     Harris-Foulkes estimate   =     -31.84003974 Ry
     estimated scf accuracy    <       0.93212958 Ry

     iteration # 22     ecut=    30.00 Ry     beta=0.70
     Davidson diagonalization with overlap
     ethr =  7.90E-03,  avg # of iterations =  1.0

     negative rho (up, down):  1.224E-05 0.000E+00

     total cpu time spent up to now is        3.7 secs

     total energy              =     -31.82187192 Ry
     Harris-Foulkes estimate   =     -31.85911518 Ry
     estimated scf accuracy    <       0.97025900 Ry

     iteration # 23     ecut=    30.00 Ry     beta=0.70
     Davidson diagonalization with overlap
     ethr =  7.90E-03,  avg # of iterations =  1.0

     negative rho (up, down):  2.336E-05 0.000E+00

     total cpu time spent up to now is        3.7 secs

     total energy              =     -31.81383280 Ry
     Harris-Foulkes estimate   =     -31.82218494 Ry
     estimated scf accuracy    <       0.84817130 Ry

     iteration # 24     ecut=    30.00 Ry     beta=0.70
     Davidson diagonalization with overlap
     ethr =  7.90E-03,  avg # of iterations =  1.0

     negative rho (up, down):  7.215E-06 0.000E+00

     total cpu time spent up to now is        3.7 secs

     total energy              =     -31.80962789 Ry
     Harris-Foulkes estimate   =     -31.81410028 Ry
     estimated scf accuracy    <       0.71895752 Ry

     iteration # 25     ecut=    30.00 Ry     beta=0.70
     Davidson diagonalization with overlap
     ethr =  7.90E-03,  avg # of iterations =  1.0

     negative rho (up, down):  4.982E-06 0.000E+00

     total cpu time spent up to now is        3.8 secs

     total energy              =     -31.77301882 Ry
     Harris-Foulkes estimate   =     -31.80979482 Ry
     estimated scf accuracy    <       0.60430068 Ry

     iteration # 26     ecut=    30.00 Ry     beta=0.70
     Davidson diagonalization with overlap
     ethr =  7.55E-03,  avg # of iterations =  1.0

     negative rho (up, down):  3.601E-08 0.000E+00

     total cpu time spent up to now is        3.8 secs

     total energy              =     -31.78131977 Ry
     Harris-Foulkes estimate   =     -31.80498376 Ry
     estimated scf accuracy    <       0.58468926 Ry

     iteration # 27     ecut=    30.00 Ry     beta=0.70
     Davidson diagonalization with overlap
     ethr =  7.31E-03,  avg # of iterations =  1.0

     negative rho (up, down):  2.915E-06 0.000E+00

     total cpu time spent up to now is        3.8 secs

     total energy              =     -31.79141401 Ry
     Harris-Foulkes estimate   =     -31.79963525 Ry
     estimated scf accuracy    <       0.15360240 Ry

     iteration # 28     ecut=    30.00 Ry     beta=0.70
     Davidson diagonalization with overlap
     ethr =  1.92E-03,  avg # of iterations =  1.0

     negative rho (up, down):  9.187E-08 0.000E+00

     total cpu time spent up to now is        3.9 secs

     total energy              =     -31.79651607 Ry
     Harris-Foulkes estimate   =     -31.79910603 Ry
     estimated scf accuracy    <       0.14185554 Ry

     iteration # 29     ecut=    30.00 Ry     beta=0.70
     Davidson diagonalization with overlap
     ethr =  1.77E-03,  avg # of iterations =  1.0

     total cpu time spent up to now is        3.9 secs

     total energy              =     -31.79734620 Ry
     Harris-Foulkes estimate   =     -31.79742633 Ry
     estimated scf accuracy    <       0.01196752 Ry

     iteration # 30     ecut=    30.00 Ry     beta=0.70
     Davidson diagonalization with overlap
     ethr =  1.50E-04,  avg # of iterations =  1.0

     total cpu time spent up to now is        3.9 secs

     total energy              =     -31.79716145 Ry
     Harris-Foulkes estimate   =     -31.79735709 Ry
     estimated scf accuracy    <       0.00653405 Ry

     iteration # 31     ecut=    30.00 Ry     beta=0.70
     Davidson diagonalization with overlap
     ethr =  8.17E-05,  avg # of iterations =  1.0

     total cpu time spent up to now is        4.0 secs

     total energy              =     -31.79727437 Ry
     Harris-Foulkes estimate   =     -31.79727386 Ry
     estimated scf accuracy    <       0.00014720 Ry

     iteration # 32     ecut=    30.00 Ry     beta=0.70
     Davidson diagonalization with overlap
     c_bands:  1 eigenvalues not converged
     ethr =  1.84E-06,  avg # of iterations = 20.0

     total cpu time spent up to now is        4.0 secs

     total energy              =     -31.79727054 Ry
     Harris-Foulkes estimate   =     -31.79727448 Ry
     estimated scf accuracy    <       0.00020267 Ry

     iteration # 33     ecut=    30.00 Ry     beta=0.70
     Davidson diagonalization with overlap
     ethr =  1.84E-06,  avg # of iterations =  1.0

     total cpu time spent up to now is        4.1 secs

     total energy              =     -31.79727211 Ry
     Harris-Foulkes estimate   =     -31.79727224 Ry
     estimated scf accuracy    <       0.00000814 Ry

     iteration # 34     ecut=    30.00 Ry     beta=0.70
     Davidson diagonalization with overlap
     ethr =  1.02E-07,  avg # of iterations =  1.0

     total cpu time spent up to now is        4.1 secs

     total energy              =     -31.79727223 Ry
     Harris-Foulkes estimate   =     -31.79727219 Ry
     estimated scf accuracy    <       0.00000020 Ry

     iteration # 35     ecut=    30.00 Ry     beta=0.70
     Davidson diagonalization with overlap
     ethr =  2.52E-09,  avg # of iterations =  1.0

     total cpu time spent up to now is        4.1 secs

     End of self-consistent calculation

          k = 0.0000 0.0000 0.0000 ( 22119 PWs)   bands (ev):

   -23.7070  -9.2130  -6.9436  -6.9390  -6.8001  -3.3523  -0.0488   0.7721

     the Fermi energy is    -6.7703 ev

!    total energy              =     -31.79727224 Ry
     Harris-Foulkes estimate   =     -31.79727223 Ry
     estimated scf accuracy    <          3.9E-09 Ry

     convergence has been achieved in  35 iterations

     Forces acting on atoms (Ry/au):

     atom    1 type  1   force =     0.00050219    0.00042059   -0.00000610
     atom    2 type  1   force =     0.06578087    0.09790773    0.12548021
     atom    3 type  2   force =    -0.06628306   -0.09832833   -0.12547411

     Total force =     0.243853     Total SCF correction =     0.000029

     Entering Dynamics:    iteration =     3
                           time      =   0.0145 pico-seconds


     Andersen thermostat:    3 collisions

ATOMIC_POSITIONS (bohr)
H       18.111443909   9.028498893   9.963499882
H        6.165322753  11.961473379   8.606800552
O        6.207847766  12.328612390   9.693870433


     kinetic energy (Ekin) =     0.05539822 Ry
     temperature           =  2915.55877425 K 
     Ekin + Etot (const)   =   -31.74187403 Ry
     Message from routine dynamics:
     Total linear momentum <> 0

     Linear momentum :    0.1400721054    0.1254325717    0.2108666406

     Writing output data file pwscf.save

     second order wave-functions extrapolation
     Check: negative starting charge=   -0.342951
     second order charge density extrapolation
     Check: negative starting charge=   -0.348894

     negative rho (up, down):  1.199E-01 0.000E+00

     total cpu time spent up to now is        4.5 secs

     per-process dynamical memory:    20.4 Mb

     Self-consistent Calculation

     iteration #  1     ecut=    30.00 Ry     beta=0.70
     Davidson diagonalization with overlap
     c_bands:  1 eigenvalues not converged
     ethr =  1.00E-06,  avg # of iterations = 20.0

     negative rho (up, down):  2.837E-02 0.000E+00

     total cpu time spent up to now is        4.7 secs

     total energy              =     -18.66658824 Ry
     Harris-Foulkes estimate   =     -34.77498845 Ry
     estimated scf accuracy    <       4.79160812 Ry

     iteration #  2     ecut=    30.00 Ry     beta=0.70
     Davidson diagonalization with overlap
     ethr =  1.00E-02,  avg # of iterations =  3.0

     negative rho (up, down):  1.733E-02 0.000E+00

     total cpu time spent up to now is        4.7 secs

     total energy              =     -31.32066222 Ry
     Harris-Foulkes estimate   =     -33.43102461 Ry
     estimated scf accuracy    <       4.65303703 Ry

     iteration #  3     ecut=    30.00 Ry     beta=0.70
     Davidson diagonalization with overlap
     ethr =  1.00E-02,  avg # of iterations =  1.0

     negative rho (up, down):  1.476E-02 0.000E+00

     total cpu time spent up to now is        4.7 secs

     total energy              =     -31.46292346 Ry
     Harris-Foulkes estimate   =     -32.19418651 Ry
     estimated scf accuracy    <       2.90190051 Ry

     iteration #  4     ecut=    30.00 Ry     beta=0.70
     Davidson diagonalization with overlap
     ethr =  1.00E-02,  avg # of iterations =  1.0

     negative rho (up, down):  9.335E-03 0.000E+00

     total cpu time spent up to now is        4.8 secs

     total energy              =     -31.17515495 Ry
     Harris-Foulkes estimate   =     -31.52261261 Ry
     estimated scf accuracy    <       1.10328918 Ry

     iteration #  5     ecut=    30.00 Ry     beta=0.70
     Davidson diagonalization with overlap
     ethr =  1.00E-02,  avg # of iterations =  1.0

     negative rho (up, down):  7.092E-03 0.000E+00

     total cpu time spent up to now is        4.8 secs

     total energy              =     -31.15374807 Ry
     Harris-Foulkes estimate   =     -31.35051018 Ry
     estimated scf accuracy    <       1.43441342 Ry

     iteration #  6     ecut=    30.00 Ry     beta=0.70
     Davidson diagonalization with overlap
     ethr =  1.00E-02,  avg # of iterations =  1.0

     negative rho (up, down):  3.109E-03 0.000E+00

     total cpu time spent up to now is        4.8 secs

     total energy              =     -31.05307698 Ry
     Harris-Foulkes estimate   =     -31.18597450 Ry
     estimated scf accuracy    <       0.43214537 Ry

     iteration #  7     ecut=    30.00 Ry     beta=0.70
     Davidson diagonalization with overlap
     ethr =  5.40E-03,  avg # of iterations =  1.0

     negative rho (up, down):  9.119E-04 0.000E+00

     total cpu time spent up to now is        4.9 secs

     total energy              =     -31.09104629 Ry
     Harris-Foulkes estimate   =     -31.17974675 Ry
     estimated scf accuracy    <       1.01398512 Ry

     iteration #  8     ecut=    30.00 Ry     beta=0.70
     Davidson diagonalization with overlap
     ethr =  5.40E-03,  avg # of iterations =  1.0

     negative rho (up, down):  2.758E-04 0.000E+00

     total cpu time spent up to now is        4.9 secs

     total energy              =     -31.07789937 Ry
     Harris-Foulkes estimate   =     -31.09943596 Ry
     estimated scf accuracy    <       0.20788656 Ry

     iteration #  9     ecut=    30.00 Ry     beta=0.70
     Davidson diagonalization with overlap
     ethr =  2.60E-03,  avg # of iterations =  1.0

     negative rho (up, down):  1.657E-04 0.000E+00

     total cpu time spent up to now is        4.9 secs

     total energy              =     -31.09059082 Ry
     Harris-Foulkes estimate   =     -31.13192165 Ry
     estimated scf accuracy    <       1.64478176 Ry

     iteration # 10     ecut=    30.00 Ry     beta=0.70
     Davidson diagonalization with overlap
     ethr =  2.60E-03,  avg # of iterations =  1.0

     total cpu time spent up to now is        5.0 secs

     total energy              =     -31.09058862 Ry
     Harris-Foulkes estimate   =     -31.10159362 Ry
     estimated scf accuracy    <       0.15946593 Ry

     iteration # 11     ecut=    30.00 Ry     beta=0.70
     Davidson diagonalization with overlap
     ethr =  1.99E-03,  avg # of iterations =  1.0

     total cpu time spent up to now is        5.0 secs

     total energy              =     -31.10029479 Ry
     Harris-Foulkes estimate   =     -31.10940085 Ry
     estimated scf accuracy    <       0.42771170 Ry

     iteration # 12     ecut=    30.00 Ry     beta=0.70
     Davidson diagonalization with overlap
     ethr =  1.99E-03,  avg # of iterations =  1.0

     total cpu time spent up to now is        5.0 secs

     total energy              =     -31.09945065 Ry
     Harris-Foulkes estimate   =     -31.10257316 Ry
     estimated scf accuracy    <       0.08493583 Ry

     iteration # 13     ecut=    30.00 Ry     beta=0.70
     Davidson diagonalization with overlap
     ethr =  1.06E-03,  avg # of iterations =  1.0

     total cpu time spent up to now is        5.1 secs

     total energy              =     -31.10122999 Ry
     Harris-Foulkes estimate   =     -31.10143719 Ry
     estimated scf accuracy    <       0.00863013 Ry

     iteration # 14     ecut=    30.00 Ry     beta=0.70
     Davidson diagonalization with overlap
     ethr =  1.08E-04,  avg # of iterations =  6.0

     total cpu time spent up to now is        5.1 secs

     total energy              =     -31.10134659 Ry
     Harris-Foulkes estimate   =     -31.10132508 Ry
     estimated scf accuracy    <       0.00006798 Ry

     iteration # 15     ecut=    30.00 Ry     beta=0.70
     Davidson diagonalization with overlap
     ethr =  8.50E-07,  avg # of iterations = 11.0

     total cpu time spent up to now is        5.1 secs

     total energy              =     -31.10127797 Ry
     Harris-Foulkes estimate   =     -31.10144631 Ry
     estimated scf accuracy    <       0.00907240 Ry

     iteration # 16     ecut=    30.00 Ry     beta=0.70
     Davidson diagonalization with overlap
     ethr =  8.50E-07,  avg # of iterations =  1.0

     total cpu time spent up to now is        5.2 secs

     total energy              =     -31.10132262 Ry
     Harris-Foulkes estimate   =     -31.10133697 Ry
     estimated scf accuracy    <       0.00078404 Ry

     iteration # 17     ecut=    30.00 Ry     beta=0.70
     Davidson diagonalization with overlap
     ethr =  8.50E-07,  avg # of iterations =  1.0

     total cpu time spent up to now is        5.2 secs

     total energy              =     -31.10132695 Ry
     Harris-Foulkes estimate   =     -31.10132772 Ry
     estimated scf accuracy    <       0.00006984 Ry

     iteration # 18     ecut=    30.00 Ry     beta=0.70
     Davidson diagonalization with overlap
     ethr =  8.50E-07,  avg # of iterations =  1.0

     total cpu time spent up to now is        5.2 secs

     total energy              =     -31.10132640 Ry
     Harris-Foulkes estimate   =     -31.10132706 Ry
     estimated scf accuracy    <       0.00003178 Ry

     iteration # 19     ecut=    30.00 Ry     beta=0.70
     Davidson diagonalization with overlap
     ethr =  3.97E-07,  avg # of iterations =  1.0

     total cpu time spent up to now is        5.3 secs

     total energy              =     -31.10132662 Ry
     Harris-Foulkes estimate   =     -31.10132665 Ry
     estimated scf accuracy    <       0.00000174 Ry

     iteration # 20     ecut=    30.00 Ry     beta=0.70
     Davidson diagonalization with overlap
     ethr =  2.18E-08,  avg # of iterations =  1.0

     total cpu time spent up to now is        5.3 secs

     total energy              =     -31.10132665 Ry
     Harris-Foulkes estimate   =     -31.10132666 Ry
     estimated scf accuracy    <       0.00000008 Ry

     iteration # 21     ecut=    30.00 Ry     beta=0.70
     Davidson diagonalization with overlap
     ethr =  9.63E-10,  avg # of iterations =  1.0

     total cpu time spent up to now is        5.3 secs

     End of self-consistent calculation

          k = 0.0000 0.0000 0.0000 ( 22119 PWs)   bands (ev):

   -29.0278 -11.6191  -7.3219  -7.3135  -7.1553  -0.3409   0.5670   0.8068

     the Fermi energy is    -7.1395 ev

!    total energy              =     -31.10132666 Ry
     Harris-Foulkes estimate   =     -31.10132666 Ry
     estimated scf accuracy    <          9.8E-10 Ry

     convergence has been achieved in  21 iterations

     Forces acting on atoms (Ry/au):

     atom    1 type  1   force =     0.00007990   -0.00010284    0.00072180
     atom    2 type  1   force =    -0.12698246   -1.09797464   -3.25116081
     atom    3 type  2   force =     0.12690256    1.09807748    3.25043902

     Total force =     4.855816     Total SCF correction =     0.000031

     Entering Dynamics:    iteration =     4
                           time      =   0.0194 pico-seconds


     Andersen thermostat:    3 collisions

ATOMIC_POSITIONS (bohr)
H       18.222002421   8.748764672   9.726342141
H        4.731964198   0.004905024 -26.870944766
O        6.291349518  13.101028990  11.948373689


     kinetic energy (Ekin) =    17.36846396 Ry
     temperature           = ************** K 
     Ekin + Etot (const)   =   -13.73286270 Ry
     Message from routine dynamics:
     Total linear momentum <> 0

     Linear momentum :   -0.5420042948    0.3518789849    0.0205583440

     Writing output data file pwscf.save

     second order wave-functions extrapolation
     Check: negative starting charge=   -0.348894
     second order charge density extrapolation
     Check: negative starting charge=   -0.340961

     negative rho (up, down):  1.071E+01 0.000E+00

     total cpu time spent up to now is        5.7 secs

     per-process dynamical memory:    20.4 Mb

     Self-consistent Calculation

     iteration #  1     ecut=    30.00 Ry     beta=0.70
     Davidson diagonalization with overlap
     c_bands:  2 eigenvalues not converged
     ethr =  1.00E-06,  avg # of iterations = 20.0

     negative rho (up, down):  2.846E+00 0.000E+00

     total cpu time spent up to now is        5.8 secs

     total energy              =     111.39957462 Ry
     Harris-Foulkes estimate   =   -4669.71213174 Ry
     estimated scf accuracy    <      63.69939943 Ry

     iteration #  2     ecut=    30.00 Ry     beta=0.70
     Davidson diagonalization with overlap
     ethr =  1.00E-02,  avg # of iterations = 14.0

     negative rho (up, down):  1.216E+00 0.000E+00

     total cpu time spent up to now is        5.9 secs

     total energy              =      96.06246866 Ry
     Harris-Foulkes estimate   =   -2146.47449290 Ry
     estimated scf accuracy    <      39.17594886 Ry

     iteration #  3     ecut=    30.00 Ry     beta=0.70
     Davidson diagonalization with overlap
     ethr =  1.00E-02,  avg # of iterations =  8.0

     negative rho (up, down):  6.810E-01 0.000E+00

     total cpu time spent up to now is        6.0 secs

     total energy              =     137.53523819 Ry
     Harris-Foulkes estimate   =   -2069.00676234 Ry
     estimated scf accuracy    <      38.14079874 Ry

     iteration #  4     ecut=    30.00 Ry     beta=0.70
     Davidson diagonalization with overlap
     ethr =  1.00E-02,  avg # of iterations =  7.0

     negative rho (up, down):  3.777E-01 0.000E+00

     total cpu time spent up to now is        6.0 secs

     total energy              =      52.33750360 Ry
     Harris-Foulkes estimate   =    -138.30207458 Ry
     estimated scf accuracy    <      21.79950366 Ry

     iteration #  5     ecut=    30.00 Ry     beta=0.70
     Davidson diagonalization with overlap
     ethr =  1.00E-02,  avg # of iterations =  9.0

     negative rho (up, down):  6.296E-01 0.000E+00

     total cpu time spent up to now is        6.1 secs

     total energy              =     -48.05143659 Ry
     Harris-Foulkes estimate   =     -56.83503248 Ry
     estimated scf accuracy    <      38.86733868 Ry

     iteration #  6     ecut=    30.00 Ry     beta=0.70
     Davidson diagonalization with overlap
     ethr =  1.00E-02,  avg # of iterations =  6.0

     negative rho (up, down):  5.121E-01 0.000E+00

     total cpu time spent up to now is        6.1 secs

     total energy              =     -14.29611711 Ry
     Harris-Foulkes estimate   =   -1213.15806300 Ry
     estimated scf accuracy    <      25.25460767 Ry

     iteration #  7     ecut=    30.00 Ry     beta=0.70
     Davidson diagonalization with overlap
     ethr =  1.00E-02,  avg # of iterations = 10.0

     negative rho (up, down):  5.255E-01 0.000E+00

     total cpu time spent up to now is        6.2 secs

     total energy              =     -25.79910566 Ry
     Harris-Foulkes estimate   =    -489.24953456 Ry
     estimated scf accuracy    <      10.46454980 Ry

     iteration #  8     ecut=    30.00 Ry     beta=0.70
     Davidson diagonalization with overlap
     ethr =  1.00E-02,  avg # of iterations =  4.0

     negative rho (up, down):  5.728E-01 0.000E+00

     total cpu time spent up to now is        6.2 secs

     total energy              =       3.37644465 Ry
     Harris-Foulkes estimate   =     -89.63899173 Ry
     estimated scf accuracy    <      12.58917511 Ry

     iteration #  9     ecut=    30.00 Ry     beta=0.70
     Davidson diagonalization with overlap
     ethr =  1.00E-02,  avg # of iterations =  4.0

     negative rho (up, down):  5.382E-01 0.000E+00

     total cpu time spent up to now is        6.3 secs

     total energy              =      16.22842076 Ry
     Harris-Foulkes estimate   =    -608.66537675 Ry
     estimated scf accuracy    <       9.49752642 Ry

     iteration # 10     ecut=    30.00 Ry     beta=0.70
     Davidson diagonalization with overlap
     ethr =  1.00E-02,  avg # of iterations =  5.0

     negative rho (up, down):  1.151E-01 0.000E+00

     total cpu time spent up to now is        6.3 secs

     total energy              =    -217.88264176 Ry
     Harris-Foulkes estimate   =    -111.19159199 Ry
     estimated scf accuracy    <      10.01269497 Ry

     iteration # 11     ecut=    30.00 Ry     beta=0.70
     Davidson diagonalization with overlap
     ethr =  1.00E-02,  avg # of iterations =  7.0

     negative rho (up, down):  8.768E-02 0.000E+00

     total cpu time spent up to now is        6.4 secs

     total energy              =      47.71576294 Ry
     Harris-Foulkes estimate   =   -3484.82557247 Ry
     estimated scf accuracy    <       8.47119629 Ry

     iteration # 12     ecut=    30.00 Ry     beta=0.70
     Davidson diagonalization with overlap
     ethr =  1.00E-02,  avg # of iterations =  6.0

     negative rho (up, down):  2.208E-01 0.000E+00

     total cpu time spent up to now is        6.4 secs

     total energy              =     -37.62792733 Ry
     Harris-Foulkes estimate   =     -41.57563778 Ry
     estimated scf accuracy    <      17.56903986 Ry

     iteration # 13     ecut=    30.00 Ry     beta=0.70
     Davidson diagonalization with overlap
     ethr =  1.00E-02,  avg # of iterations = 12.0

     negative rho (up, down):  4.891E-02 0.000E+00

     total cpu time spent up to now is        6.5 secs

     total energy              =     167.90464904 Ry
     Harris-Foulkes estimate   =    -861.87717638 Ry
     estimated scf accuracy    <      34.70119689 Ry

     iteration # 14     ecut=    30.00 Ry     beta=0.70
     Davidson diagonalization with overlap
     ethr =  1.00E-02,  avg # of iterations = 10.0

     negative rho (up, down):  2.989E-02 0.000E+00

     total cpu time spent up to now is        6.5 secs

     total energy              =      62.30557097 Ry
     Harris-Foulkes estimate   =    -500.89091095 Ry
     estimated scf accuracy    <      40.24257621 Ry

     iteration # 15     ecut=    30.00 Ry     beta=0.70
     Davidson diagonalization with overlap
     ethr =  1.00E-02,  avg # of iterations =  7.0

     negative rho (up, down):  1.770E-02 0.000E+00

     total cpu time spent up to now is        6.6 secs

     total energy              =    -359.30500321 Ry
     Harris-Foulkes estimate   =    -156.17847186 Ry
     estimated scf accuracy    <       8.93695502 Ry

     iteration # 16     ecut=    30.00 Ry     beta=0.70
     Davidson diagonalization with overlap
     ethr =  1.00E-02,  avg # of iterations =  6.0

     negative rho (up, down):  8.584E-03 0.000E+00

     total cpu time spent up to now is        6.6 secs

     total energy              =       3.69280438 Ry
     Harris-Foulkes estimate   =    -915.69131180 Ry
     estimated scf accuracy    <       6.89912238 Ry

     iteration # 17     ecut=    30.00 Ry     beta=0.70
     Davidson diagonalization with overlap
     ethr =  1.00E-02,  avg # of iterations =  4.0

     negative rho (up, down):  1.049E-02 0.000E+00

     total cpu time spent up to now is        6.7 secs

     total energy              =     -37.80736026 Ry
     Harris-Foulkes estimate   =     -39.25866234 Ry
     estimated scf accuracy    <      11.67370521 Ry

     iteration # 18     ecut=    30.00 Ry     beta=0.70
     Davidson diagonalization with overlap
     ethr =  1.00E-02,  avg # of iterations =  1.0

     negative rho (up, down):  1.338E-03 0.000E+00

     total cpu time spent up to now is        6.7 secs

     total energy              =     -36.47536430 Ry
     Harris-Foulkes estimate   =     -38.64576173 Ry
     estimated scf accuracy    <      13.65574137 Ry

     iteration # 19     ecut=    30.00 Ry     beta=0.70
     Davidson diagonalization with overlap
     ethr =  1.00E-02,  avg # of iterations =  2.0

     negative rho (up, down):  1.136E-03 0.000E+00

     total cpu time spent up to now is        6.7 secs

     total energy              =     -36.91085344 Ry
     Harris-Foulkes estimate   =     -36.84104354 Ry
     estimated scf accuracy    <       8.92161263 Ry

     iteration # 20     ecut=    30.00 Ry     beta=0.70
     Davidson diagonalization with overlap
     ethr =  1.00E-02,  avg # of iterations =  1.0

     negative rho (up, down):  4.059E-02 0.000E+00

     total cpu time spent up to now is        6.8 secs

     total energy              =     -38.39707031 Ry
     Harris-Foulkes estimate   =     -36.92681785 Ry
     estimated scf accuracy    <       8.74341318 Ry

     iteration # 21     ecut=    30.00 Ry     beta=0.70
     Davidson diagonalization with overlap
     ethr =  1.00E-02,  avg # of iterations =  8.0

     negative rho (up, down):  1.179E-04 0.000E+00

     total cpu time spent up to now is        6.8 secs

     total energy              =      94.32742967 Ry
     Harris-Foulkes estimate   =   -2094.26644273 Ry
     estimated scf accuracy    <      34.01755293 Ry

     iteration # 22     ecut=    30.00 Ry     beta=0.70
     Davidson diagonalization with overlap
     ethr =  1.00E-02,  avg # of iterations =  9.0

     negative rho (up, down):  2.248E-02 0.000E+00

     total cpu time spent up to now is        6.9 secs

     total energy              =     -35.57314938 Ry
     Harris-Foulkes estimate   =     -36.51149910 Ry
     estimated scf accuracy    <       7.76025678 Ry

     iteration # 23     ecut=    30.00 Ry     beta=0.70
     Davidson diagonalization with overlap
     ethr =  1.00E-02,  avg # of iterations =  4.0

     negative rho (up, down):  8.146E-02 0.000E+00

     total cpu time spent up to now is        6.9 secs

     total energy              =       2.70793570 Ry
     Harris-Foulkes estimate   =    -105.85920753 Ry
     estimated scf accuracy    <       6.03865365 Ry

     iteration # 24     ecut=    30.00 Ry     beta=0.70
     Davidson diagonalization with overlap
     ethr =  1.00E-02,  avg # of iterations =  7.0

     negative rho (up, down):  1.516E-01 0.000E+00

     total cpu time spent up to now is        7.0 secs

     total energy              =     -31.81656124 Ry
     Harris-Foulkes estimate   =     -36.81841410 Ry
     estimated scf accuracy    <       8.78436848 Ry

     iteration # 25     ecut=    30.00 Ry     beta=0.70
     Davidson diagonalization with overlap
     ethr =  1.00E-02,  avg # of iterations =  7.0

     negative rho (up, down):  6.686E-02 0.000E+00

     total cpu time spent up to now is        7.0 secs

     total energy              =       8.49817173 Ry
     Harris-Foulkes estimate   =     -58.74703932 Ry
     estimated scf accuracy    <      15.74516735 Ry

     iteration # 26     ecut=    30.00 Ry     beta=0.70
     Davidson diagonalization with overlap
     ethr =  1.00E-02,  avg # of iterations =  6.0

     negative rho (up, down):  1.089E-03 0.000E+00

     total cpu time spent up to now is        7.1 secs

     total energy              =     -12.68162813 Ry
     Harris-Foulkes estimate   =     -43.11730148 Ry
     estimated scf accuracy    <       7.81012423 Ry

     iteration # 27     ecut=    30.00 Ry     beta=0.70
     Davidson diagonalization with overlap
     ethr =  1.00E-02,  avg # of iterations =  3.0

     negative rho (up, down):  5.533E-02 0.000E+00

     total cpu time spent up to now is        7.1 secs

     total energy              =     -34.38929997 Ry
     Harris-Foulkes estimate   =     -35.31426106 Ry
     estimated scf accuracy    <       9.20760479 Ry

     iteration # 28     ecut=    30.00 Ry     beta=0.70
     Davidson diagonalization with overlap
     ethr =  1.00E-02,  avg # of iterations =  3.0

     negative rho (up, down):  5.582E-02 0.000E+00

     total cpu time spent up to now is        7.1 secs

     total energy              =     -33.09797831 Ry
     Harris-Foulkes estimate   =     -36.21818366 Ry
     estimated scf accuracy    <       7.36338403 Ry

     iteration # 29     ecut=    30.00 Ry     beta=0.70
     Davidson diagonalization with overlap
     ethr =  1.00E-02,  avg # of iterations =  4.0

     negative rho (up, down):  7.846E-03 0.000E+00

     total cpu time spent up to now is        7.2 secs

     total energy              =       2.74883067 Ry
     Harris-Foulkes estimate   =    -178.96968185 Ry
     estimated scf accuracy    <       6.13738081 Ry

     iteration # 30     ecut=    30.00 Ry     beta=0.70
     Davidson diagonalization with overlap
     ethr =  1.00E-02,  avg # of iterations =  4.0

     negative rho (up, down):  1.055E-01 0.000E+00

     total cpu time spent up to now is        7.2 secs

     total energy              =     -33.70294420 Ry
     Harris-Foulkes estimate   =     -34.10936616 Ry
     estimated scf accuracy    <       3.99211009 Ry

     iteration # 31     ecut=    30.00 Ry     beta=0.70
     Davidson diagonalization with overlap
     ethr =  1.00E-02,  avg # of iterations =  9.0

     negative rho (up, down):  8.890E-02 0.000E+00

     total cpu time spent up to now is        7.3 secs

     total energy              =      46.90397087 Ry
     Harris-Foulkes estimate   =    -171.20213175 Ry
     estimated scf accuracy    <      28.60922887 Ry

     iteration # 32     ecut=    30.00 Ry     beta=0.70
     Davidson diagonalization with overlap
     ethr =  1.00E-02,  avg # of iterations =  7.0

     negative rho (up, down):  1.143E-02 0.000E+00

     total cpu time spent up to now is        7.3 secs

     total energy              =     -30.58925873 Ry
     Harris-Foulkes estimate   =     -33.69776975 Ry
     estimated scf accuracy    <       2.93361911 Ry

     iteration # 33     ecut=    30.00 Ry     beta=0.70
     Davidson diagonalization with overlap
     ethr =  1.00E-02,  avg # of iterations =  4.0

     negative rho (up, down):  2.566E-02 0.000E+00

     total cpu time spent up to now is        7.4 secs

     total energy              =       3.32939237 Ry
     Harris-Foulkes estimate   =    -189.82858305 Ry
     estimated scf accuracy    <       4.95407145 Ry

     iteration # 34     ecut=    30.00 Ry     beta=0.70
     Davidson diagonalization with overlap
     ethr =  1.00E-02,  avg # of iterations =  6.0

     negative rho (up, down):  2.740E-02 0.000E+00

     total cpu time spent up to now is        7.4 secs

     total energy              =     -15.61489251 Ry
     Harris-Foulkes estimate   =     -51.75935079 Ry
     estimated scf accuracy    <       7.78252991 Ry

     iteration # 35     ecut=    30.00 Ry     beta=0.70
     Davidson diagonalization with overlap
     ethr =  1.00E-02,  avg # of iterations =  5.0

     negative rho (up, down):  3.234E-02 0.000E+00

     total cpu time spent up to now is        7.4 secs

     total energy              =       4.97431487 Ry
     Harris-Foulkes estimate   =    -100.69212251 Ry
     estimated scf accuracy    <      46.53610745 Ry

     iteration # 36     ecut=    30.00 Ry     beta=0.70
     Davidson diagonalization with overlap
     ethr =  1.00E-02,  avg # of iterations =  7.0

     negative rho (up, down):  2.511E-03 0.000E+00

     total cpu time spent up to now is        7.5 secs

     total energy              =      -1.66790759 Ry
     Harris-Foulkes estimate   =     -81.97161697 Ry
     estimated scf accuracy    <      37.50012820 Ry

     iteration # 37     ecut=    30.00 Ry     beta=0.70
     Davidson diagonalization with overlap
     ethr =  1.00E-02,  avg # of iterations =  5.0

     negative rho (up, down):  1.796E-02 0.000E+00

     total cpu time spent up to now is        7.5 secs

     total energy              =      22.17409032 Ry
     Harris-Foulkes estimate   =    -204.03208110 Ry
     estimated scf accuracy    <      10.33221701 Ry

     iteration # 38     ecut=    30.00 Ry     beta=0.70
     Davidson diagonalization with overlap
     ethr =  1.00E-02,  avg # of iterations =  6.0

     negative rho (up, down):  7.577E-02 0.000E+00

     total cpu time spent up to now is        7.6 secs

     total energy              =    -178.55475648 Ry
     Harris-Foulkes estimate   =    -217.07383135 Ry
     estimated scf accuracy    <      76.04906413 Ry

     iteration # 39     ecut=    30.00 Ry     beta=0.70
     Davidson diagonalization with overlap
     ethr =  1.00E-02,  avg # of iterations =  4.0

     negative rho (up, down):  1.383E-01 0.000E+00

     total cpu time spent up to now is        7.6 secs

     total energy              =     -76.23126272 Ry
     Harris-Foulkes estimate   =    -392.53242084 Ry
     estimated scf accuracy    <      38.08694225 Ry

     iteration # 40     ecut=    30.00 Ry     beta=0.70
     Davidson diagonalization with overlap
     ethr =  1.00E-02,  avg # of iterations =  4.0

     negative rho (up, down):  1.987E-01 0.000E+00

     total cpu time spent up to now is        7.7 secs

     total energy              =       3.79876304 Ry
     Harris-Foulkes estimate   =    -345.40418112 Ry
     estimated scf accuracy    <      40.38829164 Ry

     iteration # 41     ecut=    30.00 Ry     beta=0.70
     Davidson diagonalization with overlap
     ethr =  1.00E-02,  avg # of iterations =  8.0

     negative rho (up, down):  4.547E-01 0.000E+00

     total cpu time spent up to now is        7.7 secs

     total energy              =     -24.48732514 Ry
     Harris-Foulkes estimate   =    -845.03532605 Ry
     estimated scf accuracy    <      73.52532089 Ry

     iteration # 42     ecut=    30.00 Ry     beta=0.70
     Davidson diagonalization with overlap
     ethr =  1.00E-02,  avg # of iterations =  5.0

     negative rho (up, down):  9.738E-01 0.000E+00

     total cpu time spent up to now is        7.8 secs

     total energy              =    -239.44662334 Ry
     Harris-Foulkes estimate   =    -404.60997493 Ry
     estimated scf accuracy    <      70.73293803 Ry

     iteration # 43     ecut=    30.00 Ry     beta=0.70
     Davidson diagonalization with overlap
     ethr =  1.00E-02,  avg # of iterations =  6.0

     negative rho (up, down):  1.556E+00 0.000E+00

     total cpu time spent up to now is        7.8 secs

     total energy              =   -2057.02429226 Ry
     Harris-Foulkes estimate   =   -1647.63849938 Ry
     estimated scf accuracy    <      61.34898175 Ry

     iteration # 44     ecut=    30.00 Ry     beta=0.70
     Davidson diagonalization with overlap
     ethr =  1.00E-02,  avg # of iterations =  9.0

     negative rho (up, down):  1.989E+00 0.000E+00

     total cpu time spent up to now is        7.9 secs

     total energy              =    -172.94964937 Ry
     Harris-Foulkes estimate   =   -4514.08565006 Ry
     estimated scf accuracy    <      50.98123377 Ry

     iteration # 45     ecut=    30.00 Ry     beta=0.70
     Davidson diagonalization with overlap
     ethr =  1.00E-02,  avg # of iterations =  6.0

     negative rho (up, down):  2.046E+00 0.000E+00

     total cpu time spent up to now is        8.0 secs

     total energy              =      45.64189979 Ry
     Harris-Foulkes estimate   =   -3832.10096414 Ry
     estimated scf accuracy    <      52.22858864 Ry

     iteration # 46     ecut=    30.00 Ry     beta=0.70
     Davidson diagonalization with overlap
     ethr =  1.00E-02,  avg # of iterations =  7.0

     negative rho (up, down):  3.226E+00 0.000E+00

     total cpu time spent up to now is        8.0 secs

     total energy              =   -8548.57981258 Ry
     Harris-Foulkes estimate   =   -2980.44679008 Ry
     estimated scf accuracy    <      55.92486700 Ry

     iteration # 47     ecut=    30.00 Ry     beta=0.70
     Davidson diagonalization with overlap
     ethr =  1.00E-02,  avg # of iterations =  7.0

     negative rho (up, down):  2.320E+00 0.000E+00

     total cpu time spent up to now is        8.1 secs

     total energy              =    -318.44185663 Ry
     Harris-Foulkes estimate   =  -25537.19627031 Ry
     estimated scf accuracy    <      50.70404356 Ry

     iteration # 48     ecut=    30.00 Ry     beta=0.70
     Davidson diagonalization with overlap
     ethr =  1.00E-02,  avg # of iterations =  6.0

     negative rho (up, down):  2.818E+00 0.000E+00

     total cpu time spent up to now is        8.1 secs

     total energy              =       1.25608612 Ry
     Harris-Foulkes estimate   =   -2311.94215655 Ry
     estimated scf accuracy    <      36.57078300 Ry

     iteration # 49     ecut=    30.00 Ry     beta=0.70
     Davidson diagonalization with overlap
     ethr =  1.00E-02,  avg # of iterations =  8.0

     negative rho (up, down):  2.273E+00 0.000E+00

     total cpu time spent up to now is        8.2 secs

     total energy              =     -17.59920437 Ry
     Harris-Foulkes estimate   =   -2755.82222139 Ry
     estimated scf accuracy    <      42.20298762 Ry

     iteration # 50     ecut=    30.00 Ry     beta=0.70
     Davidson diagonalization with overlap
     ethr =  1.00E-02,  avg # of iterations =  8.0

     negative rho (up, down):  1.204E+00 0.000E+00

     total cpu time spent up to now is        8.2 secs

     total energy              =    -101.22096851 Ry
     Harris-Foulkes estimate   =  -10646.79123071 Ry
     estimated scf accuracy    <      35.77717635 Ry

     iteration # 51     ecut=    30.00 Ry     beta=0.70
     Davidson diagonalization with overlap
     ethr =  1.00E-02,  avg # of iterations =  6.0

     negative rho (up, down):  5.628E-01 0.000E+00

     total cpu time spent up to now is        8.3 secs

     total energy              =    -919.81833608 Ry
     Harris-Foulkes estimate   =   -3437.80646571 Ry
     estimated scf accuracy    <      20.83417801 Ry

     iteration # 52     ecut=    30.00 Ry     beta=0.70
     Davidson diagonalization with overlap
     ethr =  1.00E-02,  avg # of iterations =  7.0

     negative rho (up, down):  2.260E-01 0.000E+00

     total cpu time spent up to now is        8.3 secs

     total energy              =     -25.90658598 Ry
     Harris-Foulkes estimate   =   -4867.14443027 Ry
     estimated scf accuracy    <      31.93631202 Ry

     iteration # 53     ecut=    30.00 Ry     beta=0.70
     Davidson diagonalization with overlap
     ethr =  1.00E-02,  avg # of iterations = 13.0

     negative rho (up, down):  1.027E-01 0.000E+00

     total cpu time spent up to now is        8.4 secs

     total energy              =     -59.18641956 Ry
     Harris-Foulkes estimate   =  -10573.12129064 Ry
     estimated scf accuracy    <      18.20175934 Ry

     iteration # 54     ecut=    30.00 Ry     beta=0.70
     Davidson diagonalization with overlap
     ethr =  1.00E-02,  avg # of iterations =  6.0

     negative rho (up, down):  6.931E-02 0.000E+00

     total cpu time spent up to now is        8.5 secs

     total energy              =    -153.78280778 Ry
     Harris-Foulkes estimate   =   -5529.84415512 Ry
     estimated scf accuracy    <      19.75022087 Ry

     iteration # 55     ecut=    30.00 Ry     beta=0.70
     Davidson diagonalization with overlap
     ethr =  1.00E-02,  avg # of iterations =  9.0

     negative rho (up, down):  3.333E-03 0.000E+00

     total cpu time spent up to now is        8.5 secs

     total energy              =     153.33029077 Ry
     Harris-Foulkes estimate   =   -6773.54712843 Ry
     estimated scf accuracy    <      27.18992861 Ry

     iteration # 56     ecut=    30.00 Ry     beta=0.70
     Davidson diagonalization with overlap
     ethr =  1.00E-02,  avg # of iterations =  8.0

     negative rho (up, down):  1.723E-03 0.000E+00

     total cpu time spent up to now is        8.6 secs

     total energy              =     -74.60526707 Ry
     Harris-Foulkes estimate   =     -85.33431781 Ry
     estimated scf accuracy    <      71.13183804 Ry

     iteration # 57     ecut=    30.00 Ry     beta=0.70
     Davidson diagonalization with overlap
     ethr =  1.00E-02,  avg # of iterations =  1.0

     negative rho (up, down):  1.736E-03 0.000E+00

     total cpu time spent up to now is        8.6 secs

     total energy              =     -75.93872129 Ry
     Harris-Foulkes estimate   =     -74.64310767 Ry
     estimated scf accuracy    <      57.47025404 Ry

     iteration # 58     ecut=    30.00 Ry     beta=0.70
     Davidson diagonalization with overlap
     ethr =  1.00E-02,  avg # of iterations =  4.0

     negative rho (up, down):  3.253E-03 0.000E+00

     total cpu time spent up to now is        8.7 secs

     total energy              =     -18.49850374 Ry
     Harris-Foulkes estimate   =    -281.03987730 Ry
     estimated scf accuracy    <      30.06693151 Ry

     iteration # 59     ecut=    30.00 Ry     beta=0.70
     Davidson diagonalization with overlap
     ethr =  1.00E-02,  avg # of iterations =  4.0

     negative rho (up, down):  6.099E-01 0.000E+00

     total cpu time spent up to now is        8.7 secs

     total energy              =     -67.31936850 Ry
     Harris-Foulkes estimate   =     -74.46313188 Ry
     estimated scf accuracy    <      57.11293506 Ry

     iteration # 60     ecut=    30.00 Ry     beta=0.70
     Davidson diagonalization with overlap
     ethr =  1.00E-02,  avg # of iterations =  6.0

     negative rho (up, down):  4.296E-01 0.000E+00

     total cpu time spent up to now is        8.8 secs

     total energy              =    -205.85325461 Ry
     Harris-Foulkes estimate   =   -7460.13264557 Ry
     estimated scf accuracy    <      33.34962069 Ry

     iteration # 61     ecut=    30.00 Ry     beta=0.70
     Davidson diagonalization with overlap
     ethr =  1.00E-02,  avg # of iterations = 10.0

     negative rho (up, down):  5.414E-01 0.000E+00

     total cpu time spent up to now is        8.8 secs

     total energy              =      88.98253832 Ry
     Harris-Foulkes estimate   =   -1069.90336970 Ry
     estimated scf accuracy    <      45.01560501 Ry

     iteration # 62     ecut=    30.00 Ry     beta=0.70
     Davidson diagonalization with overlap
     ethr =  1.00E-02,  avg # of iterations = 11.0

     negative rho (up, down):  5.553E-03 0.000E+00

     total cpu time spent up to now is        8.9 secs

     total energy              =      63.63644135 Ry
     Harris-Foulkes estimate   =    -365.92970844 Ry
     estimated scf accuracy    <      22.71504497 Ry

     iteration # 63     ecut=    30.00 Ry     beta=0.70
     Davidson diagonalization with overlap
     ethr =  1.00E-02,  avg # of iterations =  7.0

     negative rho (up, down):  4.003E-02 0.000E+00

     total cpu time spent up to now is        8.9 secs

     total energy              =     -61.96753534 Ry
     Harris-Foulkes estimate   =     -69.01548464 Ry
     estimated scf accuracy    <      50.26004362 Ry

     iteration # 64     ecut=    30.00 Ry     beta=0.70
     Davidson diagonalization with overlap
     ethr =  1.00E-02,  avg # of iterations =  6.0

     negative rho (up, down):  2.661E-02 0.000E+00

     total cpu time spent up to now is        9.0 secs

     total energy              =      78.66057936 Ry
     Harris-Foulkes estimate   =    -464.00224937 Ry
     estimated scf accuracy    <      16.11239212 Ry

     iteration # 65     ecut=    30.00 Ry     beta=0.70
     Davidson diagonalization with overlap
     ethr =  1.00E-02,  avg # of iterations =  7.0

     negative rho (up, down):  6.015E-03 0.000E+00

     total cpu time spent up to now is        9.0 secs

     total energy              =     -14.34269399 Ry
     Harris-Foulkes estimate   =    -142.36538577 Ry
     estimated scf accuracy    <      20.57307975 Ry

     iteration # 66     ecut=    30.00 Ry     beta=0.70
     Davidson diagonalization with overlap
     ethr =  1.00E-02,  avg # of iterations =  4.0

     negative rho (up, down):  2.004E-02 0.000E+00

     total cpu time spent up to now is        9.1 secs

     total energy              =     -52.19705582 Ry
     Harris-Foulkes estimate   =     -59.52264163 Ry
     estimated scf accuracy    <      38.55760546 Ry

     iteration # 67     ecut=    30.00 Ry     beta=0.70
     Davidson diagonalization with overlap
     ethr =  1.00E-02,  avg # of iterations =  6.0

     negative rho (up, down):  2.358E-02 0.000E+00

     total cpu time spent up to now is        9.1 secs

     total energy              =      72.53043486 Ry
     Harris-Foulkes estimate   =    -263.62267550 Ry
     estimated scf accuracy    <      17.56334506 Ry

     iteration # 68     ecut=    30.00 Ry     beta=0.70
     Davidson diagonalization with overlap
     ethr =  1.00E-02,  avg # of iterations =  7.0

     negative rho (up, down):  1.835E-04 0.000E+00

     total cpu time spent up to now is        9.2 secs

     total energy              =     -17.81728428 Ry
     Harris-Foulkes estimate   =     -66.02875148 Ry
     estimated scf accuracy    <      18.88661694 Ry

     iteration # 69     ecut=    30.00 Ry     beta=0.70
     Davidson diagonalization with overlap
     ethr =  1.00E-02,  avg # of iterations =  5.0

     negative rho (up, down):  2.609E-03 0.000E+00

     total cpu time spent up to now is        9.2 secs

     total energy              =     -48.11932847 Ry
     Harris-Foulkes estimate   =     -54.64813784 Ry
     estimated scf accuracy    <      32.59476833 Ry

     iteration # 70     ecut=    30.00 Ry     beta=0.70
     Davidson diagonalization with overlap
     ethr =  1.00E-02,  avg # of iterations =  1.0

     negative rho (up, down):  1.533E-02 0.000E+00

     total cpu time spent up to now is        9.2 secs

     total energy              =     -39.96994341 Ry
     Harris-Foulkes estimate   =     -48.16096057 Ry
     estimated scf accuracy    <      24.60292979 Ry

     iteration # 71     ecut=    30.00 Ry     beta=0.70
     Davidson diagonalization with overlap
     ethr =  1.00E-02,  avg # of iterations =  6.0

     negative rho (up, down):  1.294E-02 0.000E+00

     total cpu time spent up to now is        9.3 secs

     total energy              =      12.94732414 Ry
     Harris-Foulkes estimate   =    -339.60796163 Ry
     estimated scf accuracy    <      12.68411875 Ry

     iteration # 72     ecut=    30.00 Ry     beta=0.70
     Davidson diagonalization with overlap
     ethr =  1.00E-02,  avg # of iterations =  8.0

     negative rho (up, down):  4.502E-04 0.000E+00

     total cpu time spent up to now is        9.3 secs

     total energy              =      19.88263953 Ry
     Harris-Foulkes estimate   =    -227.71253569 Ry
     estimated scf accuracy    <       7.82845017 Ry

     iteration # 73     ecut=    30.00 Ry     beta=0.70
     Davidson diagonalization with overlap
     ethr =  1.00E-02,  avg # of iterations =  4.0

     negative rho (up, down):  7.763E-02 0.000E+00

     total cpu time spent up to now is        9.4 secs

     total energy              =     -35.97613207 Ry
     Harris-Foulkes estimate   =     -42.50830067 Ry
     estimated scf accuracy    <      17.32841102 Ry

     iteration # 74     ecut=    30.00 Ry     beta=0.70
     Davidson diagonalization with overlap
     ethr =  1.00E-02,  avg # of iterations =  9.0

     negative rho (up, down):  2.975E-02 0.000E+00

     total cpu time spent up to now is        9.4 secs

     total energy              =      69.48576273 Ry
     Harris-Foulkes estimate   =    -383.81947400 Ry
     estimated scf accuracy    <      51.51657256 Ry

     iteration # 75     ecut=    30.00 Ry     beta=0.70
     Davidson diagonalization with overlap
     ethr =  1.00E-02,  avg # of iterations =  7.0

     negative rho (up, down):  3.494E-03 0.000E+00

     total cpu time spent up to now is        9.5 secs

     total energy              =      40.58758377 Ry
     Harris-Foulkes estimate   =    -132.92340793 Ry
     estimated scf accuracy    <      45.39574711 Ry

     iteration # 76     ecut=    30.00 Ry     beta=0.70
     Davidson diagonalization with overlap
     ethr =  1.00E-02,  avg # of iterations = 11.0

     negative rho (up, down):  9.953E-04 0.000E+00

     total cpu time spent up to now is        9.6 secs

     total energy              =       0.73279516 Ry
     Harris-Foulkes estimate   =    -936.69234625 Ry
     estimated scf accuracy    <       6.56236088 Ry

     iteration # 77     ecut=    30.00 Ry     beta=0.70
     Davidson diagonalization with overlap
     ethr =  1.00E-02,  avg # of iterations =  4.0

     negative rho (up, down):  1.943E-02 0.000E+00

     total cpu time spent up to now is        9.6 secs

     total energy              =     -41.62823656 Ry
     Harris-Foulkes estimate   =     -43.86393886 Ry
     estimated scf accuracy    <      18.56265937 Ry

     iteration # 78     ecut=    30.00 Ry     beta=0.70
     Davidson diagonalization with overlap
     ethr =  1.00E-02,  avg # of iterations =  7.0

     negative rho (up, down):  3.429E-02 0.000E+00

     total cpu time spent up to now is        9.7 secs

     total energy              =   10984.61839936 Ry
     Harris-Foulkes estimate   =    -658.66737948 Ry
     estimated scf accuracy    <      46.95364302 Ry

     iteration # 79     ecut=    30.00 Ry     beta=0.70
     Davidson diagonalization with overlap
     ethr =  1.00E-02,  avg # of iterations =  5.0

     negative rho (up, down):  3.923E-02 0.000E+00

     total cpu time spent up to now is        9.7 secs

     total energy              =     -82.90494707 Ry
     Harris-Foulkes estimate   =    -348.58196373 Ry
     estimated scf accuracy    <      24.78792227 Ry

     iteration # 80     ecut=    30.00 Ry     beta=0.70
     Davidson diagonalization with overlap
     ethr =  1.00E-02,  avg # of iterations =  5.0

     negative rho (up, down):  5.488E-02 0.000E+00

     total cpu time spent up to now is        9.7 secs

     total energy              =      11.97184098 Ry
     Harris-Foulkes estimate   =    -248.99409082 Ry
     estimated scf accuracy    <      23.31381550 Ry

     iteration # 81     ecut=    30.00 Ry     beta=0.70
     Davidson diagonalization with overlap
     ethr =  1.00E-02,  avg # of iterations =  5.0

     negative rho (up, down):  2.405E-02 0.000E+00

     total cpu time spent up to now is        9.8 secs

     total energy              =     -44.65694851 Ry
     Harris-Foulkes estimate   =     -43.92182013 Ry
     estimated scf accuracy    <       7.97590063 Ry

     iteration # 82     ecut=    30.00 Ry     beta=0.70
     Davidson diagonalization with overlap
     ethr =  1.00E-02,  avg # of iterations =  4.0

     negative rho (up, down):  1.332E-02 0.000E+00

     total cpu time spent up to now is        9.8 secs

     total energy              =      34.25013676 Ry
     Harris-Foulkes estimate   =    -270.56255686 Ry
     estimated scf accuracy    <       9.05828404 Ry

     iteration # 83     ecut=    30.00 Ry     beta=0.70
     Davidson diagonalization with overlap
     ethr =  1.00E-02,  avg # of iterations =  6.0

     negative rho (up, down):  6.102E-02 0.000E+00

     total cpu time spent up to now is        9.9 secs

     total energy              =     -35.51732665 Ry
     Harris-Foulkes estimate   =     -39.73703559 Ry
     estimated scf accuracy    <      13.08845998 Ry

     iteration # 84     ecut=    30.00 Ry     beta=0.70
     Davidson diagonalization with overlap
     ethr =  1.00E-02,  avg # of iterations =  8.0

     negative rho (up, down):  5.176E-02 0.000E+00

     total cpu time spent up to now is        9.9 secs

     total energy              =     -76.69668922 Ry
     Harris-Foulkes estimate   =    -232.13273410 Ry
     estimated scf accuracy    <      56.53350288 Ry

     iteration # 85     ecut=    30.00 Ry     beta=0.70
     Davidson diagonalization with overlap
     ethr =  1.00E-02,  avg # of iterations =  8.0

     negative rho (up, down):  3.375E-02 0.000E+00

     total cpu time spent up to now is       10.0 secs

     total energy              =      20.25457964 Ry
     Harris-Foulkes estimate   =   -2601.26636101 Ry
     estimated scf accuracy    <      52.98055783 Ry

     iteration # 86     ecut=    30.00 Ry     beta=0.70
     Davidson diagonalization with overlap
     ethr =  1.00E-02,  avg # of iterations =  9.0

     negative rho (up, down):  1.012E-01 0.000E+00

     total cpu time spent up to now is       10.0 secs

     total energy              =      21.03327059 Ry
     Harris-Foulkes estimate   =    -187.52593606 Ry
     estimated scf accuracy    <      34.72543690 Ry

     iteration # 87     ecut=    30.00 Ry     beta=0.70
     Davidson diagonalization with overlap
     ethr =  1.00E-02,  avg # of iterations =  8.0

     negative rho (up, down):  1.022E-01 0.000E+00

     total cpu time spent up to now is       10.1 secs

     total energy              =   -1538.97042577 Ry
     Harris-Foulkes estimate   =    -358.25978822 Ry
     estimated scf accuracy    <      26.47011944 Ry

     iteration # 88     ecut=    30.00 Ry     beta=0.70
     Davidson diagonalization with overlap
     ethr =  1.00E-02,  avg # of iterations =  4.0

     negative rho (up, down):  1.097E-02 0.000E+00

     total cpu time spent up to now is       10.1 secs

     total energy              =     120.90240129 Ry
     Harris-Foulkes estimate   =   -3078.26812895 Ry
     estimated scf accuracy    <      43.28399833 Ry

     iteration # 89     ecut=    30.00 Ry     beta=0.70
     Davidson diagonalization with overlap
     ethr =  1.00E-02,  avg # of iterations =  8.0

     negative rho (up, down):  4.945E-02 0.000E+00

     total cpu time spent up to now is       10.2 secs

     total energy              =      40.09363420 Ry
     Harris-Foulkes estimate   =    -102.47817244 Ry
     estimated scf accuracy    <      25.80641489 Ry

     iteration # 90     ecut=    30.00 Ry     beta=0.70
     Davidson diagonalization with overlap
     ethr =  1.00E-02,  avg # of iterations =  6.0

     negative rho (up, down):  3.421E-02 0.000E+00

     total cpu time spent up to now is       10.2 secs

     total energy              =      63.89957764 Ry
     Harris-Foulkes estimate   =    -285.54832712 Ry
     estimated scf accuracy    <      25.75552039 Ry

     iteration # 91     ecut=    30.00 Ry     beta=0.70
     Davidson diagonalization with overlap
     ethr =  1.00E-02,  avg # of iterations =  9.0

     negative rho (up, down):  1.472E-01 0.000E+00

     total cpu time spent up to now is       10.3 secs

     total energy              =      -8.30048589 Ry
     Harris-Foulkes estimate   =     -60.17829664 Ry
     estimated scf accuracy    <       6.16229159 Ry

     iteration # 92     ecut=    30.00 Ry     beta=0.70
     Davidson diagonalization with overlap
     ethr =  1.00E-02,  avg # of iterations =  6.0

     negative rho (up, down):  3.149E-01 0.000E+00

     total cpu time spent up to now is       10.3 secs

     total energy              =     -38.92868874 Ry
     Harris-Foulkes estimate   =    -142.46774594 Ry
     estimated scf accuracy    <      15.88808701 Ry

     iteration # 93     ecut=    30.00 Ry     beta=0.70
     Davidson diagonalization with overlap
     ethr =  1.00E-02,  avg # of iterations =  7.0

     negative rho (up, down):  3.428E-01 0.000E+00

     total cpu time spent up to now is       10.4 secs

     total energy              =    -516.44380215 Ry
     Harris-Foulkes estimate   =   -1464.79077363 Ry
     estimated scf accuracy    <      52.13328193 Ry

     iteration # 94     ecut=    30.00 Ry     beta=0.70
     Davidson diagonalization with overlap
     ethr =  1.00E-02,  avg # of iterations =  6.0

     negative rho (up, down):  3.659E-01 0.000E+00

     total cpu time spent up to now is       10.4 secs

     total energy              =      58.02671709 Ry
     Harris-Foulkes estimate   =   -1130.50864474 Ry
     estimated scf accuracy    <      57.26451583 Ry

     iteration # 95     ecut=    30.00 Ry     beta=0.70
     Davidson diagonalization with overlap
     ethr =  1.00E-02,  avg # of iterations =  8.0

     negative rho (up, down):  2.168E-01 0.000E+00

     total cpu time spent up to now is       10.5 secs

     total energy              =     -22.21893262 Ry
     Harris-Foulkes estimate   =    -255.44790184 Ry
     estimated scf accuracy    <      57.40495113 Ry

     iteration # 96     ecut=    30.00 Ry     beta=0.70
     Davidson diagonalization with overlap
     ethr =  1.00E-02,  avg # of iterations =  6.0

     negative rho (up, down):  3.062E-01 0.000E+00

     total cpu time spent up to now is       10.5 secs

     total energy              =      24.60550508 Ry
     Harris-Foulkes estimate   =    -889.49640161 Ry
     estimated scf accuracy    <      49.90372380 Ry

     iteration # 97     ecut=    30.00 Ry     beta=0.70
     Davidson diagonalization with overlap
     ethr =  1.00E-02,  avg # of iterations =  6.0

     negative rho (up, down):  3.116E-01 0.000E+00

     total cpu time spent up to now is       10.6 secs

     total energy              =       9.77585272 Ry
     Harris-Foulkes estimate   =    -352.90195680 Ry
     estimated scf accuracy    <      48.73540252 Ry

     iteration # 98     ecut=    30.00 Ry     beta=0.70
     Davidson diagonalization with overlap
     ethr =  1.00E-02,  avg # of iterations = 12.0

     negative rho (up, down):  3.292E-01 0.000E+00

     total cpu time spent up to now is       10.6 secs

     total energy              =    -828.26161127 Ry
     Harris-Foulkes estimate   =   -1228.48132016 Ry
     estimated scf accuracy    <      56.20835641 Ry

     iteration # 99     ecut=    30.00 Ry     beta=0.70
     Davidson diagonalization with overlap
     ethr =  1.00E-02,  avg # of iterations =  6.0

     negative rho (up, down):  5.311E-01 0.000E+00

     total cpu time spent up to now is       10.7 secs

     total energy              =   -2778.97147328 Ry
     Harris-Foulkes estimate   =   -4769.30605167 Ry
     estimated scf accuracy    <      45.87064869 Ry

     iteration #100     ecut=    30.00 Ry     beta=0.70
     Davidson diagonalization with overlap
     ethr =  1.00E-02,  avg # of iterations =  9.0

     negative rho (up, down):  1.171E+00 0.000E+00

     total cpu time spent up to now is       10.7 secs

     total energy              =    -511.63343707 Ry
     Harris-Foulkes estimate   =   -6260.92911599 Ry
     estimated scf accuracy    <      45.63974555 Ry

     End of self-consistent calculation

     convergence NOT achieved after 100 iterations: stopping

     Writing output data file pwscf.save
 
     init_run     :      0.09s CPU      0.11s WALL (       1 calls)
     electrons    :      7.49s CPU      9.39s WALL (       5 calls)
     update_pot   :      0.48s CPU      0.81s WALL (       4 calls)
     forces       :      0.11s CPU      0.11s WALL (       4 calls)

     Called by init_run:
     wfcinit      :      0.01s CPU      0.02s WALL (       1 calls)
     potinit      :      0.02s CPU      0.03s WALL (       1 calls)

     Called by electrons:
     c_bands      :      3.62s CPU      3.78s WALL (     207 calls)
     sum_band     :      0.60s CPU      0.64s WALL (     207 calls)
     v_of_rho     :      1.55s CPU      1.64s WALL (     212 calls)
     mix_rho      :      1.49s CPU      2.53s WALL (     207 calls)

     Called by c_bands:
     init_us_2    :      0.02s CPU      0.02s WALL (     415 calls)
     cegterg      :      3.58s CPU      3.67s WALL (     207 calls)

     Called by sum_band:

     Called by *egterg:
     h_psi        :      2.98s CPU      3.06s WALL (    1110 calls)
     g_psi        :      0.03s CPU      0.03s WALL (     902 calls)
     cdiaghg      :      0.22s CPU      0.23s WALL (    1105 calls)

     Called by h_psi:
     h_psi:pot    :      2.97s CPU      3.04s WALL (    1110 calls)
     h_psi:calbec :      0.05s CPU      0.06s WALL (    1110 calls)
     vloc_psi     :      2.91s CPU      2.97s WALL (    1110 calls)
     add_vuspsi   :      0.01s CPU      0.01s WALL (    1110 calls)

     General routines
     calbec       :      0.07s CPU      0.08s WALL (    1129 calls)
     fft          :      1.07s CPU      1.14s WALL (    2340 calls)
     fftw         :      3.00s CPU      3.09s WALL (   13458 calls)
     davcio       :      0.24s CPU      0.85s WALL (    3708 calls)
 
     Parallel routines
     fft_scatter  :      1.57s CPU      1.66s WALL (   15798 calls)
 
     PWSCF        :     8.35s CPU        10.83s WALL

 
   This run was terminated on:   7:32:52  14Feb2018            

=------------------------------------------------------------------------------=
   JOB DONE.
=------------------------------------------------------------------------------=
