
     Program PWSCF v.6.0 (svn rev. 13079) starts on 14Feb2018 at  7: 5:33 

     This program is part of the open-source Quantum ESPRESSO suite
     for quantum simulation of materials; please cite
         "P. Giannozzi et al., J. Phys.:Condens. Matter 21 395502 (2009);
          URL http://www.quantum-espresso.org", 
     in publications or presentations arising from this work. More details at
     http://www.quantum-espresso.org/quote

     Parallel version (MPI), running on    28 processors
     R & G space division:  proc/nbgrp/npool/nimage =      28
     Reading input from inputs/MD-H2O-2/14.in

     Current dimensions of program PWSCF are:
     Max number of different atomic species (ntypx) = 10
     Max number of k-points (npk) =  40000
     Max angular momentum in pseudopotentials (lmaxx) =  3

     Subspace diagonalization in iterative solution of the eigenvalue problem:
     a serial algorithm will be used

 
     Parallelization info
     --------------------
     sticks:   dense  smooth     PW     G-vecs:    dense   smooth      PW
     Min         136     136     33                 6338     6338     787
     Max         137     137     34                 6341     6341     792
     Sum        3809    3809    949               177509   177509   22119
 


     bravais-lattice index     =            1
     lattice parameter (alat)  =      20.0000  a.u.
     unit-cell volume          =    8000.0000 (a.u.)^3
     number of atoms/cell      =            3
     number of atomic types    =            2
     number of electrons       =         8.00
     number of Kohn-Sham states=            8
     kinetic-energy cutoff     =      30.0000  Ry
     charge density cutoff     =     120.0000  Ry
     convergence threshold     =      1.0E-08
     mixing beta               =       0.7000
     number of iterations used =            8  plain     mixing
     Exchange-correlation      = BLYP ( 1  3  1  3 0 0)
     nstep                     =         5000


     celldm(1)=  20.000000  celldm(2)=   0.000000  celldm(3)=   0.000000
     celldm(4)=   0.000000  celldm(5)=   0.000000  celldm(6)=   0.000000

     crystal axes: (cart. coord. in units of alat)
               a(1) = (   1.000000   0.000000   0.000000 )  
               a(2) = (   0.000000   1.000000   0.000000 )  
               a(3) = (   0.000000   0.000000   1.000000 )  

     reciprocal axes: (cart. coord. in units 2 pi/alat)
               b(1) = (  1.000000  0.000000  0.000000 )  
               b(2) = (  0.000000  1.000000  0.000000 )  
               b(3) = (  0.000000  0.000000  1.000000 )  


     PseudoPot. # 1 for  H read from file:
     ./H.blyp-hgh.UPF
     MD5 check sum: c576e69559cde411e611be972c763230
     Pseudo is Norm-conserving, Zval =  1.0
     Generated in analytical, separable form
     Using radial grid of  929 points,  0 beta functions with: 

     PseudoPot. # 2 for  O read from file:
     ./O.blyp-hgh.UPF
     MD5 check sum: d0b7156309aa9befef28faac7bc56342
     Pseudo is Norm-conserving, Zval =  6.0
     Generated in analytical, separable form
     Using radial grid of 1095 points,  1 beta functions with: 
                l(1) =   0

     atomic species   valence    mass     pseudopotential
        H              1.00     1.01000      H( 1.00)
        O              6.00    16.00000      O( 1.00)

     No symmetry found



   Cartesian axes

     site n.     atom                  positions (alat units)
         1           H   tau(   1) = (   0.7736937   0.2234512   0.4719354  )
         2           H   tau(   2) = (   0.0191340   0.2651221   0.8685689  )
         3           O   tau(   3) = (   0.0628395   0.3290646   0.9310214  )

     number of k points=     1  Marzari-Vanderbilt smearing, width (Ry)=  0.0250
                       cart. coord. in units 2pi/alat
        k(    1) = (   0.0000000   0.0000000   0.0000000), wk =   2.0000000

     Dense  grid:   177509 G-vectors     FFT dimensions: (  72,  72,  72)

     Estimated max dynamical RAM per process >       6.09Mb

     Estimated total allocated dynamical RAM >     170.64Mb

     Initial potential from superposition of free atoms
     Check: negative starting charge=   -0.348928

     starting charge    7.99998, renormalised to    8.00000

     negative rho (up, down):  3.489E-01 0.000E+00
     Starting wfc are    6 randomized atomic wfcs +    2 random wfc

     total cpu time spent up to now is        0.2 secs

     per-process dynamical memory:    18.8 Mb

     Self-consistent Calculation

     iteration #  1     ecut=    30.00 Ry     beta=0.70
     Davidson diagonalization with overlap
     ethr =  1.00E-02,  avg # of iterations =  9.0

     negative rho (up, down):  9.131E-02 0.000E+00

     total cpu time spent up to now is        0.3 secs

     total energy              =     -30.36284291 Ry
     Harris-Foulkes estimate   =     -32.23584135 Ry
     estimated scf accuracy    <       2.15569529 Ry

     iteration #  2     ecut=    30.00 Ry     beta=0.70
     Davidson diagonalization with overlap
     ethr =  1.00E-02,  avg # of iterations =  3.0

     negative rho (up, down):  6.647E-02 0.000E+00

     total cpu time spent up to now is        0.4 secs

     total energy              =     -32.28631213 Ry
     Harris-Foulkes estimate   =     -34.57051308 Ry
     estimated scf accuracy    <       5.57026659 Ry

     iteration #  3     ecut=    30.00 Ry     beta=0.70
     Davidson diagonalization with overlap
     ethr =  1.00E-02,  avg # of iterations =  2.0

     negative rho (up, down):  6.394E-02 0.000E+00

     total cpu time spent up to now is        0.4 secs

     total energy              =     -32.43612004 Ry
     Harris-Foulkes estimate   =     -32.52140766 Ry
     estimated scf accuracy    <       1.80694917 Ry

     iteration #  4     ecut=    30.00 Ry     beta=0.70
     Davidson diagonalization with overlap
     ethr =  1.00E-02,  avg # of iterations =  1.0

     negative rho (up, down):  1.222E-02 0.000E+00

     total cpu time spent up to now is        0.4 secs

     total energy              =     -31.30438967 Ry
     Harris-Foulkes estimate   =     -32.43644415 Ry
     estimated scf accuracy    <       1.68826418 Ry

     iteration #  5     ecut=    30.00 Ry     beta=0.70
     Davidson diagonalization with overlap
     ethr =  1.00E-02,  avg # of iterations =  4.0

     negative rho (up, down):  2.144E-02 0.000E+00

     total cpu time spent up to now is        0.4 secs

     total energy              =     -33.30362092 Ry
     Harris-Foulkes estimate   =     -33.18031113 Ry
     estimated scf accuracy    <       7.39745947 Ry

     iteration #  6     ecut=    30.00 Ry     beta=0.70
     Davidson diagonalization with overlap
     ethr =  1.00E-02,  avg # of iterations =  1.0

     negative rho (up, down):  1.386E-02 0.000E+00

     total cpu time spent up to now is        0.5 secs

     total energy              =     -32.97933541 Ry
     Harris-Foulkes estimate   =     -33.31338448 Ry
     estimated scf accuracy    <       9.14244057 Ry

     iteration #  7     ecut=    30.00 Ry     beta=0.70
     Davidson diagonalization with overlap
     ethr =  1.00E-02,  avg # of iterations =  1.0

     negative rho (up, down):  1.618E-02 0.000E+00

     total cpu time spent up to now is        0.5 secs

     total energy              =     -32.82349524 Ry
     Harris-Foulkes estimate   =     -33.03447053 Ry
     estimated scf accuracy    <       3.62539557 Ry

     iteration #  8     ecut=    30.00 Ry     beta=0.70
     Davidson diagonalization with overlap
     ethr =  1.00E-02,  avg # of iterations =  1.0

     negative rho (up, down):  4.569E-02 0.000E+00

     total cpu time spent up to now is        0.5 secs

     total energy              =     -32.51003037 Ry
     Harris-Foulkes estimate   =     -32.83866247 Ry
     estimated scf accuracy    <       2.82596700 Ry

     iteration #  9     ecut=    30.00 Ry     beta=0.70
     Davidson diagonalization with overlap
     ethr =  1.00E-02,  avg # of iterations =  1.0

     negative rho (up, down):  5.065E-02 0.000E+00

     total cpu time spent up to now is        0.6 secs

     total energy              =     -31.96849619 Ry
     Harris-Foulkes estimate   =     -32.51651289 Ry
     estimated scf accuracy    <       2.20208970 Ry

     iteration # 10     ecut=    30.00 Ry     beta=0.70
     Davidson diagonalization with overlap
     ethr =  1.00E-02,  avg # of iterations =  1.0

     negative rho (up, down):  4.702E-02 0.000E+00

     total cpu time spent up to now is        0.6 secs

     total energy              =     -32.33817020 Ry
     Harris-Foulkes estimate   =     -31.99014617 Ry
     estimated scf accuracy    <       1.53299436 Ry

     iteration # 11     ecut=    30.00 Ry     beta=0.70
     Davidson diagonalization with overlap
     ethr =  1.00E-02,  avg # of iterations =  1.0

     negative rho (up, down):  1.743E-02 0.000E+00

     total cpu time spent up to now is        0.6 secs

     total energy              =     -32.07528347 Ry
     Harris-Foulkes estimate   =     -32.31540724 Ry
     estimated scf accuracy    <       1.79100935 Ry

     iteration # 12     ecut=    30.00 Ry     beta=0.70
     Davidson diagonalization with overlap
     ethr =  1.00E-02,  avg # of iterations =  1.0

     negative rho (up, down):  2.583E-01 0.000E+00

     total cpu time spent up to now is        0.7 secs

     total energy              =     -32.15862630 Ry
     Harris-Foulkes estimate   =     -32.07908074 Ry
     estimated scf accuracy    <       1.40523191 Ry

     iteration # 13     ecut=    30.00 Ry     beta=0.70
     Davidson diagonalization with overlap
     ethr =  1.00E-02,  avg # of iterations =  1.0

     negative rho (up, down):  1.053E+00 0.000E+00

     total cpu time spent up to now is        0.7 secs

     total energy              =     -33.12341336 Ry
     Harris-Foulkes estimate   =     -32.17013405 Ry
     estimated scf accuracy    <       1.63163892 Ry

     iteration # 14     ecut=    30.00 Ry     beta=0.70
     Davidson diagonalization with overlap
     ethr =  1.00E-02,  avg # of iterations =  4.0

     negative rho (up, down):  1.610E-01 0.000E+00

     total cpu time spent up to now is        0.7 secs

     total energy              =     -29.66918189 Ry
     Harris-Foulkes estimate   =     -33.90954780 Ry
     estimated scf accuracy    <      10.97191268 Ry

     iteration # 15     ecut=    30.00 Ry     beta=0.70
     Davidson diagonalization with overlap
     ethr =  1.00E-02,  avg # of iterations =  6.0

     negative rho (up, down):  1.113E-01 0.000E+00

     total cpu time spent up to now is        0.8 secs

     total energy              =     -31.45059178 Ry
     Harris-Foulkes estimate   =     -31.47548958 Ry
     estimated scf accuracy    <       0.44917123 Ry

     iteration # 16     ecut=    30.00 Ry     beta=0.70
     Davidson diagonalization with overlap
     ethr =  5.61E-03,  avg # of iterations =  1.0

     negative rho (up, down):  1.899E-01 0.000E+00

     total cpu time spent up to now is        0.8 secs

     total energy              =     -31.60709597 Ry
     Harris-Foulkes estimate   =     -31.46016282 Ry
     estimated scf accuracy    <       0.42894080 Ry

     iteration # 17     ecut=    30.00 Ry     beta=0.70
     Davidson diagonalization with overlap
     ethr =  5.36E-03,  avg # of iterations =  1.0

     negative rho (up, down):  4.636E-02 0.000E+00

     total cpu time spent up to now is        0.9 secs

     total energy              =     -31.34941828 Ry
     Harris-Foulkes estimate   =     -31.61750808 Ry
     estimated scf accuracy    <       0.73021353 Ry

     iteration # 18     ecut=    30.00 Ry     beta=0.70
     Davidson diagonalization with overlap
     ethr =  5.36E-03,  avg # of iterations =  2.0

     negative rho (up, down):  8.446E-02 0.000E+00

     total cpu time spent up to now is        0.9 secs

     total energy              =     -31.39837703 Ry
     Harris-Foulkes estimate   =     -31.38484525 Ry
     estimated scf accuracy    <       0.30489350 Ry

     iteration # 19     ecut=    30.00 Ry     beta=0.70
     Davidson diagonalization with overlap
     ethr =  3.81E-03,  avg # of iterations =  5.0

     negative rho (up, down):  5.890E-02 0.000E+00

     total cpu time spent up to now is        0.9 secs

     total energy              =     -32.15537498 Ry
     Harris-Foulkes estimate   =     -32.63919991 Ry
     estimated scf accuracy    <       2.06241154 Ry

     iteration # 20     ecut=    30.00 Ry     beta=0.70
     Davidson diagonalization with overlap
     ethr =  3.81E-03,  avg # of iterations =  1.0

     negative rho (up, down):  4.193E-02 0.000E+00

     total cpu time spent up to now is        1.0 secs

     total energy              =     -32.08102326 Ry
     Harris-Foulkes estimate   =     -32.17023951 Ry
     estimated scf accuracy    <       1.22584367 Ry

     iteration # 21     ecut=    30.00 Ry     beta=0.70
     Davidson diagonalization with overlap
     ethr =  3.81E-03,  avg # of iterations =  1.0

     negative rho (up, down):  3.598E-02 0.000E+00

     total cpu time spent up to now is        1.0 secs

     total energy              =     -31.95397956 Ry
     Harris-Foulkes estimate   =     -32.08188499 Ry
     estimated scf accuracy    <       1.10306222 Ry

     iteration # 22     ecut=    30.00 Ry     beta=0.70
     Davidson diagonalization with overlap
     ethr =  3.81E-03,  avg # of iterations =  1.0

     negative rho (up, down):  3.343E-02 0.000E+00

     total cpu time spent up to now is        1.0 secs

     total energy              =     -31.91183861 Ry
     Harris-Foulkes estimate   =     -31.95721469 Ry
     estimated scf accuracy    <       0.53061500 Ry

     iteration # 23     ecut=    30.00 Ry     beta=0.70
     Davidson diagonalization with overlap
     ethr =  3.81E-03,  avg # of iterations =  1.0

     negative rho (up, down):  5.090E-03 0.000E+00

     total cpu time spent up to now is        1.1 secs

     total energy              =     -31.86789182 Ry
     Harris-Foulkes estimate   =     -31.97593077 Ry
     estimated scf accuracy    <       1.55478419 Ry

     iteration # 24     ecut=    30.00 Ry     beta=0.70
     Davidson diagonalization with overlap
     ethr =  3.81E-03,  avg # of iterations =  1.0

     negative rho (up, down):  4.141E-04 0.000E+00

     total cpu time spent up to now is        1.1 secs

     total energy              =     -31.94037809 Ry
     Harris-Foulkes estimate   =     -31.97629166 Ry
     estimated scf accuracy    <       0.90075660 Ry

     iteration # 25     ecut=    30.00 Ry     beta=0.70
     Davidson diagonalization with overlap
     ethr =  3.81E-03,  avg # of iterations =  1.0

     negative rho (up, down):  1.503E-04 0.000E+00

     total cpu time spent up to now is        1.1 secs

     total energy              =     -31.94555054 Ry
     Harris-Foulkes estimate   =     -31.94786042 Ry
     estimated scf accuracy    <       0.11416807 Ry

     iteration # 26     ecut=    30.00 Ry     beta=0.70
     Davidson diagonalization with overlap
     ethr =  1.43E-03,  avg # of iterations =  1.0

     negative rho (up, down):  4.333E-06 0.000E+00

     total cpu time spent up to now is        1.2 secs

     total energy              =     -31.94375580 Ry
     Harris-Foulkes estimate   =     -31.94627325 Ry
     estimated scf accuracy    <       0.01287507 Ry

     iteration # 27     ecut=    30.00 Ry     beta=0.70
     Davidson diagonalization with overlap
     ethr =  1.61E-04,  avg # of iterations =  3.0

     negative rho (up, down):  1.120E-05 0.000E+00

     total cpu time spent up to now is        1.2 secs

     total energy              =     -31.94540355 Ry
     Harris-Foulkes estimate   =     -31.95443550 Ry
     estimated scf accuracy    <       0.64820514 Ry

     iteration # 28     ecut=    30.00 Ry     beta=0.70
     Davidson diagonalization with overlap
     ethr =  1.61E-04,  avg # of iterations =  1.0

     negative rho (up, down):  1.984E-04 0.000E+00

     total cpu time spent up to now is        1.2 secs

     total energy              =     -31.94157019 Ry
     Harris-Foulkes estimate   =     -31.94775591 Ry
     estimated scf accuracy    <       0.14153152 Ry

     iteration # 29     ecut=    30.00 Ry     beta=0.70
     Davidson diagonalization with overlap
     ethr =  1.61E-04,  avg # of iterations =  1.0

     negative rho (up, down):  3.562E-06 0.000E+00

     total cpu time spent up to now is        1.3 secs

     total energy              =     -31.94661469 Ry
     Harris-Foulkes estimate   =     -31.94692758 Ry
     estimated scf accuracy    <       0.06792442 Ry

     iteration # 30     ecut=    30.00 Ry     beta=0.70
     Davidson diagonalization with overlap
     ethr =  1.61E-04,  avg # of iterations =  1.0

     total cpu time spent up to now is        1.3 secs

     total energy              =     -31.94499913 Ry
     Harris-Foulkes estimate   =     -31.94664142 Ry
     estimated scf accuracy    <       0.04861758 Ry

     iteration # 31     ecut=    30.00 Ry     beta=0.70
     Davidson diagonalization with overlap
     ethr =  1.61E-04,  avg # of iterations =  1.0

     total cpu time spent up to now is        1.3 secs

     total energy              =     -31.94594987 Ry
     Harris-Foulkes estimate   =     -31.94601727 Ry
     estimated scf accuracy    <       0.00357059 Ry

     iteration # 32     ecut=    30.00 Ry     beta=0.70
     Davidson diagonalization with overlap
     ethr =  4.46E-05,  avg # of iterations =  1.0

     total cpu time spent up to now is        1.4 secs

     total energy              =     -31.94596844 Ry
     Harris-Foulkes estimate   =     -31.94597466 Ry
     estimated scf accuracy    <       0.00024924 Ry

     iteration # 33     ecut=    30.00 Ry     beta=0.70
     Davidson diagonalization with overlap
     ethr =  3.12E-06,  avg # of iterations =  7.0

     total cpu time spent up to now is        1.4 secs

     total energy              =     -31.94597171 Ry
     Harris-Foulkes estimate   =     -31.94597160 Ry
     estimated scf accuracy    <       0.00000002 Ry

     iteration # 34     ecut=    30.00 Ry     beta=0.70
     Davidson diagonalization with overlap
     ethr =  2.61E-10,  avg # of iterations =  2.0

     total cpu time spent up to now is        1.4 secs

     total energy              =     -31.94597170 Ry
     Harris-Foulkes estimate   =     -31.94597171 Ry
     estimated scf accuracy    <       0.00000015 Ry

     iteration # 35     ecut=    30.00 Ry     beta=0.70
     Davidson diagonalization with overlap
     ethr =  2.61E-10,  avg # of iterations =  1.0

     total cpu time spent up to now is        1.5 secs

     total energy              =     -31.94597171 Ry
     Harris-Foulkes estimate   =     -31.94597170 Ry
     estimated scf accuracy    <       0.00000002 Ry

     iteration # 36     ecut=    30.00 Ry     beta=0.70
     Davidson diagonalization with overlap
     ethr =  2.61E-10,  avg # of iterations =  1.0

     total cpu time spent up to now is        1.5 secs

     End of self-consistent calculation

          k = 0.0000 0.0000 0.0000 ( 22119 PWs)   bands (ev):

   -24.8134 -10.6607  -7.0718  -7.0715  -6.9327  -0.7214   0.3067   0.7908

     the Fermi energy is    -6.9014 ev

!    total energy              =     -31.94597171 Ry
     Harris-Foulkes estimate   =     -31.94597171 Ry
     estimated scf accuracy    <          1.5E-09 Ry

     convergence has been achieved in  36 iterations

     Forces acting on atoms (Ry/au):

     atom    1 type  1   force =    -0.00004563    0.00030087   -0.00009927
     atom    2 type  1   force =    -0.00630168   -0.01057016   -0.01033152
     atom    3 type  2   force =     0.00634730    0.01026929    0.01043079

     Total force =     0.022646     Total SCF correction =     0.000008

     Molecular Dynamics Calculation

     Starting temperature  =  1000.00 K

     temperature is controlled by Andersen thermostat
     Collision frequency = 1.0000/timestep
     mass H                =     1.01
     mass O                =    16.00
     Time step             =   100.00 a.u.,  4.8378 femto-seconds

     Entering Dynamics:    iteration =     1
                           time      =   0.0048 pico-seconds


     Andersen thermostat:    3 collisions

ATOMIC_POSITIONS (bohr)
H       15.492383058   3.909951924   9.108497226
H        0.646943754   5.387343103  17.312700356
O        1.238941029   6.611224043  18.644976518


     kinetic energy (Ekin) =     0.02564463 Ry
     temperature           =  1349.65392946 K 
     Ekin + Etot (const)   =   -31.92032708 Ry

     Linear momentum :   -0.0000000000   -0.0000000000   -0.0000000000

     Writing output data file pwscf.save
     Check: negative starting charge=   -0.348928
     NEW-OLD atomic charge density approx. for the potential
     Check: negative starting charge=   -0.348560

     negative rho (up, down):  8.657E-02 0.000E+00

     total cpu time spent up to now is        1.9 secs

     per-process dynamical memory:    20.4 Mb

     Self-consistent Calculation

     iteration #  1     ecut=    30.00 Ry     beta=0.70
     Davidson diagonalization with overlap
     c_bands:  1 eigenvalues not converged
     ethr =  1.00E-06,  avg # of iterations = 20.0

     negative rho (up, down):  2.185E-02 0.000E+00

     total cpu time spent up to now is        2.0 secs

     total energy              =     -31.74531672 Ry
     Harris-Foulkes estimate   =     -31.87893681 Ry
     estimated scf accuracy    <       0.23058721 Ry

     iteration #  2     ecut=    30.00 Ry     beta=0.70
     Davidson diagonalization with overlap
     ethr =  2.88E-03,  avg # of iterations =  2.0

     negative rho (up, down):  1.714E-02 0.000E+00

     total cpu time spent up to now is        2.0 secs

     total energy              =     -31.99790105 Ry
     Harris-Foulkes estimate   =     -32.65531372 Ry
     estimated scf accuracy    <       2.63718398 Ry

     iteration #  3     ecut=    30.00 Ry     beta=0.70
     Davidson diagonalization with overlap
     ethr =  2.88E-03,  avg # of iterations =  2.0

     negative rho (up, down):  1.649E-02 0.000E+00

     total cpu time spent up to now is        2.1 secs

     total energy              =     -31.97374522 Ry
     Harris-Foulkes estimate   =     -32.04833252 Ry
     estimated scf accuracy    <       1.36742351 Ry

     iteration #  4     ecut=    30.00 Ry     beta=0.70
     Davidson diagonalization with overlap
     ethr =  2.88E-03,  avg # of iterations =  1.0

     negative rho (up, down):  1.649E-02 0.000E+00

     total cpu time spent up to now is        2.1 secs

     total energy              =     -31.95097375 Ry
     Harris-Foulkes estimate   =     -31.97367534 Ry
     estimated scf accuracy    <       1.49043509 Ry

     iteration #  5     ecut=    30.00 Ry     beta=0.70
     Davidson diagonalization with overlap
     ethr =  2.88E-03,  avg # of iterations =  1.0

     negative rho (up, down):  1.653E-02 0.000E+00

     total cpu time spent up to now is        2.1 secs

     total energy              =     -31.96394588 Ry
     Harris-Foulkes estimate   =     -31.95035798 Ry
     estimated scf accuracy    <       1.47721525 Ry

     iteration #  6     ecut=    30.00 Ry     beta=0.70
     Davidson diagonalization with overlap
     ethr =  2.88E-03,  avg # of iterations =  1.0

     negative rho (up, down):  1.048E-02 0.000E+00

     total cpu time spent up to now is        2.2 secs

     total energy              =     -31.36293978 Ry
     Harris-Foulkes estimate   =     -31.96438775 Ry
     estimated scf accuracy    <       1.59563619 Ry

     iteration #  7     ecut=    30.00 Ry     beta=0.70
     Davidson diagonalization with overlap
     ethr =  2.88E-03,  avg # of iterations =  2.0

     negative rho (up, down):  7.162E-03 0.000E+00

     total cpu time spent up to now is        2.2 secs

     total energy              =     -32.77960902 Ry
     Harris-Foulkes estimate   =     -32.49759328 Ry
     estimated scf accuracy    <       1.71045669 Ry

     iteration #  8     ecut=    30.00 Ry     beta=0.70
     Davidson diagonalization with overlap
     ethr =  2.88E-03,  avg # of iterations =  1.0

     negative rho (up, down):  6.597E-03 0.000E+00

     total cpu time spent up to now is        2.2 secs

     total energy              =     -32.83661085 Ry
     Harris-Foulkes estimate   =     -32.78148199 Ry
     estimated scf accuracy    <       2.09983711 Ry

     iteration #  9     ecut=    30.00 Ry     beta=0.70
     Davidson diagonalization with overlap
     ethr =  2.88E-03,  avg # of iterations =  1.0

     negative rho (up, down):  1.359E-03 0.000E+00

     total cpu time spent up to now is        2.3 secs

     total energy              =     -32.39140297 Ry
     Harris-Foulkes estimate   =     -32.83675503 Ry
     estimated scf accuracy    <       2.17250605 Ry

     iteration # 10     ecut=    30.00 Ry     beta=0.70
     Davidson diagonalization with overlap
     ethr =  2.88E-03,  avg # of iterations =  1.0

     negative rho (up, down):  1.302E-03 0.000E+00

     total cpu time spent up to now is        2.3 secs

     total energy              =     -32.18216433 Ry
     Harris-Foulkes estimate   =     -32.39742737 Ry
     estimated scf accuracy    <       1.54139178 Ry

     iteration # 11     ecut=    30.00 Ry     beta=0.70
     Davidson diagonalization with overlap
     ethr =  2.88E-03,  avg # of iterations =  1.0

     negative rho (up, down):  1.472E-03 0.000E+00

     total cpu time spent up to now is        2.3 secs

     total energy              =     -32.13698128 Ry
     Harris-Foulkes estimate   =     -32.17608967 Ry
     estimated scf accuracy    <       1.22203672 Ry

     iteration # 12     ecut=    30.00 Ry     beta=0.70
     Davidson diagonalization with overlap
     ethr =  2.88E-03,  avg # of iterations =  1.0

     negative rho (up, down):  2.274E-03 0.000E+00

     total cpu time spent up to now is        2.4 secs

     total energy              =     -32.07043846 Ry
     Harris-Foulkes estimate   =     -32.13711072 Ry
     estimated scf accuracy    <       1.16245181 Ry

     iteration # 13     ecut=    30.00 Ry     beta=0.70
     Davidson diagonalization with overlap
     ethr =  2.88E-03,  avg # of iterations =  1.0

     negative rho (up, down):  9.360E-04 0.000E+00

     total cpu time spent up to now is        2.4 secs

     total energy              =     -31.78602840 Ry
     Harris-Foulkes estimate   =     -32.07102301 Ry
     estimated scf accuracy    <       1.05675877 Ry

     iteration # 14     ecut=    30.00 Ry     beta=0.70
     Davidson diagonalization with overlap
     ethr =  2.88E-03,  avg # of iterations =  2.0

     negative rho (up, down):  2.954E-04 0.000E+00

     total cpu time spent up to now is        2.5 secs

     total energy              =     -32.11651296 Ry
     Harris-Foulkes estimate   =     -32.10902857 Ry
     estimated scf accuracy    <       1.44274307 Ry

     iteration # 15     ecut=    30.00 Ry     beta=0.70
     Davidson diagonalization with overlap
     ethr =  2.88E-03,  avg # of iterations =  1.0

     negative rho (up, down):  2.694E-04 0.000E+00

     total cpu time spent up to now is        2.5 secs

     total energy              =     -32.03212774 Ry
     Harris-Foulkes estimate   =     -32.11662680 Ry
     estimated scf accuracy    <       1.45277948 Ry

     iteration # 16     ecut=    30.00 Ry     beta=0.70
     Davidson diagonalization with overlap
     ethr =  2.88E-03,  avg # of iterations =  1.0

     negative rho (up, down):  1.442E-04 0.000E+00

     total cpu time spent up to now is        2.5 secs

     total energy              =     -31.89908730 Ry
     Harris-Foulkes estimate   =     -32.03264000 Ry
     estimated scf accuracy    <       1.31537842 Ry

     iteration # 17     ecut=    30.00 Ry     beta=0.70
     Davidson diagonalization with overlap
     ethr =  2.88E-03,  avg # of iterations =  1.0

     negative rho (up, down):  1.184E-04 0.000E+00

     total cpu time spent up to now is        2.6 secs

     total energy              =     -31.89397522 Ry
     Harris-Foulkes estimate   =     -31.95318253 Ry
     estimated scf accuracy    <       0.60893373 Ry

     iteration # 18     ecut=    30.00 Ry     beta=0.70
     Davidson diagonalization with overlap
     ethr =  2.88E-03,  avg # of iterations =  1.0

     negative rho (up, down):  6.175E-05 0.000E+00

     total cpu time spent up to now is        2.6 secs

     total energy              =     -31.86357577 Ry
     Harris-Foulkes estimate   =     -31.98346674 Ry
     estimated scf accuracy    <       1.55217180 Ry

     iteration # 19     ecut=    30.00 Ry     beta=0.70
     Davidson diagonalization with overlap
     ethr =  2.88E-03,  avg # of iterations =  1.0

     negative rho (up, down):  1.480E-05 0.000E+00

     total cpu time spent up to now is        2.6 secs

     total energy              =     -32.07907114 Ry
     Harris-Foulkes estimate   =     -31.97143196 Ry
     estimated scf accuracy    <       0.89370434 Ry

     iteration # 20     ecut=    30.00 Ry     beta=0.70
     Davidson diagonalization with overlap
     ethr =  2.88E-03,  avg # of iterations =  1.0

     negative rho (up, down):  1.118E-04 0.000E+00

     total cpu time spent up to now is        2.6 secs

     total energy              =     -31.98315245 Ry
     Harris-Foulkes estimate   =     -32.08120363 Ry
     estimated scf accuracy    <       1.08625145 Ry

     iteration # 21     ecut=    30.00 Ry     beta=0.70
     Davidson diagonalization with overlap
     ethr =  2.88E-03,  avg # of iterations =  1.0

     negative rho (up, down):  1.291E-05 0.000E+00

     total cpu time spent up to now is        2.7 secs

     total energy              =     -31.98099396 Ry
     Harris-Foulkes estimate   =     -31.98370822 Ry
     estimated scf accuracy    <       0.94071980 Ry

     iteration # 22     ecut=    30.00 Ry     beta=0.70
     Davidson diagonalization with overlap
     ethr =  2.88E-03,  avg # of iterations =  1.0

     total cpu time spent up to now is        2.7 secs

     total energy              =     -31.93984587 Ry
     Harris-Foulkes estimate   =     -31.98101965 Ry
     estimated scf accuracy    <       0.93363165 Ry

     iteration # 23     ecut=    30.00 Ry     beta=0.70
     Davidson diagonalization with overlap
     ethr =  2.88E-03,  avg # of iterations =  1.0

     total cpu time spent up to now is        2.7 secs

     total energy              =     -31.94349919 Ry
     Harris-Foulkes estimate   =     -31.94488133 Ry
     estimated scf accuracy    <       0.25411706 Ry

     iteration # 24     ecut=    30.00 Ry     beta=0.70
     Davidson diagonalization with overlap
     ethr =  2.88E-03,  avg # of iterations =  1.0

     total cpu time spent up to now is        2.8 secs

     total energy              =     -31.94110700 Ry
     Harris-Foulkes estimate   =     -31.94361150 Ry
     estimated scf accuracy    <       0.18017159 Ry

     iteration # 25     ecut=    30.00 Ry     beta=0.70
     Davidson diagonalization with overlap
     ethr =  2.25E-03,  avg # of iterations =  1.0

     negative rho (up, down):  7.652E-08 0.000E+00

     total cpu time spent up to now is        2.8 secs

     total energy              =     -31.94205950 Ry
     Harris-Foulkes estimate   =     -31.94165551 Ry
     estimated scf accuracy    <       0.05339669 Ry

     iteration # 26     ecut=    30.00 Ry     beta=0.70
     Davidson diagonalization with overlap
     ethr =  6.67E-04,  avg # of iterations =  1.0

     negative rho (up, down):  6.616E-08 0.000E+00

     total cpu time spent up to now is        2.8 secs

     total energy              =     -31.94273246 Ry
     Harris-Foulkes estimate   =     -31.94211167 Ry
     estimated scf accuracy    <       0.08462087 Ry

     iteration # 27     ecut=    30.00 Ry     beta=0.70
     Davidson diagonalization with overlap
     ethr =  6.67E-04,  avg # of iterations =  1.0

     negative rho (up, down):  2.595E-06 0.000E+00

     total cpu time spent up to now is        2.9 secs

     total energy              =     -31.93893943 Ry
     Harris-Foulkes estimate   =     -31.94280623 Ry
     estimated scf accuracy    <       0.13021614 Ry

     iteration # 28     ecut=    30.00 Ry     beta=0.70
     Davidson diagonalization with overlap
     ethr =  6.67E-04,  avg # of iterations =  1.0

     negative rho (up, down):  1.235E-08 0.000E+00

     total cpu time spent up to now is        2.9 secs

     total energy              =     -31.94116842 Ry
     Harris-Foulkes estimate   =     -31.94092366 Ry
     estimated scf accuracy    <       0.00061941 Ry

     iteration # 29     ecut=    30.00 Ry     beta=0.70
     Davidson diagonalization with overlap
     ethr =  7.74E-06,  avg # of iterations =  8.0

     negative rho (up, down):  1.077E-08 0.000E+00

     total cpu time spent up to now is        2.9 secs

     total energy              =     -31.94008564 Ry
     Harris-Foulkes estimate   =     -31.94255741 Ry
     estimated scf accuracy    <       0.13047168 Ry

     iteration # 30     ecut=    30.00 Ry     beta=0.70
     Davidson diagonalization with overlap
     ethr =  7.74E-06,  avg # of iterations =  1.0

     total cpu time spent up to now is        3.0 secs

     total energy              =     -31.94098885 Ry
     Harris-Foulkes estimate   =     -31.94101200 Ry
     estimated scf accuracy    <       0.00767581 Ry

     iteration # 31     ecut=    30.00 Ry     beta=0.70
     Davidson diagonalization with overlap
     ethr =  7.74E-06,  avg # of iterations =  1.0

     total cpu time spent up to now is        3.0 secs

     total energy              =     -31.94084192 Ry
     Harris-Foulkes estimate   =     -31.94099057 Ry
     estimated scf accuracy    <       0.00585789 Ry

     iteration # 32     ecut=    30.00 Ry     beta=0.70
     Davidson diagonalization with overlap
     ethr =  7.74E-06,  avg # of iterations =  1.0

     total cpu time spent up to now is        3.0 secs

     total energy              =     -31.94091465 Ry
     Harris-Foulkes estimate   =     -31.94091382 Ry
     estimated scf accuracy    <       0.00000182 Ry

     iteration # 33     ecut=    30.00 Ry     beta=0.70
     Davidson diagonalization with overlap
     ethr =  2.28E-08,  avg # of iterations =  2.0

     total cpu time spent up to now is        3.1 secs

     total energy              =     -31.94090477 Ry
     Harris-Foulkes estimate   =     -31.94092229 Ry
     estimated scf accuracy    <       0.00066282 Ry

     iteration # 34     ecut=    30.00 Ry     beta=0.70
     Davidson diagonalization with overlap
     ethr =  2.28E-08,  avg # of iterations =  2.0

     total cpu time spent up to now is        3.1 secs

     total energy              =     -31.94091316 Ry
     Harris-Foulkes estimate   =     -31.94091312 Ry
     estimated scf accuracy    <       0.00000006 Ry

     iteration # 35     ecut=    30.00 Ry     beta=0.70
     Davidson diagonalization with overlap
     ethr =  7.52E-10,  avg # of iterations =  1.0

     total cpu time spent up to now is        3.1 secs

     total energy              =     -31.94091315 Ry
     Harris-Foulkes estimate   =     -31.94091319 Ry
     estimated scf accuracy    <       0.00000119 Ry

     iteration # 36     ecut=    30.00 Ry     beta=0.70
     Davidson diagonalization with overlap
     ethr =  7.52E-10,  avg # of iterations =  1.0

     total cpu time spent up to now is        3.2 secs

     End of self-consistent calculation

          k = 0.0000 0.0000 0.0000 ( 22119 PWs)   bands (ev):

   -25.0438 -10.7742  -7.0893  -7.0889  -6.9492  -0.6330   0.3613   0.8034

     the Fermi energy is    -6.9186 ev

!    total energy              =     -31.94091317 Ry
     Harris-Foulkes estimate   =     -31.94091317 Ry
     estimated scf accuracy    <          4.6E-09 Ry

     convergence has been achieved in  36 iterations

     Forces acting on atoms (Ry/au):

     atom    1 type  1   force =    -0.00022699    0.00041240   -0.00023208
     atom    2 type  1   force =    -0.03351996   -0.07036955   -0.07682131
     atom    3 type  2   force =     0.03374695    0.06995716    0.07705339

     Total force =     0.154749     Total SCF correction =     0.000037

     Entering Dynamics:    iteration =     2
                           time      =   0.0097 pico-seconds


     Andersen thermostat:    3 collisions

ATOMIC_POSITIONS (bohr)
H       15.106787463   4.092704343   8.787490414
H        0.511706782   4.515718800  16.653347362
O        1.271818585   6.654709080  18.706861731


     kinetic energy (Ekin) =     0.03006331 Ry
     temperature           =  1582.20506338 K 
     Ekin + Etot (const)   =   -31.91084986 Ry
     Message from routine dynamics:
     Total linear momentum <> 0

     Linear momentum :   -0.3591271881    0.1054220397   -0.0154673006

     Writing output data file pwscf.save

     first order wave-functions extrapolation
     Check: negative starting charge=   -0.348560
     first order charge density extrapolation
     Check: negative starting charge=   -0.345608

     negative rho (up, down):  1.396E-01 0.000E+00

     total cpu time spent up to now is        3.5 secs

     per-process dynamical memory:    20.4 Mb

     Self-consistent Calculation

     iteration #  1     ecut=    30.00 Ry     beta=0.70
     Davidson diagonalization with overlap
     c_bands:  1 eigenvalues not converged
     ethr =  1.00E-06,  avg # of iterations = 20.0

     negative rho (up, down):  3.407E-02 0.000E+00

     total cpu time spent up to now is        3.6 secs

     total energy              =     -30.53359755 Ry
     Harris-Foulkes estimate   =     -31.86410915 Ry
     estimated scf accuracy    <       1.62586630 Ry

     iteration #  2     ecut=    30.00 Ry     beta=0.70
     Davidson diagonalization with overlap
     ethr =  1.00E-02,  avg # of iterations =  3.0

     negative rho (up, down):  2.589E-02 0.000E+00

     total cpu time spent up to now is        3.6 secs

     total energy              =     -31.99546045 Ry
     Harris-Foulkes estimate   =     -34.35084446 Ry
     estimated scf accuracy    <       6.41613738 Ry

     iteration #  3     ecut=    30.00 Ry     beta=0.70
     Davidson diagonalization with overlap
     ethr =  1.00E-02,  avg # of iterations =  3.0

     negative rho (up, down):  2.242E-02 0.000E+00

     total cpu time spent up to now is        3.7 secs

     total energy              =     -32.03689913 Ry
     Harris-Foulkes estimate   =     -32.29328076 Ry
     estimated scf accuracy    <       1.78992290 Ry

     iteration #  4     ecut=    30.00 Ry     beta=0.70
     Davidson diagonalization with overlap
     ethr =  1.00E-02,  avg # of iterations =  1.0

     negative rho (up, down):  1.022E-02 0.000E+00

     total cpu time spent up to now is        3.7 secs

     total energy              =     -31.35679452 Ry
     Harris-Foulkes estimate   =     -32.04655788 Ry
     estimated scf accuracy    <       1.42605141 Ry

     iteration #  5     ecut=    30.00 Ry     beta=0.70
     Davidson diagonalization with overlap
     ethr =  1.00E-02,  avg # of iterations =  2.0

     negative rho (up, down):  1.869E-03 0.000E+00

     total cpu time spent up to now is        3.7 secs

     total energy              =     -32.12021157 Ry
     Harris-Foulkes estimate   =     -32.36687864 Ry
     estimated scf accuracy    <       2.30537959 Ry

     iteration #  6     ecut=    30.00 Ry     beta=0.70
     Davidson diagonalization with overlap
     ethr =  1.00E-02,  avg # of iterations =  1.0

     negative rho (up, down):  1.270E-03 0.000E+00

     total cpu time spent up to now is        3.8 secs

     total energy              =     -31.90037707 Ry
     Harris-Foulkes estimate   =     -32.12442389 Ry
     estimated scf accuracy    <       1.84636970 Ry

     iteration #  7     ecut=    30.00 Ry     beta=0.70
     Davidson diagonalization with overlap
     ethr =  1.00E-02,  avg # of iterations =  1.0

     negative rho (up, down):  1.366E-03 0.000E+00

     total cpu time spent up to now is        3.8 secs

     total energy              =     -31.88375236 Ry
     Harris-Foulkes estimate   =     -31.90565259 Ry
     estimated scf accuracy    <       1.40154599 Ry

     iteration #  8     ecut=    30.00 Ry     beta=0.70
     Davidson diagonalization with overlap
     ethr =  1.00E-02,  avg # of iterations =  1.0

     negative rho (up, down):  2.934E-03 0.000E+00

     total cpu time spent up to now is        3.8 secs

     total energy              =     -32.06169486 Ry
     Harris-Foulkes estimate   =     -31.88391567 Ry
     estimated scf accuracy    <       1.36099948 Ry

     iteration #  9     ecut=    30.00 Ry     beta=0.70
     Davidson diagonalization with overlap
     ethr =  1.00E-02,  avg # of iterations =  1.0

     negative rho (up, down):  2.597E-03 0.000E+00

     total cpu time spent up to now is        3.9 secs

     total energy              =     -31.44198202 Ry
     Harris-Foulkes estimate   =     -32.06436369 Ry
     estimated scf accuracy    <       1.68956386 Ry

     iteration # 10     ecut=    30.00 Ry     beta=0.70
     Davidson diagonalization with overlap
     ethr =  1.00E-02,  avg # of iterations =  1.0

     negative rho (up, down):  1.109E-04 0.000E+00

     total cpu time spent up to now is        3.9 secs

     total energy              =     -31.89781154 Ry
     Harris-Foulkes estimate   =     -32.09310997 Ry
     estimated scf accuracy    <       1.41537719 Ry

     iteration # 11     ecut=    30.00 Ry     beta=0.70
     Davidson diagonalization with overlap
     ethr =  1.00E-02,  avg # of iterations =  1.0

     negative rho (up, down):  8.162E-05 0.000E+00

     total cpu time spent up to now is        3.9 secs

     total energy              =     -31.72540884 Ry
     Harris-Foulkes estimate   =     -31.90022684 Ry
     estimated scf accuracy    <       1.11917900 Ry

     iteration # 12     ecut=    30.00 Ry     beta=0.70
     Davidson diagonalization with overlap
     ethr =  1.00E-02,  avg # of iterations =  1.0

     negative rho (up, down):  8.582E-07 0.000E+00

     total cpu time spent up to now is        4.0 secs

     total energy              =     -31.62391550 Ry
     Harris-Foulkes estimate   =     -31.80222299 Ry
     estimated scf accuracy    <       1.47354053 Ry

     iteration # 13     ecut=    30.00 Ry     beta=0.70
     Davidson diagonalization with overlap
     ethr =  1.00E-02,  avg # of iterations =  1.0

     negative rho (up, down):  1.913E-06 0.000E+00

     total cpu time spent up to now is        4.0 secs

     total energy              =     -31.86723864 Ry
     Harris-Foulkes estimate   =     -31.87763884 Ry
     estimated scf accuracy    <       1.07073652 Ry

     iteration # 14     ecut=    30.00 Ry     beta=0.70
     Davidson diagonalization with overlap
     ethr =  1.00E-02,  avg # of iterations =  1.0

     negative rho (up, down):  1.638E-05 0.000E+00

     total cpu time spent up to now is        4.0 secs

     total energy              =     -31.89271159 Ry
     Harris-Foulkes estimate   =     -31.86729449 Ry
     estimated scf accuracy    <       1.05731535 Ry

     iteration # 15     ecut=    30.00 Ry     beta=0.70
     Davidson diagonalization with overlap
     ethr =  1.00E-02,  avg # of iterations =  1.0

     negative rho (up, down):  5.005E-06 0.000E+00

     total cpu time spent up to now is        4.1 secs

     total energy              =     -31.84864909 Ry
     Harris-Foulkes estimate   =     -31.89278793 Ry
     estimated scf accuracy    <       1.10241642 Ry

     iteration # 16     ecut=    30.00 Ry     beta=0.70
     Davidson diagonalization with overlap
     ethr =  1.00E-02,  avg # of iterations =  1.0

     negative rho (up, down):  4.041E-06 0.000E+00

     total cpu time spent up to now is        4.1 secs

     total energy              =     -31.83523106 Ry
     Harris-Foulkes estimate   =     -31.84876973 Ry
     estimated scf accuracy    <       1.03087345 Ry

     iteration # 17     ecut=    30.00 Ry     beta=0.70
     Davidson diagonalization with overlap
     ethr =  1.00E-02,  avg # of iterations =  1.0

     negative rho (up, down):  4.885E-06 0.000E+00

     total cpu time spent up to now is        4.1 secs

     total energy              =     -31.83053508 Ry
     Harris-Foulkes estimate   =     -31.83525297 Ry
     estimated scf accuracy    <       1.00732491 Ry

     iteration # 18     ecut=    30.00 Ry     beta=0.70
     Davidson diagonalization with overlap
     ethr =  1.00E-02,  avg # of iterations =  1.0

     negative rho (up, down):  2.237E-06 0.000E+00

     total cpu time spent up to now is        4.2 secs

     total energy              =     -31.83788627 Ry
     Harris-Foulkes estimate   =     -31.83053741 Ry
     estimated scf accuracy    <       0.99961807 Ry

     iteration # 19     ecut=    30.00 Ry     beta=0.70
     Davidson diagonalization with overlap
     ethr =  1.00E-02,  avg # of iterations =  1.0

     negative rho (up, down):  1.066E-07 0.000E+00

     total cpu time spent up to now is        4.2 secs

     total energy              =     -31.93105521 Ry
     Harris-Foulkes estimate   =     -31.83788753 Ry
     estimated scf accuracy    <       1.00979341 Ry

     iteration # 20     ecut=    30.00 Ry     beta=0.70
     Davidson diagonalization with overlap
     ethr =  1.00E-02,  avg # of iterations =  1.0

     negative rho (up, down):  5.758E-07 0.000E+00

     total cpu time spent up to now is        4.2 secs

     total energy              =     -31.97607096 Ry
     Harris-Foulkes estimate   =     -31.93139901 Ry
     estimated scf accuracy    <       1.15397064 Ry

     iteration # 21     ecut=    30.00 Ry     beta=0.70
     Davidson diagonalization with overlap
     ethr =  1.00E-02,  avg # of iterations =  1.0

     negative rho (up, down):  3.626E-04 0.000E+00

     total cpu time spent up to now is        4.3 secs

     total energy              =     -31.16270847 Ry
     Harris-Foulkes estimate   =     -31.97616070 Ry
     estimated scf accuracy    <       1.22485515 Ry

     iteration # 22     ecut=    30.00 Ry     beta=0.70
     Davidson diagonalization with overlap
     ethr =  1.00E-02,  avg # of iterations =  2.0

     negative rho (up, down):  7.345E-03 0.000E+00

     total cpu time spent up to now is        4.3 secs

     total energy              =     -32.85551692 Ry
     Harris-Foulkes estimate   =     -32.94935983 Ry
     estimated scf accuracy    <       6.32707543 Ry

     iteration # 23     ecut=    30.00 Ry     beta=0.70
     Davidson diagonalization with overlap
     ethr =  1.00E-02,  avg # of iterations =  1.0

     negative rho (up, down):  4.551E-03 0.000E+00

     total cpu time spent up to now is        4.3 secs

     total energy              =     -33.18663409 Ry
     Harris-Foulkes estimate   =     -32.87557001 Ry
     estimated scf accuracy    <       8.07013204 Ry

     iteration # 24     ecut=    30.00 Ry     beta=0.70
     Davidson diagonalization with overlap
     ethr =  1.00E-02,  avg # of iterations =  1.0

     negative rho (up, down):  5.796E-03 0.000E+00

     total cpu time spent up to now is        4.4 secs

     total energy              =     -32.86515824 Ry
     Harris-Foulkes estimate   =     -33.21093756 Ry
     estimated scf accuracy    <       5.94959527 Ry

     iteration # 25     ecut=    30.00 Ry     beta=0.70
     Davidson diagonalization with overlap
     ethr =  1.00E-02,  avg # of iterations =  1.0

     negative rho (up, down):  2.049E-03 0.000E+00

     total cpu time spent up to now is        4.4 secs

     total energy              =     -32.87773029 Ry
     Harris-Foulkes estimate   =     -32.92820545 Ry
     estimated scf accuracy    <       3.40907250 Ry

     iteration # 26     ecut=    30.00 Ry     beta=0.70
     Davidson diagonalization with overlap
     ethr =  1.00E-02,  avg # of iterations =  1.0

     negative rho (up, down):  1.137E-03 0.000E+00

     total cpu time spent up to now is        4.4 secs

     total energy              =     -32.80147729 Ry
     Harris-Foulkes estimate   =     -32.87829958 Ry
     estimated scf accuracy    <       3.29597786 Ry

     iteration # 27     ecut=    30.00 Ry     beta=0.70
     Davidson diagonalization with overlap
     ethr =  1.00E-02,  avg # of iterations =  1.0

     negative rho (up, down):  2.094E-04 0.000E+00

     total cpu time spent up to now is        4.5 secs

     total energy              =     -32.95492375 Ry
     Harris-Foulkes estimate   =     -32.80206688 Ry
     estimated scf accuracy    <       3.12000679 Ry

     iteration # 28     ecut=    30.00 Ry     beta=0.70
     Davidson diagonalization with overlap
     ethr =  1.00E-02,  avg # of iterations =  1.0

     negative rho (up, down):  4.610E-02 0.000E+00

     total cpu time spent up to now is        4.5 secs

     total energy              =     -31.67300492 Ry
     Harris-Foulkes estimate   =     -32.95550953 Ry
     estimated scf accuracy    <       3.44297579 Ry

     iteration # 29     ecut=    30.00 Ry     beta=0.70
     Davidson diagonalization with overlap
     ethr =  1.00E-02,  avg # of iterations =  2.0

     negative rho (up, down):  5.048E-02 0.000E+00

     total cpu time spent up to now is        4.5 secs

     total energy              =     -31.73883335 Ry
     Harris-Foulkes estimate   =     -31.77830565 Ry
     estimated scf accuracy    <       0.13412273 Ry

     iteration # 30     ecut=    30.00 Ry     beta=0.70
     Davidson diagonalization with overlap
     ethr =  1.68E-03,  avg # of iterations =  2.0

     negative rho (up, down):  6.856E-02 0.000E+00

     total cpu time spent up to now is        4.6 secs

     total energy              =     -32.01128458 Ry
     Harris-Foulkes estimate   =     -31.88424292 Ry
     estimated scf accuracy    <       1.31944928 Ry

     iteration # 31     ecut=    30.00 Ry     beta=0.70
     Davidson diagonalization with overlap
     ethr =  1.68E-03,  avg # of iterations =  1.0

     negative rho (up, down):  4.266E-02 0.000E+00

     total cpu time spent up to now is        4.6 secs

     total energy              =     -32.01542551 Ry
     Harris-Foulkes estimate   =     -32.01268181 Ry
     estimated scf accuracy    <       1.53634279 Ry

     iteration # 32     ecut=    30.00 Ry     beta=0.70
     Davidson diagonalization with overlap
     ethr =  1.68E-03,  avg # of iterations =  1.0

     negative rho (up, down):  3.283E-02 0.000E+00

     total cpu time spent up to now is        4.6 secs

     total energy              =     -32.04467122 Ry
     Harris-Foulkes estimate   =     -32.01554281 Ry
     estimated scf accuracy    <       1.55189397 Ry

     iteration # 33     ecut=    30.00 Ry     beta=0.70
     Davidson diagonalization with overlap
     ethr =  1.68E-03,  avg # of iterations =  1.0

     negative rho (up, down):  6.181E-03 0.000E+00

     total cpu time spent up to now is        4.7 secs

     total energy              =     -32.06640425 Ry
     Harris-Foulkes estimate   =     -32.04479161 Ry
     estimated scf accuracy    <       1.61106156 Ry

     iteration # 34     ecut=    30.00 Ry     beta=0.70
     Davidson diagonalization with overlap
     ethr =  1.68E-03,  avg # of iterations =  1.0

     negative rho (up, down):  4.142E-04 0.000E+00

     total cpu time spent up to now is        4.7 secs

     total energy              =     -32.08226899 Ry
     Harris-Foulkes estimate   =     -32.06651762 Ry
     estimated scf accuracy    <       1.65571594 Ry

     iteration # 35     ecut=    30.00 Ry     beta=0.70
     Davidson diagonalization with overlap
     ethr =  1.68E-03,  avg # of iterations =  1.0

     negative rho (up, down):  9.764E-04 0.000E+00

     total cpu time spent up to now is        4.8 secs

     total energy              =     -32.05762989 Ry
     Harris-Foulkes estimate   =     -32.08236162 Ry
     estimated scf accuracy    <       1.68349536 Ry

     iteration # 36     ecut=    30.00 Ry     beta=0.70
     Davidson diagonalization with overlap
     ethr =  1.68E-03,  avg # of iterations =  1.0

     negative rho (up, down):  2.357E-03 0.000E+00

     total cpu time spent up to now is        4.8 secs

     total energy              =     -32.05502959 Ry
     Harris-Foulkes estimate   =     -32.05766185 Ry
     estimated scf accuracy    <       1.64274133 Ry

     iteration # 37     ecut=    30.00 Ry     beta=0.70
     Davidson diagonalization with overlap
     ethr =  1.68E-03,  avg # of iterations =  1.0

     negative rho (up, down):  2.549E-03 0.000E+00

     total cpu time spent up to now is        4.8 secs

     total energy              =     -32.06234647 Ry
     Harris-Foulkes estimate   =     -32.05503874 Ry
     estimated scf accuracy    <       1.63845132 Ry

     iteration # 38     ecut=    30.00 Ry     beta=0.70
     Davidson diagonalization with overlap
     ethr =  1.68E-03,  avg # of iterations =  1.0

     negative rho (up, down):  5.120E-02 0.000E+00

     total cpu time spent up to now is        4.9 secs

     total energy              =     -30.85011604 Ry
     Harris-Foulkes estimate   =     -32.06235083 Ry
     estimated scf accuracy    <       1.65141718 Ry

     iteration # 39     ecut=    30.00 Ry     beta=0.70
     Davidson diagonalization with overlap
     ethr =  1.68E-03,  avg # of iterations =  5.0

     negative rho (up, down):  3.495E-03 0.000E+00

     total cpu time spent up to now is        4.9 secs

     total energy              =     -32.47372561 Ry
     Harris-Foulkes estimate   =     -33.63939107 Ry
     estimated scf accuracy    <       3.78991437 Ry

     iteration # 40     ecut=    30.00 Ry     beta=0.70
     Davidson diagonalization with overlap
     ethr =  1.68E-03,  avg # of iterations =  6.0

     negative rho (up, down):  4.479E-04 0.000E+00

     total cpu time spent up to now is        5.0 secs

     total energy              =     -31.93411885 Ry
     Harris-Foulkes estimate   =     -32.48956709 Ry
     estimated scf accuracy    <       2.02537980 Ry

     iteration # 41     ecut=    30.00 Ry     beta=0.70
     Davidson diagonalization with overlap
     ethr =  1.68E-03,  avg # of iterations =  2.0

     negative rho (up, down):  1.010E-05 0.000E+00

     total cpu time spent up to now is        5.0 secs

     total energy              =     -31.70812640 Ry
     Harris-Foulkes estimate   =     -31.94393356 Ry
     estimated scf accuracy    <       1.17043817 Ry

     iteration # 42     ecut=    30.00 Ry     beta=0.70
     Davidson diagonalization with overlap
     ethr =  1.68E-03,  avg # of iterations =  2.0

     negative rho (up, down):  8.060E-06 0.000E+00

     total cpu time spent up to now is        5.1 secs

     total energy              =     -31.62758273 Ry
     Harris-Foulkes estimate   =     -31.82530512 Ry
     estimated scf accuracy    <       1.45249856 Ry

     iteration # 43     ecut=    30.00 Ry     beta=0.70
     Davidson diagonalization with overlap
     ethr =  1.68E-03,  avg # of iterations =  1.0

     negative rho (up, down):  1.568E-05 0.000E+00

     total cpu time spent up to now is        5.1 secs

     total energy              =     -31.87822194 Ry
     Harris-Foulkes estimate   =     -31.87847722 Ry
     estimated scf accuracy    <       1.06811375 Ry

     iteration # 44     ecut=    30.00 Ry     beta=0.70
     Davidson diagonalization with overlap
     ethr =  1.68E-03,  avg # of iterations =  1.0

     negative rho (up, down):  1.232E-06 0.000E+00

     total cpu time spent up to now is        5.1 secs

     total energy              =     -31.84615415 Ry
     Harris-Foulkes estimate   =     -31.87828354 Ry
     estimated scf accuracy    <       1.07182518 Ry

     iteration # 45     ecut=    30.00 Ry     beta=0.70
     Davidson diagonalization with overlap
     ethr =  1.68E-03,  avg # of iterations =  1.0

     negative rho (up, down):  1.017E-06 0.000E+00

     total cpu time spent up to now is        5.1 secs

     total energy              =     -31.83124982 Ry
     Harris-Foulkes estimate   =     -31.84617550 Ry
     estimated scf accuracy    <       1.02549567 Ry

     iteration # 46     ecut=    30.00 Ry     beta=0.70
     Davidson diagonalization with overlap
     ethr =  1.68E-03,  avg # of iterations =  1.0

     total cpu time spent up to now is        5.2 secs

     total energy              =     -31.73611784 Ry
     Harris-Foulkes estimate   =     -31.83125781 Ry
     estimated scf accuracy    <       1.00269602 Ry

     iteration # 47     ecut=    30.00 Ry     beta=0.70
     Davidson diagonalization with overlap
     ethr =  1.68E-03,  avg # of iterations =  1.0

     total cpu time spent up to now is        5.2 secs

     total energy              =     -31.76617217 Ry
     Harris-Foulkes estimate   =     -31.79142567 Ry
     estimated scf accuracy    <       1.02999599 Ry

     iteration # 48     ecut=    30.00 Ry     beta=0.70
     Davidson diagonalization with overlap
     ethr =  1.68E-03,  avg # of iterations =  1.0

     total cpu time spent up to now is        5.2 secs

     total energy              =     -31.77624274 Ry
     Harris-Foulkes estimate   =     -31.77720369 Ry
     estimated scf accuracy    <       0.00565888 Ry

     iteration # 49     ecut=    30.00 Ry     beta=0.70
     Davidson diagonalization with overlap
     ethr =  7.07E-05,  avg # of iterations =  3.0

     total cpu time spent up to now is        5.3 secs

     total energy              =     -31.77708212 Ry
     Harris-Foulkes estimate   =     -31.77975064 Ry
     estimated scf accuracy    <       0.17832730 Ry

     iteration # 50     ecut=    30.00 Ry     beta=0.70
     Davidson diagonalization with overlap
     ethr =  7.07E-05,  avg # of iterations =  1.0

     total cpu time spent up to now is        5.3 secs

     total energy              =     -31.77575910 Ry
     Harris-Foulkes estimate   =     -31.77772864 Ry
     estimated scf accuracy    <       0.04378535 Ry

     iteration # 51     ecut=    30.00 Ry     beta=0.70
     Davidson diagonalization with overlap
     ethr =  7.07E-05,  avg # of iterations =  1.0

     total cpu time spent up to now is        5.3 secs

     total energy              =     -31.77667465 Ry
     Harris-Foulkes estimate   =     -31.77745012 Ry
     estimated scf accuracy    <       0.02499896 Ry

     iteration # 52     ecut=    30.00 Ry     beta=0.70
     Davidson diagonalization with overlap
     ethr =  7.07E-05,  avg # of iterations =  1.0

     total cpu time spent up to now is        5.4 secs

     total energy              =     -31.77721619 Ry
     Harris-Foulkes estimate   =     -31.77715683 Ry
     estimated scf accuracy    <       0.00144055 Ry

     iteration # 53     ecut=    30.00 Ry     beta=0.70
     Davidson diagonalization with overlap
     ethr =  1.80E-05,  avg # of iterations =  1.0

     total cpu time spent up to now is        5.4 secs

     total energy              =     -31.77723157 Ry
     Harris-Foulkes estimate   =     -31.77726073 Ry
     estimated scf accuracy    <       0.00932234 Ry

     iteration # 54     ecut=    30.00 Ry     beta=0.70
     Davidson diagonalization with overlap
     ethr =  1.80E-05,  avg # of iterations =  1.0

     total cpu time spent up to now is        5.4 secs

     total energy              =     -31.77708743 Ry
     Harris-Foulkes estimate   =     -31.77723336 Ry
     estimated scf accuracy    <       0.00721524 Ry

     iteration # 55     ecut=    30.00 Ry     beta=0.70
     Davidson diagonalization with overlap
     ethr =  1.80E-05,  avg # of iterations = 16.0

     total cpu time spent up to now is        5.5 secs

     total energy              =     -31.77713319 Ry
     Harris-Foulkes estimate   =     -31.77714345 Ry
     estimated scf accuracy    <       0.00034982 Ry

     iteration # 56     ecut=    30.00 Ry     beta=0.70
     Davidson diagonalization with overlap
     ethr =  4.37E-06,  avg # of iterations =  2.0

     total cpu time spent up to now is        5.5 secs

     total energy              =     -31.77713819 Ry
     Harris-Foulkes estimate   =     -31.77713892 Ry
     estimated scf accuracy    <       0.00000759 Ry

     iteration # 57     ecut=    30.00 Ry     beta=0.70
     Davidson diagonalization with overlap
     ethr =  9.49E-08,  avg # of iterations =  1.0

     total cpu time spent up to now is        5.6 secs

     total energy              =     -31.77713881 Ry
     Harris-Foulkes estimate   =     -31.77713871 Ry
     estimated scf accuracy    <       0.00000679 Ry

     iteration # 58     ecut=    30.00 Ry     beta=0.70
     Davidson diagonalization with overlap
     ethr =  8.49E-08,  avg # of iterations =  1.0

     total cpu time spent up to now is        5.6 secs

     total energy              =     -31.77713940 Ry
     Harris-Foulkes estimate   =     -31.77713886 Ry
     estimated scf accuracy    <       0.00000073 Ry

     iteration # 59     ecut=    30.00 Ry     beta=0.70
     Davidson diagonalization with overlap
     ethr =  9.19E-09,  avg # of iterations =  1.0

     total cpu time spent up to now is        5.6 secs

     total energy              =     -31.77713942 Ry
     Harris-Foulkes estimate   =     -31.77713941 Ry
     estimated scf accuracy    <       0.00000029 Ry

     iteration # 60     ecut=    30.00 Ry     beta=0.70
     Davidson diagonalization with overlap
     ethr =  3.61E-09,  avg # of iterations =  1.0

     total cpu time spent up to now is        5.6 secs

     End of self-consistent calculation

          k = 0.0000 0.0000 0.0000 ( 22119 PWs)   bands (ev):

   -23.6782  -9.0758  -6.9370  -6.9366  -6.8028  -3.6840  -0.0711   0.7558

     the Fermi energy is    -6.7683 ev

!    total energy              =     -31.77713942 Ry
     Harris-Foulkes estimate   =     -31.77713942 Ry
     estimated scf accuracy    <          6.0E-09 Ry

     convergence has been achieved in  60 iterations

     Forces acting on atoms (Ry/au):

     atom    1 type  1   force =     0.00015784    0.00016188   -0.00035040
     atom    2 type  1   force =     0.04293901    0.11927048    0.11446036
     atom    3 type  2   force =    -0.04309685   -0.11943236   -0.11410995

     Total force =     0.241481     Total SCF correction =     0.000019

     Entering Dynamics:    iteration =     3
                           time      =   0.0145 pico-seconds


     Andersen thermostat:    3 collisions

ATOMIC_POSITIONS (bohr)
H       14.911866028   4.062007907   8.177932700
H        0.884323465   5.856694342  18.083550760
O        1.260601573   6.571997712  18.655058472


     kinetic energy (Ekin) =     0.07335989 Ry
     temperature           =  3860.86551595 K 
     Ekin + Etot (const)   =   -31.70377953 Ry
     Message from routine dynamics:
     Total linear momentum <> 0

     Linear momentum :   -0.0151489197   -0.0622395098   -0.0263579786

     Writing output data file pwscf.save

     second order wave-functions extrapolation
     Check: negative starting charge=   -0.345608
     second order charge density extrapolation
     Check: negative starting charge=   -0.354897

     negative rho (up, down):  1.440E-01 0.000E+00

     total cpu time spent up to now is        6.0 secs

     per-process dynamical memory:    20.4 Mb

     Self-consistent Calculation

     iteration #  1     ecut=    30.00 Ry     beta=0.70
     Davidson diagonalization with overlap
     ethr =  1.00E-06,  avg # of iterations = 12.0

     negative rho (up, down):  2.677E-02 0.000E+00

     total cpu time spent up to now is        6.2 secs

     total energy              =       0.24148163 Ry
     Harris-Foulkes estimate   =     -61.99742401 Ry
     estimated scf accuracy    <       7.45380062 Ry

     iteration #  2     ecut=    30.00 Ry     beta=0.70
     Davidson diagonalization with overlap
     ethr =  1.00E-02,  avg # of iterations =  4.0

     negative rho (up, down):  1.726E-02 0.000E+00

     total cpu time spent up to now is        6.2 secs

     total energy              =     -31.27503119 Ry
     Harris-Foulkes estimate   =     -35.36767403 Ry
     estimated scf accuracy    <       8.36682027 Ry

     iteration #  3     ecut=    30.00 Ry     beta=0.70
     Davidson diagonalization with overlap
     ethr =  1.00E-02,  avg # of iterations =  3.0

     negative rho (up, down):  1.009E-02 0.000E+00

     total cpu time spent up to now is        6.2 secs

     total energy              =     -30.44560780 Ry
     Harris-Foulkes estimate   =     -31.55091288 Ry
     estimated scf accuracy    <       2.61044998 Ry

     iteration #  4     ecut=    30.00 Ry     beta=0.70
     Davidson diagonalization with overlap
     ethr =  1.00E-02,  avg # of iterations =  2.0

     negative rho (up, down):  9.434E-03 0.000E+00

     total cpu time spent up to now is        6.3 secs

     total energy              =     -30.26481033 Ry
     Harris-Foulkes estimate   =     -30.72930835 Ry
     estimated scf accuracy    <       2.09847232 Ry

     iteration #  5     ecut=    30.00 Ry     beta=0.70
     Davidson diagonalization with overlap
     ethr =  1.00E-02,  avg # of iterations =  2.0

     negative rho (up, down):  1.795E-03 0.000E+00

     total cpu time spent up to now is        6.3 secs

     total energy              =     -30.03949736 Ry
     Harris-Foulkes estimate   =     -30.78166262 Ry
     estimated scf accuracy    <       1.59796616 Ry

     iteration #  6     ecut=    30.00 Ry     beta=0.70
     Davidson diagonalization with overlap
     ethr =  1.00E-02,  avg # of iterations =  2.0

     negative rho (up, down):  1.010E-03 0.000E+00

     total cpu time spent up to now is        6.3 secs

     total energy              =     -30.78413309 Ry
     Harris-Foulkes estimate   =     -30.74287525 Ry
     estimated scf accuracy    <       2.07638360 Ry

     iteration #  7     ecut=    30.00 Ry     beta=0.70
     Davidson diagonalization with overlap
     ethr =  1.00E-02,  avg # of iterations =  1.0

     negative rho (up, down):  8.625E-04 0.000E+00

     total cpu time spent up to now is        6.4 secs

     total energy              =     -30.70613116 Ry
     Harris-Foulkes estimate   =     -30.78648087 Ry
     estimated scf accuracy    <       2.07416816 Ry

     iteration #  8     ecut=    30.00 Ry     beta=0.70
     Davidson diagonalization with overlap
     ethr =  1.00E-02,  avg # of iterations =  1.0

     negative rho (up, down):  1.022E-03 0.000E+00

     total cpu time spent up to now is        6.4 secs

     total energy              =     -30.27388765 Ry
     Harris-Foulkes estimate   =     -30.70701693 Ry
     estimated scf accuracy    <       1.91596341 Ry

     iteration #  9     ecut=    30.00 Ry     beta=0.70
     Davidson diagonalization with overlap
     ethr =  1.00E-02,  avg # of iterations =  1.0

     negative rho (up, down):  2.320E-04 0.000E+00

     total cpu time spent up to now is        6.4 secs

     total energy              =     -30.28237614 Ry
     Harris-Foulkes estimate   =     -30.36234808 Ry
     estimated scf accuracy    <       0.76451738 Ry

     iteration # 10     ecut=    30.00 Ry     beta=0.70
     Davidson diagonalization with overlap
     ethr =  9.56E-03,  avg # of iterations =  1.0

     negative rho (up, down):  1.372E-04 0.000E+00

     total cpu time spent up to now is        6.5 secs

     total energy              =     -30.40991349 Ry
     Harris-Foulkes estimate   =     -30.39910662 Ry
     estimated scf accuracy    <       1.52315649 Ry

     iteration # 11     ecut=    30.00 Ry     beta=0.70
     Davidson diagonalization with overlap
     ethr =  9.56E-03,  avg # of iterations =  1.0

     negative rho (up, down):  4.455E-07 0.000E+00

     total cpu time spent up to now is        6.5 secs

     total energy              =     -30.40527250 Ry
     Harris-Foulkes estimate   =     -30.40983960 Ry
     estimated scf accuracy    <       1.43124679 Ry

     iteration # 12     ecut=    30.00 Ry     beta=0.70
     Davidson diagonalization with overlap
     ethr =  9.56E-03,  avg # of iterations =  1.0

     negative rho (up, down):  1.476E-08 0.000E+00

     total cpu time spent up to now is        6.5 secs

     total energy              =     -30.32102132 Ry
     Harris-Foulkes estimate   =     -30.40542716 Ry
     estimated scf accuracy    <       1.45707321 Ry

     iteration # 13     ecut=    30.00 Ry     beta=0.70
     Davidson diagonalization with overlap
     ethr =  9.56E-03,  avg # of iterations =  1.0

     negative rho (up, down):  3.618E-07 0.000E+00

     total cpu time spent up to now is        6.6 secs

     total energy              =     -30.34860049 Ry
     Harris-Foulkes estimate   =     -30.34420276 Ry
     estimated scf accuracy    <       0.05369844 Ry

     iteration # 14     ecut=    30.00 Ry     beta=0.70
     Davidson diagonalization with overlap
     ethr =  6.71E-04,  avg # of iterations =  1.0

     negative rho (up, down):  1.952E-08 0.000E+00

     total cpu time spent up to now is        6.6 secs

     total energy              =     -30.30501506 Ry
     Harris-Foulkes estimate   =     -30.35396362 Ry
     estimated scf accuracy    <       0.54505780 Ry

     iteration # 15     ecut=    30.00 Ry     beta=0.70
     Davidson diagonalization with overlap
     ethr =  6.71E-04,  avg # of iterations =  1.0

     total cpu time spent up to now is        6.6 secs

     total energy              =     -30.32878889 Ry
     Harris-Foulkes estimate   =     -30.37737048 Ry
     estimated scf accuracy    <       1.73456182 Ry

     iteration # 16     ecut=    30.00 Ry     beta=0.70
     Davidson diagonalization with overlap
     ethr =  6.71E-04,  avg # of iterations =  1.0

     total cpu time spent up to now is        6.7 secs

     total energy              =     -30.33956116 Ry
     Harris-Foulkes estimate   =     -30.34409293 Ry
     estimated scf accuracy    <       0.05247618 Ry

     iteration # 17     ecut=    30.00 Ry     beta=0.70
     Davidson diagonalization with overlap
     ethr =  6.56E-04,  avg # of iterations =  1.0

     total cpu time spent up to now is        6.7 secs

     total energy              =     -30.33615281 Ry
     Harris-Foulkes estimate   =     -30.34730043 Ry
     estimated scf accuracy    <       0.24752653 Ry

     iteration # 18     ecut=    30.00 Ry     beta=0.70
     Davidson diagonalization with overlap
     ethr =  6.56E-04,  avg # of iterations =  1.0

     total cpu time spent up to now is        6.7 secs

     total energy              =     -30.34220277 Ry
     Harris-Foulkes estimate   =     -30.34475873 Ry
     estimated scf accuracy    <       0.10649216 Ry

     iteration # 19     ecut=    30.00 Ry     beta=0.70
     Davidson diagonalization with overlap
     ethr =  6.56E-04,  avg # of iterations =  1.0

     total cpu time spent up to now is        6.8 secs

     total energy              =     -30.34345916 Ry
     Harris-Foulkes estimate   =     -30.34345507 Ry
     estimated scf accuracy    <       0.00006021 Ry

     iteration # 20     ecut=    30.00 Ry     beta=0.70
     Davidson diagonalization with overlap
     ethr =  7.53E-07,  avg # of iterations = 17.0

     total cpu time spent up to now is        6.8 secs

     total energy              =     -30.34346501 Ry
     Harris-Foulkes estimate   =     -30.34346324 Ry
     estimated scf accuracy    <       0.00056997 Ry

     iteration # 21     ecut=    30.00 Ry     beta=0.70
     Davidson diagonalization with overlap
     ethr =  7.53E-07,  avg # of iterations =  1.0

     total cpu time spent up to now is        6.8 secs

     total energy              =     -30.34344879 Ry
     Harris-Foulkes estimate   =     -30.34346509 Ry
     estimated scf accuracy    <       0.00066073 Ry

     iteration # 22     ecut=    30.00 Ry     beta=0.70
     Davidson diagonalization with overlap
     ethr =  7.53E-07,  avg # of iterations =  1.0

     total cpu time spent up to now is        6.9 secs

     total energy              =     -30.34345815 Ry
     Harris-Foulkes estimate   =     -30.34345821 Ry
     estimated scf accuracy    <       0.00000232 Ry

     iteration # 23     ecut=    30.00 Ry     beta=0.70
     Davidson diagonalization with overlap
     ethr =  2.90E-08,  avg # of iterations =  1.0

     total cpu time spent up to now is        6.9 secs

     End of self-consistent calculation

          k = 0.0000 0.0000 0.0000 ( 22119 PWs)   bands (ev):

   -30.1743 -11.8471  -7.3858  -7.3855  -7.2331  -0.3442   0.6019   0.7583

     the Fermi energy is    -7.2108 ev

!    total energy              =     -30.34345827 Ry
     Harris-Foulkes estimate   =     -30.34345819 Ry
     estimated scf accuracy    <          3.8E-09 Ry

     convergence has been achieved in  23 iterations

     Forces acting on atoms (Ry/au):

     atom    1 type  1   force =     0.00010042    0.00056408   -0.00029053
     atom    2 type  1   force =    -2.45412357   -4.66376696   -3.72676243
     atom    3 type  2   force =     2.45402315    4.66320288    3.72705296

     Total force =     9.128024     Total SCF correction =     0.000163

     Entering Dynamics:    iteration =     4
                           time      =   0.0194 pico-seconds


     Andersen thermostat:    3 collisions

ATOMIC_POSITIONS (bohr)
H       14.980762084   3.948309685   8.134164288
H      -25.771494587 -44.787386360 -22.580836094
O        2.938901024   9.776082506  21.224760773


     kinetic energy (Ekin) =    60.47333235 Ry
     temperature           = ************** K 
     Ekin + Etot (const)   =    30.12987408 Ry
     Message from routine dynamics:
     Total linear momentum <> 0

     Linear momentum :    0.1490742834    0.4011400694    0.1336325163

     Writing output data file pwscf.save

     second order wave-functions extrapolation
     Check: negative starting charge=   -0.354897
     second order charge density extrapolation
     Check: negative starting charge=   -0.352144

     negative rho (up, down):  2.808E+01 0.000E+00

     total cpu time spent up to now is        7.3 secs

     per-process dynamical memory:    20.4 Mb

     Self-consistent Calculation

     iteration #  1     ecut=    30.00 Ry     beta=0.70
     Davidson diagonalization with overlap
     c_bands:  2 eigenvalues not converged
     ethr =  1.00E-06,  avg # of iterations = 20.0

     negative rho (up, down):  7.854E+00 0.000E+00

     total cpu time spent up to now is        7.4 secs

     total energy              =      76.37555623 Ry
     Harris-Foulkes estimate   =   -9055.22160759 Ry
     estimated scf accuracy    <     217.54323174 Ry

     iteration #  2     ecut=    30.00 Ry     beta=0.70
     Davidson diagonalization with overlap
     ethr =  1.00E-02,  avg # of iterations = 12.0

     negative rho (up, down):  2.167E+00 0.000E+00

     total cpu time spent up to now is        7.5 secs

     total energy              =     102.33299262 Ry
     Harris-Foulkes estimate   =  -10399.16020914 Ry
     estimated scf accuracy    <      66.17657323 Ry

     iteration #  3     ecut=    30.00 Ry     beta=0.70
     Davidson diagonalization with overlap
     ethr =  1.00E-02,  avg # of iterations =  9.0

     negative rho (up, down):  4.912E-01 0.000E+00

     total cpu time spent up to now is        7.6 secs

     total energy              =     114.35943554 Ry
     Harris-Foulkes estimate   =   -2144.68836384 Ry
     estimated scf accuracy    <      30.70542287 Ry

     iteration #  4     ecut=    30.00 Ry     beta=0.70
     Davidson diagonalization with overlap
     ethr =  1.00E-02,  avg # of iterations = 11.0

     negative rho (up, down):  4.271E-03 0.000E+00

     total cpu time spent up to now is        7.6 secs

     total energy              =     132.54873707 Ry
     Harris-Foulkes estimate   =    -247.69500986 Ry
     estimated scf accuracy    <      30.18252968 Ry

     iteration #  5     ecut=    30.00 Ry     beta=0.70
     Davidson diagonalization with overlap
     ethr =  1.00E-02,  avg # of iterations = 10.0

     negative rho (up, down):  2.158E-02 0.000E+00

     total cpu time spent up to now is        7.7 secs

     total energy              =      26.84342485 Ry
     Harris-Foulkes estimate   =    -121.28933903 Ry
     estimated scf accuracy    <      34.01303621 Ry

     iteration #  6     ecut=    30.00 Ry     beta=0.70
     Davidson diagonalization with overlap
     ethr =  1.00E-02,  avg # of iterations =  7.0

     negative rho (up, down):  1.523E-01 0.000E+00

     total cpu time spent up to now is        7.7 secs

     total energy              =     -61.63538884 Ry
     Harris-Foulkes estimate   =     -70.00859324 Ry
     estimated scf accuracy    <      55.57094065 Ry

     iteration #  7     ecut=    30.00 Ry     beta=0.70
     Davidson diagonalization with overlap
     ethr =  1.00E-02,  avg # of iterations =  2.0

     negative rho (up, down):  2.446E+00 0.000E+00

     total cpu time spent up to now is        7.8 secs

     total energy              =    -149.99278897 Ry
     Harris-Foulkes estimate   =     -61.67384755 Ry
     estimated scf accuracy    <      44.50037881 Ry

     iteration #  8     ecut=    30.00 Ry     beta=0.70
     Davidson diagonalization with overlap
     ethr =  1.00E-02,  avg # of iterations =  5.0

     negative rho (up, down):  2.327E+00 0.000E+00

     total cpu time spent up to now is        7.8 secs

     total energy              =    -125.10827113 Ry
     Harris-Foulkes estimate   =    -505.65926569 Ry
     estimated scf accuracy    <      88.95326455 Ry

     iteration #  9     ecut=    30.00 Ry     beta=0.70
     Davidson diagonalization with overlap
     ethr =  1.00E-02,  avg # of iterations =  7.0

     negative rho (up, down):  2.419E+00 0.000E+00

     total cpu time spent up to now is        7.9 secs

     total energy              =    -212.60222871 Ry
     Harris-Foulkes estimate   =    -589.46823568 Ry
     estimated scf accuracy    <      85.67837744 Ry

     iteration # 10     ecut=    30.00 Ry     beta=0.70
     Davidson diagonalization with overlap
     ethr =  1.00E-02,  avg # of iterations =  4.0

     negative rho (up, down):  2.250E+00 0.000E+00

     total cpu time spent up to now is        7.9 secs

     total energy              =     -93.41327488 Ry
     Harris-Foulkes estimate   =   -2494.56144955 Ry
     estimated scf accuracy    <      80.13132014 Ry

     iteration # 11     ecut=    30.00 Ry     beta=0.70
     Davidson diagonalization with overlap
     ethr =  1.00E-02,  avg # of iterations =  7.0

     negative rho (up, down):  2.084E+00 0.000E+00

     total cpu time spent up to now is        8.0 secs

     total energy              =    -948.55480810 Ry
     Harris-Foulkes estimate   =    -238.97627000 Ry
     estimated scf accuracy    <     109.16302344 Ry

     iteration # 12     ecut=    30.00 Ry     beta=0.70
     Davidson diagonalization with overlap
     ethr =  1.00E-02,  avg # of iterations =  8.0

     negative rho (up, down):  2.849E+00 0.000E+00

     total cpu time spent up to now is        8.0 secs

     total energy              =    -117.69854621 Ry
     Harris-Foulkes estimate   =   -5466.42192584 Ry
     estimated scf accuracy    <      31.71957977 Ry

     iteration # 13     ecut=    30.00 Ry     beta=0.70
     Davidson diagonalization with overlap
     ethr =  1.00E-02,  avg # of iterations =  7.0

     negative rho (up, down):  2.969E+00 0.000E+00

     total cpu time spent up to now is        8.1 secs

     total energy              =      58.28562067 Ry
     Harris-Foulkes estimate   =   -1023.72545564 Ry
     estimated scf accuracy    <      70.58179045 Ry

     iteration # 14     ecut=    30.00 Ry     beta=0.70
     Davidson diagonalization with overlap
     ethr =  1.00E-02,  avg # of iterations =  6.0

     negative rho (up, down):  3.557E-01 0.000E+00

     total cpu time spent up to now is        8.1 secs

[...]

     total cpu time spent up to now is       10.6 secs

     total energy              =      24.03053379 Ry
     Harris-Foulkes estimate   =    -291.11075331 Ry
     estimated scf accuracy    <      25.11318828 Ry

     iteration # 59     ecut=    30.00 Ry     beta=0.70
     Davidson diagonalization with overlap
     ethr =  1.00E-02,  avg # of iterations =  7.0

     negative rho (up, down):  7.868E-04 0.000E+00

     total cpu time spent up to now is       10.7 secs

     total energy              =      -5.85214488 Ry
     Harris-Foulkes estimate   =     -72.45331091 Ry
     estimated scf accuracy    <      25.90859004 Ry

     iteration # 60     ecut=    30.00 Ry     beta=0.70
     Davidson diagonalization with overlap
     ethr =  1.00E-02,  avg # of iterations =  9.0

     negative rho (up, down):  4.643E-02 0.000E+00

     total cpu time spent up to now is       10.7 secs

     total energy              =     -55.48950037 Ry
     Harris-Foulkes estimate   =     -56.33727245 Ry
     estimated scf accuracy    <      40.59913828 Ry

     iteration # 61     ecut=    30.00 Ry     beta=0.70
     Davidson diagonalization with overlap
     ethr =  1.00E-02,  avg # of iterations =  6.0

     negative rho (up, down):  2.306E-01 0.000E+00

     total cpu time spent up to now is       10.8 secs

     total energy              =   -4365.91063588 Ry
     Harris-Foulkes estimate   =    -374.18434728 Ry
     estimated scf accuracy    <      21.07006601 Ry

     iteration # 62     ecut=    30.00 Ry     beta=0.70
     Davidson diagonalization with overlap
     ethr =  1.00E-02,  avg # of iterations =  6.0

     negative rho (up, down):  3.037E-01 0.000E+00

     total cpu time spent up to now is       10.8 secs

     total energy              =      27.03883512 Ry
     Harris-Foulkes estimate   =  -11277.58132141 Ry
     estimated scf accuracy    <      35.61647937 Ry

     iteration # 63     ecut=    30.00 Ry     beta=0.70
     Davidson diagonalization with overlap
     ethr =  1.00E-02,  avg # of iterations =  5.0

     negative rho (up, down):  3.181E-01 0.000E+00

     total cpu time spent up to now is       10.9 secs

     total energy              =      72.34729156 Ry
     Harris-Foulkes estimate   =    -715.91094143 Ry
     estimated scf accuracy    <      24.79855514 Ry

     iteration # 64     ecut=    30.00 Ry     beta=0.70
     Davidson diagonalization with overlap
     ethr =  1.00E-02,  avg # of iterations =  8.0

     negative rho (up, down):  3.411E-01 0.000E+00

     total cpu time spent up to now is       10.9 secs

     total energy              =   -1462.12480873 Ry
     Harris-Foulkes estimate   =   -1125.73779768 Ry
     estimated scf accuracy    <      25.42979022 Ry

     iteration # 65     ecut=    30.00 Ry     beta=0.70
     Davidson diagonalization with overlap
     ethr =  1.00E-02,  avg # of iterations =  7.0

     negative rho (up, down):  4.675E-01 0.000E+00

     total cpu time spent up to now is       11.0 secs

     total energy              =      53.78393030 Ry
     Harris-Foulkes estimate   =   -5011.76746814 Ry
     estimated scf accuracy    <      28.64290023 Ry

     iteration # 66     ecut=    30.00 Ry     beta=0.70
     Davidson diagonalization with overlap
     ethr =  1.00E-02,  avg # of iterations =  7.0

     negative rho (up, down):  5.487E-01 0.000E+00

     total cpu time spent up to now is       11.0 secs

     total energy              =      55.05753339 Ry
     Harris-Foulkes estimate   =    -766.58862446 Ry
     estimated scf accuracy    <      26.70038250 Ry

     iteration # 67     ecut=    30.00 Ry     beta=0.70
     Davidson diagonalization with overlap
     ethr =  1.00E-02,  avg # of iterations =  9.0

     negative rho (up, down):  1.444E-01 0.000E+00

     total cpu time spent up to now is       11.1 secs

     total energy              =     117.63278952 Ry
     Harris-Foulkes estimate   =   -2291.98169386 Ry
     estimated scf accuracy    <      20.35139949 Ry

     iteration # 68     ecut=    30.00 Ry     beta=0.70
     Davidson diagonalization with overlap
     ethr =  1.00E-02,  avg # of iterations =  8.0

     negative rho (up, down):  1.704E-01 0.000E+00

     total cpu time spent up to now is       11.1 secs

     total energy              =      51.50851772 Ry
     Harris-Foulkes estimate   =    -294.01850767 Ry
     estimated scf accuracy    <      23.25123498 Ry

     iteration # 69     ecut=    30.00 Ry     beta=0.70
     Davidson diagonalization with overlap
     ethr =  1.00E-02,  avg # of iterations = 13.0

     negative rho (up, down):  1.645E-01 0.000E+00

     total cpu time spent up to now is       11.2 secs

     total energy              =      37.67515432 Ry
     Harris-Foulkes estimate   =    -263.17861286 Ry
     estimated scf accuracy    <      21.33818123 Ry

     iteration # 70     ecut=    30.00 Ry     beta=0.70
     Davidson diagonalization with overlap
     ethr =  1.00E-02,  avg # of iterations =  8.0

     negative rho (up, down):  1.572E-01 0.000E+00

     total cpu time spent up to now is       11.3 secs

     total energy              =     -13.99953359 Ry
     Harris-Foulkes estimate   =     -59.59916596 Ry
     estimated scf accuracy    <      14.48558172 Ry

     iteration # 71     ecut=    30.00 Ry     beta=0.70
     Davidson diagonalization with overlap
     ethr =  1.00E-02,  avg # of iterations =  5.0

     negative rho (up, down):  2.534E-03 0.000E+00

     total cpu time spent up to now is       11.3 secs

     total energy              =       9.01354337 Ry
     Harris-Foulkes estimate   =    -103.83056804 Ry
     estimated scf accuracy    <      12.48669173 Ry

     iteration # 72     ecut=    30.00 Ry     beta=0.70
     Davidson diagonalization with overlap
     ethr =  1.00E-02,  avg # of iterations =  6.0

     negative rho (up, down):  2.806E-02 0.000E+00

     total cpu time spent up to now is       11.4 secs

     total energy              =     -51.43799475 Ry
     Harris-Foulkes estimate   =     -43.74159940 Ry
     estimated scf accuracy    <      22.66246297 Ry

     iteration # 73     ecut=    30.00 Ry     beta=0.70
     Davidson diagonalization with overlap
     ethr =  1.00E-02,  avg # of iterations =  4.0

     negative rho (up, down):  7.670E-02 0.000E+00

     total cpu time spent up to now is       11.4 secs

     total energy              =    -165.31389167 Ry
     Harris-Foulkes estimate   =    -171.10543467 Ry
     estimated scf accuracy    <      34.81846142 Ry

     iteration # 74     ecut=    30.00 Ry     beta=0.70
     Davidson diagonalization with overlap
     ethr =  1.00E-02,  avg # of iterations =  6.0

     negative rho (up, down):  3.934E-02 0.000E+00

     total cpu time spent up to now is       11.4 secs

     total energy              =      96.37426487 Ry
     Harris-Foulkes estimate   =   -2291.41689129 Ry
     estimated scf accuracy    <      17.85313804 Ry

     iteration # 75     ecut=    30.00 Ry     beta=0.70
     Davidson diagonalization with overlap
     ethr =  1.00E-02,  avg # of iterations = 13.0

     negative rho (up, down):  7.541E-03 0.000E+00

     total cpu time spent up to now is       11.5 secs

     total energy              =      -5.79448056 Ry
     Harris-Foulkes estimate   =     -64.59745656 Ry
     estimated scf accuracy    <      11.94396205 Ry

     iteration # 76     ecut=    30.00 Ry     beta=0.70
     Davidson diagonalization with overlap
     ethr =  1.00E-02,  avg # of iterations =  7.0

     negative rho (up, down):  9.144E-04 0.000E+00

     total cpu time spent up to now is       11.5 secs

     total energy              =     -38.20514324 Ry
     Harris-Foulkes estimate   =     -40.30768532 Ry
     estimated scf accuracy    <      14.45928836 Ry

     iteration # 77     ecut=    30.00 Ry     beta=0.70
     Davidson diagonalization with overlap
     ethr =  1.00E-02,  avg # of iterations =  2.0

     negative rho (up, down):  1.191E-01 0.000E+00

     total cpu time spent up to now is       11.6 secs

     total energy              =     -50.77994666 Ry
     Harris-Foulkes estimate   =     -39.57078660 Ry
     estimated scf accuracy    <      15.01257213 Ry

     iteration # 78     ecut=    30.00 Ry     beta=0.70
     Davidson diagonalization with overlap
     ethr =  1.00E-02,  avg # of iterations =  8.0

     negative rho (up, down):  1.007E-01 0.000E+00

     total cpu time spent up to now is       11.6 secs

     total energy              =     -19.70919319 Ry
     Harris-Foulkes estimate   =    -378.24653616 Ry
     estimated scf accuracy    <      27.49476006 Ry

     iteration # 79     ecut=    30.00 Ry     beta=0.70
     Davidson diagonalization with overlap
     ethr =  1.00E-02,  avg # of iterations =  8.0

     negative rho (up, down):  2.240E-02 0.000E+00

     total cpu time spent up to now is       11.7 secs

     total energy              =      61.55786269 Ry
     Harris-Foulkes estimate   =    -504.90310182 Ry
     estimated scf accuracy    <      27.01821528 Ry

     iteration # 80     ecut=    30.00 Ry     beta=0.70
     Davidson diagonalization with overlap
     ethr =  1.00E-02,  avg # of iterations =  6.0

     negative rho (up, down):  3.242E-02 0.000E+00

     total cpu time spent up to now is       11.7 secs

     total energy              =     -36.55216428 Ry
     Harris-Foulkes estimate   =     -37.41675240 Ry
     estimated scf accuracy    <      12.33781556 Ry

     iteration # 81     ecut=    30.00 Ry     beta=0.70
     Davidson diagonalization with overlap
     ethr =  1.00E-02,  avg # of iterations =  5.0

     total cpu time spent up to now is       11.8 secs

     total energy              =       4.17662777 Ry
     Harris-Foulkes estimate   =     -61.89266483 Ry
     estimated scf accuracy    <      15.81394188 Ry

     iteration # 82     ecut=    30.00 Ry     beta=0.70
     Davidson diagonalization with overlap
     ethr =  1.00E-02,  avg # of iterations =  5.0

     negative rho (up, down):  5.593E-03 0.000E+00

     total cpu time spent up to now is       11.8 secs

     total energy              =     -35.63919365 Ry
     Harris-Foulkes estimate   =     -36.81847290 Ry
     estimated scf accuracy    <       9.42533156 Ry

     iteration # 83     ecut=    30.00 Ry     beta=0.70
     Davidson diagonalization with overlap
     ethr =  1.00E-02,  avg # of iterations =  1.0

     negative rho (up, down):  7.576E-03 0.000E+00

     total cpu time spent up to now is       11.9 secs

     total energy              =     -34.12312079 Ry
     Harris-Foulkes estimate   =     -35.79577424 Ry
     estimated scf accuracy    <       7.87109386 Ry

     iteration # 84     ecut=    30.00 Ry     beta=0.70
     Davidson diagonalization with overlap
     ethr =  1.00E-02,  avg # of iterations =  1.0

     negative rho (up, down):  5.486E-02 0.000E+00

     total cpu time spent up to now is       11.9 secs

     total energy              =     -33.77569347 Ry
     Harris-Foulkes estimate   =     -34.46658082 Ry
     estimated scf accuracy    <       5.74818401 Ry

     iteration # 85     ecut=    30.00 Ry     beta=0.70
     Davidson diagonalization with overlap
     ethr =  1.00E-02,  avg # of iterations =  8.0

     negative rho (up, down):  5.211E-02 0.000E+00

     total cpu time spent up to now is       12.0 secs

     total energy              =      67.71643211 Ry
     Harris-Foulkes estimate   =    -350.59507163 Ry
     estimated scf accuracy    <      36.97325336 Ry

     iteration # 86     ecut=    30.00 Ry     beta=0.70
     Davidson diagonalization with overlap
     ethr =  1.00E-02,  avg # of iterations =  9.0

     negative rho (up, down):  3.354E-03 0.000E+00

     total cpu time spent up to now is       12.0 secs

     total energy              =      24.28291581 Ry
     Harris-Foulkes estimate   =     -70.42199692 Ry
     estimated scf accuracy    <      19.29545976 Ry

     iteration # 87     ecut=    30.00 Ry     beta=0.70
     Davidson diagonalization with overlap
     ethr =  1.00E-02,  avg # of iterations =  5.0

     negative rho (up, down):  3.364E-03 0.000E+00

     total cpu time spent up to now is       12.1 secs

     total energy              =     -32.83175061 Ry
     Harris-Foulkes estimate   =     -33.49486333 Ry
     estimated scf accuracy    <       6.77999625 Ry

     iteration # 88     ecut=    30.00 Ry     beta=0.70
     Davidson diagonalization with overlap
     ethr =  1.00E-02,  avg # of iterations =  4.0

     total cpu time spent up to now is       12.1 secs

     total energy              =     -30.88241741 Ry
     Harris-Foulkes estimate   =     -33.87493926 Ry
     estimated scf accuracy    <       5.49732944 Ry

     iteration # 89     ecut=    30.00 Ry     beta=0.70
     Davidson diagonalization with overlap
     ethr =  1.00E-02,  avg # of iterations =  3.0

     negative rho (up, down):  1.957E-02 0.000E+00

     total cpu time spent up to now is       12.1 secs

     total energy              =     -32.23504898 Ry
     Harris-Foulkes estimate   =     -32.82365671 Ry
     estimated scf accuracy    <       3.79678914 Ry

     iteration # 90     ecut=    30.00 Ry     beta=0.70
     Davidson diagonalization with overlap
     ethr =  1.00E-02,  avg # of iterations =  4.0

     negative rho (up, down):  5.368E-02 0.000E+00

     total cpu time spent up to now is       12.2 secs

     total energy              =     -19.05554137 Ry
     Harris-Foulkes estimate   =     -65.02837648 Ry
     estimated scf accuracy    <       6.46867619 Ry

     iteration # 91     ecut=    30.00 Ry     beta=0.70
     Davidson diagonalization with overlap
     ethr =  1.00E-02,  avg # of iterations =  4.0

     negative rho (up, down):  7.590E-02 0.000E+00

     total cpu time spent up to now is       12.2 secs

     total energy              =     -23.02790151 Ry
     Harris-Foulkes estimate   =     -40.23524517 Ry
     estimated scf accuracy    <       5.00644977 Ry

     iteration # 92     ecut=    30.00 Ry     beta=0.70
     Davidson diagonalization with overlap
     ethr =  1.00E-02,  avg # of iterations =  5.0

     negative rho (up, down):  2.065E-02 0.000E+00

     total cpu time spent up to now is       12.3 secs

     total energy              =       7.03535998 Ry
     Harris-Foulkes estimate   =    -657.72319390 Ry
     estimated scf accuracy    <      14.48995299 Ry

     iteration # 93     ecut=    30.00 Ry     beta=0.70
     Davidson diagonalization with overlap
     ethr =  1.00E-02,  avg # of iterations =  4.0

     negative rho (up, down):  2.202E-02 0.000E+00

     total cpu time spent up to now is       12.3 secs

     total energy              =     -20.53520679 Ry
     Harris-Foulkes estimate   =     -39.34657577 Ry
     estimated scf accuracy    <       6.95051393 Ry

     iteration # 94     ecut=    30.00 Ry     beta=0.70
     Davidson diagonalization with overlap
     ethr =  1.00E-02,  avg # of iterations =  4.0

     negative rho (up, down):  6.759E-02 0.000E+00

     total cpu time spent up to now is       12.3 secs

     total energy              =     -43.48664284 Ry
     Harris-Foulkes estimate   =     -33.94716153 Ry
     estimated scf accuracy    <       3.14219899 Ry

     iteration # 95     ecut=    30.00 Ry     beta=0.70
     Davidson diagonalization with overlap
     ethr =  1.00E-02,  avg # of iterations =  3.0

     negative rho (up, down):  1.221E-01 0.000E+00

     total cpu time spent up to now is       12.4 secs

     total energy              =      -8.37767120 Ry
     Harris-Foulkes estimate   =     -87.25273647 Ry
     estimated scf accuracy    <       4.06562410 Ry

     iteration # 96     ecut=    30.00 Ry     beta=0.70
     Davidson diagonalization with overlap
     ethr =  1.00E-02,  avg # of iterations =  4.0

     negative rho (up, down):  3.294E-02 0.000E+00

     total cpu time spent up to now is       12.5 secs

     total energy              =      20.15139377 Ry
     Harris-Foulkes estimate   =    -103.47629083 Ry
     estimated scf accuracy    <      15.12470209 Ry

     iteration # 97     ecut=    30.00 Ry     beta=0.70
     Davidson diagonalization with overlap
     ethr =  1.00E-02,  avg # of iterations =  4.0

     negative rho (up, down):  1.195E-01 0.000E+00

     total cpu time spent up to now is       12.5 secs

     total energy              =    -718.69415198 Ry
     Harris-Foulkes estimate   =    -425.32771147 Ry
     estimated scf accuracy    <       7.78863952 Ry

     iteration # 98     ecut=    30.00 Ry     beta=0.70
     Davidson diagonalization with overlap
     ethr =  1.00E-02,  avg # of iterations =  7.0

     negative rho (up, down):  2.250E-01 0.000E+00

     total cpu time spent up to now is       12.5 secs

     total energy              =    -469.39493044 Ry
     Harris-Foulkes estimate   =   -9934.56423016 Ry
     estimated scf accuracy    <      12.81642961 Ry

     iteration # 99     ecut=    30.00 Ry     beta=0.70
     Davidson diagonalization with overlap
     ethr =  1.00E-02,  avg # of iterations =  7.0

     negative rho (up, down):  2.726E-01 0.000E+00

     total cpu time spent up to now is       12.6 secs

     total energy              =      43.44774079 Ry
     Harris-Foulkes estimate   =   -3646.81328928 Ry
     estimated scf accuracy    <      49.23955541 Ry

     iteration #100     ecut=    30.00 Ry     beta=0.70
     Davidson diagonalization with overlap
     ethr =  1.00E-02,  avg # of iterations =  7.0

     negative rho (up, down):  2.700E-01 0.000E+00

     total cpu time spent up to now is       12.7 secs

     total energy              =     -57.59527873 Ry
     Harris-Foulkes estimate   =    -232.73926672 Ry
     estimated scf accuracy    <      53.80766850 Ry

     End of self-consistent calculation

     convergence NOT achieved after 100 iterations: stopping

     Writing output data file pwscf.save
 
     init_run     :      0.09s CPU      0.11s WALL (       1 calls)
     electrons    :      9.07s CPU     11.33s WALL (       5 calls)
     update_pot   :      0.47s CPU      0.74s WALL (       4 calls)
     forces       :      0.11s CPU      0.11s WALL (       4 calls)

     Called by init_run:
     wfcinit      :      0.01s CPU      0.02s WALL (       1 calls)
     potinit      :      0.02s CPU      0.03s WALL (       1 calls)

     Called by electrons:
     c_bands      :      4.41s CPU      4.69s WALL (     255 calls)
     sum_band     :      0.75s CPU      0.79s WALL (     255 calls)
     v_of_rho     :      1.82s CPU      1.93s WALL (     260 calls)
     mix_rho      :      1.75s CPU      2.98s WALL (     255 calls)

     Called by c_bands:
     init_us_2    :      0.02s CPU      0.03s WALL (     511 calls)
     cegterg      :      4.36s CPU      4.56s WALL (     255 calls)

     Called by sum_band:

     Called by *egterg:
     h_psi        :      3.66s CPU      3.83s WALL (    1252 calls)
     g_psi        :      0.04s CPU      0.04s WALL (     996 calls)
     cdiaghg      :      0.25s CPU      0.26s WALL (    1247 calls)

     Called by h_psi:
     h_psi:pot    :      3.64s CPU      3.81s WALL (    1252 calls)
     h_psi:calbec :      0.05s CPU      0.10s WALL (    1252 calls)
     vloc_psi     :      3.57s CPU      3.69s WALL (    1252 calls)
     add_vuspsi   :      0.01s CPU      0.01s WALL (    1252 calls)

     General routines
     calbec       :      0.07s CPU      0.13s WALL (    1271 calls)
     fft          :      1.14s CPU      1.20s WALL (    2868 calls)
     fftw         :      3.70s CPU      3.84s WALL (   16500 calls)
     davcio       :      0.29s CPU      1.10s WALL (    4668 calls)
 
     Parallel routines
     fft_scatter  :      1.75s CPU      1.88s WALL (   19368 calls)
 
     PWSCF        :     9.92s CPU        12.79s WALL

 
   This run was terminated on:   7: 5:46  14Feb2018            

=------------------------------------------------------------------------------=
   JOB DONE.
=------------------------------------------------------------------------------=
