
     Program PWSCF v.6.0 (svn rev. 13079) starts on 14Feb2018 at  7:36:50 

     This program is part of the open-source Quantum ESPRESSO suite
     for quantum simulation of materials; please cite
         "P. Giannozzi et al., J. Phys.:Condens. Matter 21 395502 (2009);
          URL http://www.quantum-espresso.org", 
     in publications or presentations arising from this work. More details at
     http://www.quantum-espresso.org/quote

     Parallel version (MPI), running on    28 processors
     R & G space division:  proc/nbgrp/npool/nimage =      28
     Reading input from inputs/MD-H2O-2/152.in

     Current dimensions of program PWSCF are:
     Max number of different atomic species (ntypx) = 10
     Max number of k-points (npk) =  40000
     Max angular momentum in pseudopotentials (lmaxx) =  3

     Subspace diagonalization in iterative solution of the eigenvalue problem:
     a serial algorithm will be used

 
     Parallelization info
     --------------------
     sticks:   dense  smooth     PW     G-vecs:    dense   smooth      PW
     Min         136     136     33                 6338     6338     787
     Max         137     137     34                 6341     6341     792
     Sum        3809    3809    949               177509   177509   22119
 


     bravais-lattice index     =            1
     lattice parameter (alat)  =      20.0000  a.u.
     unit-cell volume          =    8000.0000 (a.u.)^3
     number of atoms/cell      =            3
     number of atomic types    =            2
     number of electrons       =         8.00
     number of Kohn-Sham states=            8
     kinetic-energy cutoff     =      30.0000  Ry
     charge density cutoff     =     120.0000  Ry
     convergence threshold     =      1.0E-08
     mixing beta               =       0.7000
     number of iterations used =            8  plain     mixing
     Exchange-correlation      = BLYP ( 1  3  1  3 0 0)
     nstep                     =         5000


     celldm(1)=  20.000000  celldm(2)=   0.000000  celldm(3)=   0.000000
     celldm(4)=   0.000000  celldm(5)=   0.000000  celldm(6)=   0.000000

     crystal axes: (cart. coord. in units of alat)
               a(1) = (   1.000000   0.000000   0.000000 )  
               a(2) = (   0.000000   1.000000   0.000000 )  
               a(3) = (   0.000000   0.000000   1.000000 )  

     reciprocal axes: (cart. coord. in units 2 pi/alat)
               b(1) = (  1.000000  0.000000  0.000000 )  
               b(2) = (  0.000000  1.000000  0.000000 )  
               b(3) = (  0.000000  0.000000  1.000000 )  


     PseudoPot. # 1 for  H read from file:
     ./H.blyp-hgh.UPF
     MD5 check sum: c576e69559cde411e611be972c763230
     Pseudo is Norm-conserving, Zval =  1.0
     Generated in analytical, separable form
     Using radial grid of  929 points,  0 beta functions with: 

     PseudoPot. # 2 for  O read from file:
     ./O.blyp-hgh.UPF
     MD5 check sum: d0b7156309aa9befef28faac7bc56342
     Pseudo is Norm-conserving, Zval =  6.0
     Generated in analytical, separable form
     Using radial grid of 1095 points,  1 beta functions with: 
                l(1) =   0

     atomic species   valence    mass     pseudopotential
        H              1.00     1.01000      H( 1.00)
        O              6.00    16.00000      O( 1.00)

     No symmetry found



   Cartesian axes

     site n.     atom                  positions (alat units)
         1           H   tau(   1) = (   0.5753390   0.9777231   0.4081073  )
         2           H   tau(   2) = (   0.7197560   0.9678921   0.9120831  )
         3           O   tau(   3) = (   0.7904988   0.9779996   0.8430583  )

     number of k points=     1  Marzari-Vanderbilt smearing, width (Ry)=  0.0250
                       cart. coord. in units 2pi/alat
        k(    1) = (   0.0000000   0.0000000   0.0000000), wk =   2.0000000

     Dense  grid:   177509 G-vectors     FFT dimensions: (  72,  72,  72)

     Estimated max dynamical RAM per process >       6.09Mb

     Estimated total allocated dynamical RAM >     170.64Mb

     Initial potential from superposition of free atoms
     Check: negative starting charge=   -0.346761

     starting charge    7.99998, renormalised to    8.00000

     negative rho (up, down):  3.468E-01 0.000E+00
     Starting wfc are    6 randomized atomic wfcs +    2 random wfc

     total cpu time spent up to now is        0.2 secs

     per-process dynamical memory:    18.8 Mb

     Self-consistent Calculation

     iteration #  1     ecut=    30.00 Ry     beta=0.70
     Davidson diagonalization with overlap
     ethr =  1.00E-02,  avg # of iterations =  9.0

     negative rho (up, down):  9.020E-02 0.000E+00

     total cpu time spent up to now is        0.3 secs

     total energy              =     -30.39993627 Ry
     Harris-Foulkes estimate   =     -32.23350678 Ry
     estimated scf accuracy    <       2.11329393 Ry

     iteration #  2     ecut=    30.00 Ry     beta=0.70
     Davidson diagonalization with overlap
     ethr =  1.00E-02,  avg # of iterations =  4.0

     negative rho (up, down):  6.566E-02 0.000E+00

     total cpu time spent up to now is        0.3 secs

     total energy              =     -32.27184726 Ry
     Harris-Foulkes estimate   =     -34.50513350 Ry
     estimated scf accuracy    <       5.45407694 Ry

     iteration #  3     ecut=    30.00 Ry     beta=0.70
     Davidson diagonalization with overlap
     ethr =  1.00E-02,  avg # of iterations =  2.0

     negative rho (up, down):  6.318E-02 0.000E+00

     total cpu time spent up to now is        0.4 secs

     total energy              =     -32.42157650 Ry
     Harris-Foulkes estimate   =     -32.50413300 Ry
     estimated scf accuracy    <       1.76086568 Ry

     iteration #  4     ecut=    30.00 Ry     beta=0.70
     Davidson diagonalization with overlap
     ethr =  1.00E-02,  avg # of iterations =  1.0

     negative rho (up, down):  1.204E-02 0.000E+00

     total cpu time spent up to now is        0.4 secs

     total energy              =     -31.32237760 Ry
     Harris-Foulkes estimate   =     -32.42190638 Ry
     estimated scf accuracy    <       1.64551155 Ry

     iteration #  5     ecut=    30.00 Ry     beta=0.70
     Davidson diagonalization with overlap
     ethr =  1.00E-02,  avg # of iterations =  4.0

     negative rho (up, down):  1.509E-02 0.000E+00

     total cpu time spent up to now is        0.4 secs

     total energy              =     -33.17315451 Ry
     Harris-Foulkes estimate   =     -33.12838717 Ry
     estimated scf accuracy    <       5.18155173 Ry

     iteration #  6     ecut=    30.00 Ry     beta=0.70
     Davidson diagonalization with overlap
     ethr =  1.00E-02,  avg # of iterations =  1.0

     negative rho (up, down):  1.522E-02 0.000E+00

     total cpu time spent up to now is        0.5 secs

     total energy              =     -32.94397075 Ry
     Harris-Foulkes estimate   =     -33.18492998 Ry
     estimated scf accuracy    <       6.82480794 Ry

     iteration #  7     ecut=    30.00 Ry     beta=0.70
     Davidson diagonalization with overlap
     ethr =  1.00E-02,  avg # of iterations =  1.0

     negative rho (up, down):  1.272E-02 0.000E+00

     total cpu time spent up to now is        0.5 secs

     total energy              =     -32.73656059 Ry
     Harris-Foulkes estimate   =     -32.99382568 Ry
     estimated scf accuracy    <       3.20604114 Ry

     iteration #  8     ecut=    30.00 Ry     beta=0.70
     Davidson diagonalization with overlap
     ethr =  1.00E-02,  avg # of iterations =  1.0

     negative rho (up, down):  1.848E-02 0.000E+00

     total cpu time spent up to now is        0.5 secs

     total energy              =     -32.28743925 Ry
     Harris-Foulkes estimate   =     -32.74290882 Ry
     estimated scf accuracy    <       2.64070539 Ry

     iteration #  9     ecut=    30.00 Ry     beta=0.70
     Davidson diagonalization with overlap
     ethr =  1.00E-02,  avg # of iterations =  1.0

     negative rho (up, down):  1.375E-02 0.000E+00

     total cpu time spent up to now is        0.5 secs

     total energy              =     -31.88094107 Ry
     Harris-Foulkes estimate   =     -32.30165709 Ry
     estimated scf accuracy    <       1.78881878 Ry

     iteration # 10     ecut=    30.00 Ry     beta=0.70
     Davidson diagonalization with overlap
     ethr =  1.00E-02,  avg # of iterations =  1.0

     negative rho (up, down):  2.704E-02 0.000E+00

     total cpu time spent up to now is        0.6 secs

     total energy              =     -31.86069412 Ry
     Harris-Foulkes estimate   =     -31.96553035 Ry
     estimated scf accuracy    <       0.74629787 Ry

     iteration # 11     ecut=    30.00 Ry     beta=0.70
     Davidson diagonalization with overlap
     ethr =  9.33E-03,  avg # of iterations =  1.0

     negative rho (up, down):  2.598E-02 0.000E+00

     total cpu time spent up to now is        0.6 secs

     total energy              =     -32.07923208 Ry
     Harris-Foulkes estimate   =     -32.02966143 Ry
     estimated scf accuracy    <       1.27373002 Ry

     iteration # 12     ecut=    30.00 Ry     beta=0.70
     Davidson diagonalization with overlap
     ethr =  9.33E-03,  avg # of iterations =  1.0

     negative rho (up, down):  3.537E-02 0.000E+00

     total cpu time spent up to now is        0.6 secs

     total energy              =     -31.99171337 Ry
     Harris-Foulkes estimate   =     -32.07969942 Ry
     estimated scf accuracy    <       1.36356839 Ry

     iteration # 13     ecut=    30.00 Ry     beta=0.70
     Davidson diagonalization with overlap
     ethr =  9.33E-03,  avg # of iterations =  1.0

     negative rho (up, down):  3.946E-02 0.000E+00

     total cpu time spent up to now is        0.7 secs

     total energy              =     -31.91692465 Ry
     Harris-Foulkes estimate   =     -31.99113659 Ry
     estimated scf accuracy    <       1.50269747 Ry

     iteration # 14     ecut=    30.00 Ry     beta=0.70
     Davidson diagonalization with overlap
     ethr =  9.33E-03,  avg # of iterations =  1.0

     negative rho (up, down):  3.456E-02 0.000E+00

     total cpu time spent up to now is        0.7 secs

     total energy              =     -31.94230471 Ry
     Harris-Foulkes estimate   =     -31.94868135 Ry
     estimated scf accuracy    <       0.10514314 Ry

     iteration # 15     ecut=    30.00 Ry     beta=0.70
     Davidson diagonalization with overlap
     ethr =  1.31E-03,  avg # of iterations =  1.0

     negative rho (up, down):  8.738E-03 0.000E+00

     total cpu time spent up to now is        0.7 secs

     total energy              =     -31.94964712 Ry
     Harris-Foulkes estimate   =     -31.94922166 Ry
     estimated scf accuracy    <       0.16766472 Ry

     iteration # 16     ecut=    30.00 Ry     beta=0.70
     Davidson diagonalization with overlap
     ethr =  1.31E-03,  avg # of iterations =  1.0

     negative rho (up, down):  4.947E-03 0.000E+00

     total cpu time spent up to now is        0.8 secs

     total energy              =     -31.94842134 Ry
     Harris-Foulkes estimate   =     -31.94977225 Ry
     estimated scf accuracy    <       0.24418740 Ry

     iteration # 17     ecut=    30.00 Ry     beta=0.70
     Davidson diagonalization with overlap
     ethr =  1.31E-03,  avg # of iterations =  1.0

     negative rho (up, down):  3.543E-03 0.000E+00

     total cpu time spent up to now is        0.8 secs

     total energy              =     -31.96919893 Ry
     Harris-Foulkes estimate   =     -31.94855712 Ry
     estimated scf accuracy    <       0.15873803 Ry

     iteration # 18     ecut=    30.00 Ry     beta=0.70
     Davidson diagonalization with overlap
     ethr =  1.31E-03,  avg # of iterations =  1.0

     negative rho (up, down):  1.013E-04 0.000E+00

     total cpu time spent up to now is        0.8 secs

     total energy              =     -31.95792327 Ry
     Harris-Foulkes estimate   =     -32.00034682 Ry
     estimated scf accuracy    <       1.38357565 Ry

     iteration # 19     ecut=    30.00 Ry     beta=0.70
     Davidson diagonalization with overlap
     ethr =  1.31E-03,  avg # of iterations =  1.0

     negative rho (up, down):  3.449E-05 0.000E+00

     total cpu time spent up to now is        0.9 secs

     total energy              =     -31.93854796 Ry
     Harris-Foulkes estimate   =     -31.95756223 Ry
     estimated scf accuracy    <       0.81447896 Ry

     iteration # 20     ecut=    30.00 Ry     beta=0.70
     Davidson diagonalization with overlap
     ethr =  1.31E-03,  avg # of iterations =  1.0

     negative rho (up, down):  1.071E-05 0.000E+00

     total cpu time spent up to now is        0.9 secs

     total energy              =     -31.94694921 Ry
     Harris-Foulkes estimate   =     -31.94663988 Ry
     estimated scf accuracy    <       0.01083470 Ry

     iteration # 21     ecut=    30.00 Ry     beta=0.70
     Davidson diagonalization with overlap
     ethr =  1.35E-04,  avg # of iterations =  4.0

     negative rho (up, down):  7.784E-06 0.000E+00

     total cpu time spent up to now is        0.9 secs

     total energy              =     -31.94701742 Ry
     Harris-Foulkes estimate   =     -31.94711700 Ry
     estimated scf accuracy    <       0.04785589 Ry

     iteration # 22     ecut=    30.00 Ry     beta=0.70
     Davidson diagonalization with overlap
     ethr =  1.35E-04,  avg # of iterations =  1.0

     negative rho (up, down):  2.725E-07 0.000E+00

     total cpu time spent up to now is        1.0 secs

     total energy              =     -31.94678382 Ry
     Harris-Foulkes estimate   =     -31.94702148 Ry
     estimated scf accuracy    <       0.04040494 Ry

     iteration # 23     ecut=    30.00 Ry     beta=0.70
     Davidson diagonalization with overlap
     ethr =  1.35E-04,  avg # of iterations =  1.0

     total cpu time spent up to now is        1.0 secs

     total energy              =     -31.94637519 Ry
     Harris-Foulkes estimate   =     -31.94681218 Ry
     estimated scf accuracy    <       0.02369176 Ry

     iteration # 24     ecut=    30.00 Ry     beta=0.70
     Davidson diagonalization with overlap
     ethr =  1.35E-04,  avg # of iterations =  1.0

     total cpu time spent up to now is        1.0 secs

     total energy              =     -31.94652442 Ry
     Harris-Foulkes estimate   =     -31.94653205 Ry
     estimated scf accuracy    <       0.00186738 Ry

     iteration # 25     ecut=    30.00 Ry     beta=0.70
     Davidson diagonalization with overlap
     ethr =  2.33E-05,  avg # of iterations =  1.0

     total cpu time spent up to now is        1.1 secs

     total energy              =     -31.94649438 Ry
     Harris-Foulkes estimate   =     -31.94652504 Ry
     estimated scf accuracy    <       0.00134440 Ry

     iteration # 26     ecut=    30.00 Ry     beta=0.70
     Davidson diagonalization with overlap
     ethr =  1.68E-05,  avg # of iterations =  1.0

     total cpu time spent up to now is        1.1 secs

     total energy              =     -31.94650955 Ry
     Harris-Foulkes estimate   =     -31.94650784 Ry
     estimated scf accuracy    <       0.00002078 Ry

     iteration # 27     ecut=    30.00 Ry     beta=0.70
     Davidson diagonalization with overlap
     ethr =  2.60E-07,  avg # of iterations = 13.0

     total cpu time spent up to now is        1.1 secs

     total energy              =     -31.94650625 Ry
     Harris-Foulkes estimate   =     -31.94651053 Ry
     estimated scf accuracy    <       0.00017211 Ry

     iteration # 28     ecut=    30.00 Ry     beta=0.70
     Davidson diagonalization with overlap
     ethr =  2.60E-07,  avg # of iterations =  1.0

     total cpu time spent up to now is        1.2 secs

     total energy              =     -31.94650853 Ry
     Harris-Foulkes estimate   =     -31.94650836 Ry
     estimated scf accuracy    <       0.00000018 Ry

     iteration # 29     ecut=    30.00 Ry     beta=0.70
     Davidson diagonalization with overlap
     ethr =  2.24E-09,  avg # of iterations =  1.0

     total cpu time spent up to now is        1.2 secs

     total energy              =     -31.94650864 Ry
     Harris-Foulkes estimate   =     -31.94650853 Ry
     estimated scf accuracy    <       0.00000006 Ry

     iteration # 30     ecut=    30.00 Ry     beta=0.70
     Davidson diagonalization with overlap
     ethr =  7.23E-10,  avg # of iterations =  1.0

     total cpu time spent up to now is        1.2 secs

     End of self-consistent calculation

          k = 0.0000 0.0000 0.0000 ( 22119 PWs)   bands (ev):

   -24.7952 -10.6446  -7.0521  -7.0504  -6.9090  -0.7018   0.3608   0.7541

     the Fermi energy is    -6.8799 ev

!    total energy              =     -31.94650863 Ry
     Harris-Foulkes estimate   =     -31.94650864 Ry
     estimated scf accuracy    <          7.9E-10 Ry

     convergence has been achieved in  30 iterations

     Forces acting on atoms (Ry/au):

     atom    1 type  1   force =     0.00035083   -0.00027527    0.00054261
     atom    2 type  1   force =    -0.01281253   -0.00244734    0.01312859
     atom    3 type  2   force =     0.01246171    0.00272261   -0.01367120

     Total force =     0.026318     Total SCF correction =     0.000012

     Molecular Dynamics Calculation

     Starting temperature  =  1000.00 K

     temperature is controlled by Andersen thermostat
     Collision frequency = 1.0000/timestep
     mass H                =     1.01
     mass O                =    16.00
     Time step             =   100.00 a.u.,  4.8378 femto-seconds

     Entering Dynamics:    iteration =     1
                           time      =   0.0048 pico-seconds


     Andersen thermostat:    3 collisions

ATOMIC_POSITIONS (bohr)
H       11.619512282  18.984192608   8.074088920
H       14.147805537  19.188412108  18.153238974
O       15.818470500  19.606686517  16.872307307


     kinetic energy (Ekin) =     0.02130955 Ry
     temperature           =  1121.50247452 K 
     Ekin + Etot (const)   =   -31.92519909 Ry

     Linear momentum :   -0.0000000000    0.0000000000    0.0000000000

     Writing output data file pwscf.save
     Check: negative starting charge=   -0.346761
     NEW-OLD atomic charge density approx. for the potential
     Check: negative starting charge=   -0.347000

     negative rho (up, down):  9.718E-02 0.000E+00

     total cpu time spent up to now is        1.5 secs

     per-process dynamical memory:    20.4 Mb

     Self-consistent Calculation

     iteration #  1     ecut=    30.00 Ry     beta=0.70
     Davidson diagonalization with overlap
     c_bands:  1 eigenvalues not converged
     ethr =  1.00E-06,  avg # of iterations = 20.0

     negative rho (up, down):  2.428E-02 0.000E+00

     total cpu time spent up to now is        1.6 secs

     total energy              =     -31.70897956 Ry
     Harris-Foulkes estimate   =     -31.87253186 Ry
     estimated scf accuracy    <       0.26604638 Ry

     iteration #  2     ecut=    30.00 Ry     beta=0.70
     Davidson diagonalization with overlap
     ethr =  3.33E-03,  avg # of iterations =  3.0

     negative rho (up, down):  1.972E-02 0.000E+00

     total cpu time spent up to now is        1.6 secs

     total energy              =     -32.01201342 Ry
     Harris-Foulkes estimate   =     -32.65260643 Ry
     estimated scf accuracy    <       2.22702123 Ry

     iteration #  3     ecut=    30.00 Ry     beta=0.70
     Davidson diagonalization with overlap
     ethr =  3.33E-03,  avg # of iterations =  2.0

     negative rho (up, down):  1.832E-02 0.000E+00

     total cpu time spent up to now is        1.7 secs

     total energy              =     -31.97874830 Ry
     Harris-Foulkes estimate   =     -32.05500828 Ry
     estimated scf accuracy    <       1.05845773 Ry

     iteration #  4     ecut=    30.00 Ry     beta=0.70
     Davidson diagonalization with overlap
     ethr =  3.33E-03,  avg # of iterations =  1.0

     negative rho (up, down):  1.196E-02 0.000E+00

     total cpu time spent up to now is        1.7 secs

     total energy              =     -31.66732313 Ry
     Harris-Foulkes estimate   =     -31.97895913 Ry
     estimated scf accuracy    <       0.95414828 Ry

     iteration #  5     ecut=    30.00 Ry     beta=0.70
     Davidson diagonalization with overlap
     ethr =  3.33E-03,  avg # of iterations =  2.0

     negative rho (up, down):  4.496E-03 0.000E+00

     total cpu time spent up to now is        1.7 secs

     total energy              =     -32.26046416 Ry
     Harris-Foulkes estimate   =     -32.26797542 Ry
     estimated scf accuracy    <       1.71827310 Ry

     iteration #  6     ecut=    30.00 Ry     beta=0.70
     Davidson diagonalization with overlap
     ethr =  3.33E-03,  avg # of iterations =  1.0

     negative rho (up, down):  1.385E-03 0.000E+00

     total cpu time spent up to now is        1.8 secs

     total energy              =     -32.04878722 Ry
     Harris-Foulkes estimate   =     -32.26076534 Ry
     estimated scf accuracy    <       1.69571613 Ry

     iteration #  7     ecut=    30.00 Ry     beta=0.70
     Davidson diagonalization with overlap
     ethr =  3.33E-03,  avg # of iterations =  1.0

     negative rho (up, down):  4.464E-04 0.000E+00

     total cpu time spent up to now is        1.8 secs

     total energy              =     -31.99837194 Ry
     Harris-Foulkes estimate   =     -32.05214501 Ry
     estimated scf accuracy    <       1.33255313 Ry

     iteration #  8     ecut=    30.00 Ry     beta=0.70
     Davidson diagonalization with overlap
     ethr =  3.33E-03,  avg # of iterations =  1.0

     negative rho (up, down):  2.539E-04 0.000E+00

     total cpu time spent up to now is        1.8 secs

     total energy              =     -32.05826647 Ry
     Harris-Foulkes estimate   =     -31.99854920 Ry
     estimated scf accuracy    <       1.32042724 Ry

     iteration #  9     ecut=    30.00 Ry     beta=0.70
     Davidson diagonalization with overlap
     ethr =  3.33E-03,  avg # of iterations =  1.0

     negative rho (up, down):  1.636E-04 0.000E+00

     total cpu time spent up to now is        1.9 secs

     total energy              =     -32.08711800 Ry
     Harris-Foulkes estimate   =     -32.05689269 Ry
     estimated scf accuracy    <       1.33165459 Ry

     iteration # 10     ecut=    30.00 Ry     beta=0.70
     Davidson diagonalization with overlap
     ethr =  3.33E-03,  avg # of iterations =  1.0

     negative rho (up, down):  1.157E-03 0.000E+00

     total cpu time spent up to now is        1.9 secs

     total energy              =     -32.20634211 Ry
     Harris-Foulkes estimate   =     -32.08724911 Ry
     estimated scf accuracy    <       1.38713194 Ry

     iteration # 11     ecut=    30.00 Ry     beta=0.70
     Davidson diagonalization with overlap
     ethr =  3.33E-03,  avg # of iterations =  1.0

     negative rho (up, down):  8.811E-04 0.000E+00

     total cpu time spent up to now is        2.0 secs

     total energy              =     -32.19801194 Ry
     Harris-Foulkes estimate   =     -32.20784404 Ry
     estimated scf accuracy    <       1.60574421 Ry

     iteration # 12     ecut=    30.00 Ry     beta=0.70
     Davidson diagonalization with overlap
     ethr =  3.33E-03,  avg # of iterations =  1.0

     negative rho (up, down):  5.676E-04 0.000E+00

     total cpu time spent up to now is        2.0 secs

     total energy              =     -32.10230882 Ry
     Harris-Foulkes estimate   =     -32.19806957 Ry
     estimated scf accuracy    <       1.59087701 Ry

     iteration # 13     ecut=    30.00 Ry     beta=0.70
     Davidson diagonalization with overlap
     ethr =  3.33E-03,  avg # of iterations =  1.0

     negative rho (up, down):  5.287E-02 0.000E+00

     total cpu time spent up to now is        2.0 secs

     total energy              =     -31.09780155 Ry
     Harris-Foulkes estimate   =     -32.10311799 Ry
     estimated scf accuracy    <       1.42366520 Ry

     iteration # 14     ecut=    30.00 Ry     beta=0.70
     Davidson diagonalization with overlap
     ethr =  3.33E-03,  avg # of iterations =  4.0

     negative rho (up, down):  4.676E-03 0.000E+00

     total cpu time spent up to now is        2.1 secs

     total energy              =     -32.83005099 Ry
     Harris-Foulkes estimate   =     -33.40809845 Ry
     estimated scf accuracy    <       3.05867347 Ry

     iteration # 15     ecut=    30.00 Ry     beta=0.70
     Davidson diagonalization with overlap
     ethr =  3.33E-03,  avg # of iterations =  1.0

     negative rho (up, down):  2.224E-04 0.000E+00

     total cpu time spent up to now is        2.1 secs

     total energy              =     -32.30687944 Ry
     Harris-Foulkes estimate   =     -32.83763562 Ry
     estimated scf accuracy    <       2.22550371 Ry

     iteration # 16     ecut=    30.00 Ry     beta=0.70
     Davidson diagonalization with overlap
     ethr =  3.33E-03,  avg # of iterations =  1.0

     negative rho (up, down):  1.070E-05 0.000E+00

     total cpu time spent up to now is        2.1 secs

     total energy              =     -32.12647656 Ry
     Harris-Foulkes estimate   =     -32.30891185 Ry
     estimated scf accuracy    <       1.43047877 Ry

     iteration # 17     ecut=    30.00 Ry     beta=0.70
     Davidson diagonalization with overlap
     ethr =  3.33E-03,  avg # of iterations =  1.0

     negative rho (up, down):  6.737E-07 0.000E+00

     total cpu time spent up to now is        2.2 secs

     total energy              =     -32.06629192 Ry
     Harris-Foulkes estimate   =     -32.12804954 Ry
     estimated scf accuracy    <       1.15519370 Ry

     iteration # 18     ecut=    30.00 Ry     beta=0.70
     Davidson diagonalization with overlap
     ethr =  3.33E-03,  avg # of iterations =  1.0

     negative rho (up, down):  2.727E-07 0.000E+00

     total cpu time spent up to now is        2.2 secs

     total energy              =     -32.06845968 Ry
     Harris-Foulkes estimate   =     -32.06649400 Ry
     estimated scf accuracy    <       1.06288258 Ry

     iteration # 19     ecut=    30.00 Ry     beta=0.70
     Davidson diagonalization with overlap
     ethr =  3.33E-03,  avg # of iterations =  1.0

     negative rho (up, down):  5.030E-07 0.000E+00

     total cpu time spent up to now is        2.2 secs

     total energy              =     -31.91024362 Ry
     Harris-Foulkes estimate   =     -32.06847069 Ry
     estimated scf accuracy    <       1.06464933 Ry

     iteration # 20     ecut=    30.00 Ry     beta=0.70
     Davidson diagonalization with overlap
     ethr =  3.33E-03,  avg # of iterations =  1.0

     negative rho (up, down):  3.190E-08 0.000E+00

     total cpu time spent up to now is        2.3 secs

     total energy              =     -31.91806793 Ry
     Harris-Foulkes estimate   =     -31.94166526 Ry
     estimated scf accuracy    <       0.24337027 Ry

     iteration # 21     ecut=    30.00 Ry     beta=0.70
     Davidson diagonalization with overlap
     ethr =  3.04E-03,  avg # of iterations =  1.0

     negative rho (up, down):  2.731E-06 0.000E+00

     total cpu time spent up to now is        2.3 secs

     total energy              =     -31.90503996 Ry
     Harris-Foulkes estimate   =     -31.95829674 Ry
     estimated scf accuracy    <       0.77103173 Ry

     iteration # 22     ecut=    30.00 Ry     beta=0.70
     Davidson diagonalization with overlap
     ethr =  3.04E-03,  avg # of iterations =  1.0

     negative rho (up, down):  3.360E-08 0.000E+00

     total cpu time spent up to now is        2.4 secs

     total energy              =     -31.87555340 Ry
     Harris-Foulkes estimate   =     -31.95085996 Ry
     estimated scf accuracy    <       0.88297670 Ry

     iteration # 23     ecut=    30.00 Ry     beta=0.70
     Davidson diagonalization with overlap
     ethr =  3.04E-03,  avg # of iterations =  1.0

     negative rho (up, down):  1.318E-06 0.000E+00

     total cpu time spent up to now is        2.4 secs

     total energy              =     -31.99148948 Ry
     Harris-Foulkes estimate   =     -31.97744630 Ry
     estimated scf accuracy    <       0.91043128 Ry

     iteration # 24     ecut=    30.00 Ry     beta=0.70
     Davidson diagonalization with overlap
     ethr =  3.04E-03,  avg # of iterations =  1.0

     negative rho (up, down):  3.995E-07 0.000E+00

     total cpu time spent up to now is        2.4 secs

     total energy              =     -31.91731560 Ry
     Harris-Foulkes estimate   =     -31.99154804 Ry
     estimated scf accuracy    <       0.93704313 Ry

     iteration # 25     ecut=    30.00 Ry     beta=0.70
     Davidson diagonalization with overlap
     ethr =  3.04E-03,  avg # of iterations =  1.0

     negative rho (up, down):  1.699E-07 0.000E+00

     total cpu time spent up to now is        2.5 secs

     total energy              =     -31.94512376 Ry
     Harris-Foulkes estimate   =     -31.93946157 Ry
     estimated scf accuracy    <       0.06728025 Ry

     iteration # 26     ecut=    30.00 Ry     beta=0.70
     Davidson diagonalization with overlap
     ethr =  8.41E-04,  avg # of iterations =  1.0

     negative rho (up, down):  2.461E-07 0.000E+00

     total cpu time spent up to now is        2.5 secs

     total energy              =     -31.85940093 Ry
     Harris-Foulkes estimate   =     -31.95354188 Ry
     estimated scf accuracy    <       1.03998011 Ry

     iteration # 27     ecut=    30.00 Ry     beta=0.70
     Davidson diagonalization with overlap
     ethr =  8.41E-04,  avg # of iterations =  1.0

     negative rho (up, down):  1.876E-08 0.000E+00

     total cpu time spent up to now is        2.5 secs

     total energy              =     -31.95867352 Ry
     Harris-Foulkes estimate   =     -31.98693652 Ry
     estimated scf accuracy    <       0.93309083 Ry

     iteration # 28     ecut=    30.00 Ry     beta=0.70
     Davidson diagonalization with overlap
     ethr =  8.41E-04,  avg # of iterations =  1.0

     negative rho (up, down):  7.580E-08 0.000E+00

     total cpu time spent up to now is        2.6 secs

     total energy              =     -31.92719929 Ry
     Harris-Foulkes estimate   =     -31.95910412 Ry
     estimated scf accuracy    <       0.78928925 Ry

     iteration # 29     ecut=    30.00 Ry     beta=0.70
     Davidson diagonalization with overlap
     ethr =  8.41E-04,  avg # of iterations =  1.0

     negative rho (up, down):  2.476E-07 0.000E+00

     total cpu time spent up to now is        2.6 secs

     total energy              =     -31.93833358 Ry
     Harris-Foulkes estimate   =     -31.93863661 Ry
     estimated scf accuracy    <       0.00231134 Ry

     iteration # 30     ecut=    30.00 Ry     beta=0.70
     Davidson diagonalization with overlap
     ethr =  2.89E-05,  avg # of iterations = 10.0

     negative rho (up, down):  3.574E-07 0.000E+00

     total cpu time spent up to now is        2.6 secs

     total energy              =     -31.94044847 Ry
     Harris-Foulkes estimate   =     -31.93916484 Ry
     estimated scf accuracy    <       0.04301880 Ry

     iteration # 31     ecut=    30.00 Ry     beta=0.70
     Davidson diagonalization with overlap
     ethr =  2.89E-05,  avg # of iterations =  1.0

     negative rho (up, down):  3.115E-07 0.000E+00

     total cpu time spent up to now is        2.7 secs

     total energy              =     -31.93868807 Ry
     Harris-Foulkes estimate   =     -31.94116520 Ry
     estimated scf accuracy    <       0.19940386 Ry

     iteration # 32     ecut=    30.00 Ry     beta=0.70
     Davidson diagonalization with overlap
     ethr =  2.89E-05,  avg # of iterations =  1.0

     negative rho (up, down):  1.521E-07 0.000E+00

     total cpu time spent up to now is        2.7 secs

     total energy              =     -31.92943166 Ry
     Harris-Foulkes estimate   =     -31.93928532 Ry
     estimated scf accuracy    <       0.05187909 Ry

     iteration # 33     ecut=    30.00 Ry     beta=0.70
     Davidson diagonalization with overlap
     ethr =  2.89E-05,  avg # of iterations =  2.0

     negative rho (up, down):  2.703E-08 0.000E+00

     total cpu time spent up to now is        2.7 secs

     total energy              =     -31.95524269 Ry
     Harris-Foulkes estimate   =     -31.96130639 Ry
     estimated scf accuracy    <       0.82265365 Ry

     iteration # 34     ecut=    30.00 Ry     beta=0.70
     Davidson diagonalization with overlap
     ethr =  2.89E-05,  avg # of iterations =  1.0

     negative rho (up, down):  1.514E-08 0.000E+00

     total cpu time spent up to now is        2.8 secs

     total energy              =     -31.95398873 Ry
     Harris-Foulkes estimate   =     -31.95540677 Ry
     estimated scf accuracy    <       0.72237175 Ry

     iteration # 35     ecut=    30.00 Ry     beta=0.70
     Davidson diagonalization with overlap
     ethr =  2.89E-05,  avg # of iterations =  1.0

     negative rho (up, down):  2.202E-08 0.000E+00

     total cpu time spent up to now is        2.8 secs

     total energy              =     -31.95251100 Ry
     Harris-Foulkes estimate   =     -31.95400430 Ry
     estimated scf accuracy    <       0.68931956 Ry

     iteration # 36     ecut=    30.00 Ry     beta=0.70
     Davidson diagonalization with overlap
     ethr =  2.89E-05,  avg # of iterations =  1.0

     total cpu time spent up to now is        2.8 secs

     total energy              =     -31.92726082 Ry
     Harris-Foulkes estimate   =     -31.95253062 Ry
     estimated scf accuracy    <       0.65118581 Ry

     iteration # 37     ecut=    30.00 Ry     beta=0.70
     Davidson diagonalization with overlap
     ethr =  2.89E-05,  avg # of iterations =  2.0

     total cpu time spent up to now is        2.9 secs

     total energy              =     -31.93811520 Ry
     Harris-Foulkes estimate   =     -31.93866548 Ry
     estimated scf accuracy    <       0.00466996 Ry

     iteration # 38     ecut=    30.00 Ry     beta=0.70
     Davidson diagonalization with overlap
     ethr =  2.89E-05,  avg # of iterations =  1.0

     total cpu time spent up to now is        2.9 secs

     total energy              =     -31.93797628 Ry
     Harris-Foulkes estimate   =     -31.93941077 Ry
     estimated scf accuracy    <       0.05688396 Ry

     iteration # 39     ecut=    30.00 Ry     beta=0.70
     Davidson diagonalization with overlap
     ethr =  2.89E-05,  avg # of iterations =  1.0

     total cpu time spent up to now is        3.0 secs

     total energy              =     -31.93859075 Ry
     Harris-Foulkes estimate   =     -31.93861774 Ry
     estimated scf accuracy    <       0.00042505 Ry

     iteration # 40     ecut=    30.00 Ry     beta=0.70
     Davidson diagonalization with overlap
     ethr =  5.31E-06,  avg # of iterations =  1.0

     total cpu time spent up to now is        3.0 secs

     total energy              =     -31.93858602 Ry
     Harris-Foulkes estimate   =     -31.93861904 Ry
     estimated scf accuracy    <       0.00067527 Ry

     iteration # 41     ecut=    30.00 Ry     beta=0.70
     Davidson diagonalization with overlap
     ethr =  5.31E-06,  avg # of iterations =  1.0

     total cpu time spent up to now is        3.0 secs

     total energy              =     -31.93861335 Ry
     Harris-Foulkes estimate   =     -31.93861201 Ry
     estimated scf accuracy    <       0.00032705 Ry

     iteration # 42     ecut=    30.00 Ry     beta=0.70
     Davidson diagonalization with overlap
     ethr =  4.09E-06,  avg # of iterations =  1.0

     total cpu time spent up to now is        3.1 secs

     total energy              =     -31.93859651 Ry
     Harris-Foulkes estimate   =     -31.93861348 Ry
     estimated scf accuracy    <       0.00043644 Ry

     iteration # 43     ecut=    30.00 Ry     beta=0.70
     Davidson diagonalization with overlap
     ethr =  4.09E-06,  avg # of iterations =  1.0

     total cpu time spent up to now is        3.1 secs

     total energy              =     -31.93860330 Ry
     Harris-Foulkes estimate   =     -31.93860916 Ry
     estimated scf accuracy    <       0.00010436 Ry

     iteration # 44     ecut=    30.00 Ry     beta=0.70
     Davidson diagonalization with overlap
     ethr =  1.30E-06,  avg # of iterations =  1.0

     total cpu time spent up to now is        3.1 secs

     total energy              =     -31.93860647 Ry
     Harris-Foulkes estimate   =     -31.93860934 Ry
     estimated scf accuracy    <       0.00012721 Ry

     iteration # 45     ecut=    30.00 Ry     beta=0.70
     Davidson diagonalization with overlap
     ethr =  1.30E-06,  avg # of iterations =  1.0

     total cpu time spent up to now is        3.2 secs

     total energy              =     -31.93860764 Ry
     Harris-Foulkes estimate   =     -31.93860768 Ry
     estimated scf accuracy    <       0.00000281 Ry

     iteration # 46     ecut=    30.00 Ry     beta=0.70
     Davidson diagonalization with overlap
     ethr =  3.51E-08,  avg # of iterations =  1.0

     total cpu time spent up to now is        3.2 secs

     End of self-consistent calculation

          k = 0.0000 0.0000 0.0000 ( 22119 PWs)   bands (ev):

   -24.4483 -10.3982  -7.0185  -7.0168  -6.8769  -0.9399   0.2523   0.7437

     the Fermi energy is    -6.8468 ev

!    total energy              =     -31.93860768 Ry
     Harris-Foulkes estimate   =     -31.93860768 Ry
     estimated scf accuracy    <          3.1E-09 Ry

     convergence has been achieved in  46 iterations

     Forces acting on atoms (Ry/au):

     atom    1 type  1   force =     0.00031738    0.00026668    0.00049937
     atom    2 type  1   force =     0.08366762    0.02093538   -0.06299827
     atom    3 type  2   force =    -0.08398500   -0.02120206    0.06249890

     Total force =     0.151053     Total SCF correction =     0.000013

     Entering Dynamics:    iteration =     2
                           time      =   0.0097 pico-seconds


     Andersen thermostat:    3 collisions

ATOMIC_POSITIONS (bohr)
H       11.739923253  18.439226578   7.909589215
H       15.140438391  19.278055796  17.113662240
O       15.748209609  19.635428740  16.948314632


     kinetic energy (Ekin) =     0.05683578 Ry
     temperature           =  2991.21625439 K 
     Ekin + Etot (const)   =   -31.88177190 Ry
     Message from routine dynamics:
     Total linear momentum <> 0

     Linear momentum :    0.2660285298   -0.1184954073    0.0263670788

     Writing output data file pwscf.save

     first order wave-functions extrapolation
     Check: negative starting charge=   -0.347000
     first order charge density extrapolation
     Check: negative starting charge=   -0.348849

     negative rho (up, down):  2.998E-01 0.000E+00

     total cpu time spent up to now is        3.5 secs

     per-process dynamical memory:    20.4 Mb

     Self-consistent Calculation

     iteration #  1     ecut=    30.00 Ry     beta=0.70
     Davidson diagonalization with overlap
     ethr =  1.00E-06,  avg # of iterations = 20.0

     negative rho (up, down):  6.912E-02 0.000E+00

     total cpu time spent up to now is        3.6 secs

     total energy              =     -25.50167573 Ry
     Harris-Foulkes estimate   =     -28.21664275 Ry
     estimated scf accuracy    <       1.95084882 Ry

     iteration #  2     ecut=    30.00 Ry     beta=0.70
     Davidson diagonalization with overlap
     ethr =  1.00E-02,  avg # of iterations =  3.0

     negative rho (up, down):  1.023E-02 0.000E+00

     total cpu time spent up to now is        3.7 secs

     total energy              =     -25.40370331 Ry
     Harris-Foulkes estimate   =     -30.02614461 Ry
     estimated scf accuracy    <      11.36973653 Ry

     iteration #  3     ecut=    30.00 Ry     beta=0.70
     Davidson diagonalization with overlap
     ethr =  1.00E-02,  avg # of iterations =  3.0

     negative rho (up, down):  1.674E-03 0.000E+00

     total cpu time spent up to now is        3.7 secs

     total energy              =     -27.14954522 Ry
     Harris-Foulkes estimate   =     -27.37405085 Ry
     estimated scf accuracy    <       1.06926945 Ry

     iteration #  4     ecut=    30.00 Ry     beta=0.70
     Davidson diagonalization with overlap
     ethr =  1.00E-02,  avg # of iterations =  1.0

     negative rho (up, down):  1.906E-03 0.000E+00

     total cpu time spent up to now is        3.7 secs

     total energy              =     -27.36707217 Ry
     Harris-Foulkes estimate   =     -27.46426091 Ry
     estimated scf accuracy    <       1.67693275 Ry

     iteration #  5     ecut=    30.00 Ry     beta=0.70
     Davidson diagonalization with overlap
     ethr =  1.00E-02,  avg # of iterations =  1.0

     negative rho (up, down):  1.340E-01 0.000E+00

     total cpu time spent up to now is        3.8 secs

     total energy              =     -26.80877542 Ry
     Harris-Foulkes estimate   =     -27.36828049 Ry
     estimated scf accuracy    <       1.52234653 Ry

     iteration #  6     ecut=    30.00 Ry     beta=0.70
     Davidson diagonalization with overlap
     ethr =  1.00E-02,  avg # of iterations =  2.0

     negative rho (up, down):  9.796E-02 0.000E+00

     total cpu time spent up to now is        3.8 secs

     total energy              =     -27.66071591 Ry
     Harris-Foulkes estimate   =     -27.71699747 Ry
     estimated scf accuracy    <       1.42125500 Ry

     iteration #  7     ecut=    30.00 Ry     beta=0.70
     Davidson diagonalization with overlap
     ethr =  1.00E-02,  avg # of iterations =  1.0

     negative rho (up, down):  2.590E-06 0.000E+00

     total cpu time spent up to now is        3.8 secs

     total energy              =     -27.38639200 Ry
     Harris-Foulkes estimate   =     -27.66129716 Ry
     estimated scf accuracy    <       1.31005448 Ry

     iteration #  8     ecut=    30.00 Ry     beta=0.70
     Davidson diagonalization with overlap
     ethr =  1.00E-02,  avg # of iterations =  1.0

     total cpu time spent up to now is        3.8 secs

     total energy              =     -27.49677286 Ry
     Harris-Foulkes estimate   =     -27.38131590 Ry
     estimated scf accuracy    <       0.91277545 Ry

     iteration #  9     ecut=    30.00 Ry     beta=0.70
     Davidson diagonalization with overlap
     ethr =  1.00E-02,  avg # of iterations =  1.0

     negative rho (up, down):  2.616E-02 0.000E+00

     total cpu time spent up to now is        3.9 secs

     total energy              =     -27.63898061 Ry
     Harris-Foulkes estimate   =     -27.49716811 Ry
     estimated scf accuracy    <       1.06957224 Ry

     iteration # 10     ecut=    30.00 Ry     beta=0.70
     Davidson diagonalization with overlap
     ethr =  1.00E-02,  avg # of iterations =  1.0

     negative rho (up, down):  4.622E-02 0.000E+00

     total cpu time spent up to now is        3.9 secs

     total energy              =     -28.20235579 Ry
     Harris-Foulkes estimate   =     -27.64782196 Ry
     estimated scf accuracy    <       1.27187569 Ry

     iteration # 11     ecut=    30.00 Ry     beta=0.70
     Davidson diagonalization with overlap
     ethr =  1.00E-02,  avg # of iterations =  1.0

     negative rho (up, down):  2.255E-05 0.000E+00

     total cpu time spent up to now is        3.9 secs

     total energy              =     -27.17052307 Ry
     Harris-Foulkes estimate   =     -28.20927604 Ry
     estimated scf accuracy    <       2.03697597 Ry

     iteration # 12     ecut=    30.00 Ry     beta=0.70
     Davidson diagonalization with overlap
     ethr =  1.00E-02,  avg # of iterations =  2.0

     negative rho (up, down):  5.689E-06 0.000E+00

     total cpu time spent up to now is        4.0 secs

     total energy              =     -27.45867141 Ry
     Harris-Foulkes estimate   =     -27.40924920 Ry
     estimated scf accuracy    <       1.49218069 Ry

     iteration # 13     ecut=    30.00 Ry     beta=0.70
     Davidson diagonalization with overlap
     ethr =  1.00E-02,  avg # of iterations =  1.0

     total cpu time spent up to now is        4.0 secs

     total energy              =     -27.16701703 Ry
     Harris-Foulkes estimate   =     -27.45956182 Ry
     estimated scf accuracy    <       1.57453264 Ry

     iteration # 14     ecut=    30.00 Ry     beta=0.70
     Davidson diagonalization with overlap
     ethr =  1.00E-02,  avg # of iterations =  1.0

     negative rho (up, down):  3.656E-08 0.000E+00

     total cpu time spent up to now is        4.0 secs

     total energy              =     -27.14591115 Ry
     Harris-Foulkes estimate   =     -27.37497976 Ry
     estimated scf accuracy    <       0.89313696 Ry

     iteration # 15     ecut=    30.00 Ry     beta=0.70
     Davidson diagonalization with overlap
     ethr =  1.00E-02,  avg # of iterations =  1.0

     negative rho (up, down):  1.677E-05 0.000E+00

     total cpu time spent up to now is        4.1 secs

     total energy              =     -27.33795819 Ry
     Harris-Foulkes estimate   =     -27.48008177 Ry
     estimated scf accuracy    <       1.60634071 Ry

     iteration # 16     ecut=    30.00 Ry     beta=0.70
     Davidson diagonalization with overlap
     ethr =  1.00E-02,  avg # of iterations =  1.0

     negative rho (up, down):  1.741E-05 0.000E+00

     total cpu time spent up to now is        4.1 secs

     total energy              =     -27.25602008 Ry
     Harris-Foulkes estimate   =     -27.33724480 Ry
     estimated scf accuracy    <       1.78635393 Ry

     iteration # 17     ecut=    30.00 Ry     beta=0.70
     Davidson diagonalization with overlap
     ethr =  1.00E-02,  avg # of iterations =  1.0

     total cpu time spent up to now is        4.1 secs

     total energy              =     -27.28642414 Ry
     Harris-Foulkes estimate   =     -27.29903802 Ry
     estimated scf accuracy    <       0.20001889 Ry

     iteration # 18     ecut=    30.00 Ry     beta=0.70
     Davidson diagonalization with overlap
     ethr =  2.50E-03,  avg # of iterations =  1.0

     total cpu time spent up to now is        4.2 secs

     total energy              =     -27.31776534 Ry
     Harris-Foulkes estimate   =     -27.30058928 Ry
     estimated scf accuracy    <       0.38464344 Ry

     iteration # 19     ecut=    30.00 Ry     beta=0.70
     Davidson diagonalization with overlap
     ethr =  2.50E-03,  avg # of iterations =  1.0

     total cpu time spent up to now is        4.2 secs

     total energy              =     -27.31305576 Ry
     Harris-Foulkes estimate   =     -27.32961994 Ry
     estimated scf accuracy    <       1.77765691 Ry

     iteration # 20     ecut=    30.00 Ry     beta=0.70
     Davidson diagonalization with overlap
     ethr =  2.50E-03,  avg # of iterations =  1.0

     total cpu time spent up to now is        4.2 secs

     total energy              =     -27.34456315 Ry
     Harris-Foulkes estimate   =     -27.31394472 Ry
     estimated scf accuracy    <       1.29347857 Ry

     iteration # 21     ecut=    30.00 Ry     beta=0.70
     Davidson diagonalization with overlap
     ethr =  2.50E-03,  avg # of iterations =  1.0

     negative rho (up, down):  5.140E-08 0.000E+00

     total cpu time spent up to now is        4.3 secs

     total energy              =     -27.30087751 Ry
     Harris-Foulkes estimate   =     -27.34846555 Ry
     estimated scf accuracy    <       1.63248206 Ry

     iteration # 22     ecut=    30.00 Ry     beta=0.70
     Davidson diagonalization with overlap
     ethr =  2.50E-03,  avg # of iterations =  1.0

     negative rho (up, down):  3.547E-08 0.000E+00

     total cpu time spent up to now is        4.3 secs

     total energy              =     -27.31794357 Ry
     Harris-Foulkes estimate   =     -27.30343230 Ry
     estimated scf accuracy    <       0.60955244 Ry

     iteration # 23     ecut=    30.00 Ry     beta=0.70
     Davidson diagonalization with overlap
     ethr =  2.50E-03,  avg # of iterations =  1.0

     negative rho (up, down):  2.578E-07 0.000E+00

     total cpu time spent up to now is        4.3 secs

     total energy              =     -27.32084486 Ry
     Harris-Foulkes estimate   =     -27.32327796 Ry
     estimated scf accuracy    <       1.66710466 Ry

     iteration # 24     ecut=    30.00 Ry     beta=0.70
     Davidson diagonalization with overlap
     ethr =  2.50E-03,  avg # of iterations =  1.0

     negative rho (up, down):  4.146E-07 0.000E+00

     total cpu time spent up to now is        4.4 secs

     total energy              =     -27.32338695 Ry
     Harris-Foulkes estimate   =     -27.32087046 Ry
     estimated scf accuracy    <       1.59610097 Ry

     iteration # 25     ecut=    30.00 Ry     beta=0.70
     Davidson diagonalization with overlap
     ethr =  2.50E-03,  avg # of iterations =  1.0

     negative rho (up, down):  1.829E-08 0.000E+00

     total cpu time spent up to now is        4.5 secs

     total energy              =     -27.39188453 Ry
     Harris-Foulkes estimate   =     -27.32341689 Ry
     estimated scf accuracy    <       1.67241274 Ry

     iteration # 26     ecut=    30.00 Ry     beta=0.70
     Davidson diagonalization with overlap
     ethr =  2.50E-03,  avg # of iterations =  1.0

     total cpu time spent up to now is        4.5 secs

     total energy              =     -27.39579555 Ry
     Harris-Foulkes estimate   =     -27.38914796 Ry
     estimated scf accuracy    <       1.46606051 Ry

     iteration # 27     ecut=    30.00 Ry     beta=0.70
     Davidson diagonalization with overlap
     ethr =  2.50E-03,  avg # of iterations =  1.0

     total cpu time spent up to now is        4.5 secs

     total energy              =     -27.41628476 Ry
     Harris-Foulkes estimate   =     -27.39580296 Ry
     estimated scf accuracy    <       1.47463650 Ry

     iteration # 28     ecut=    30.00 Ry     beta=0.70
     Davidson diagonalization with overlap
     ethr =  2.50E-03,  avg # of iterations =  1.0

     total cpu time spent up to now is        4.6 secs

     total energy              =     -27.42012547 Ry
     Harris-Foulkes estimate   =     -27.41631903 Ry
     estimated scf accuracy    <       1.50845071 Ry

     iteration # 29     ecut=    30.00 Ry     beta=0.70
     Davidson diagonalization with overlap
     ethr =  2.50E-03,  avg # of iterations =  1.0

     total cpu time spent up to now is        4.6 secs

     total energy              =     -27.42764995 Ry
     Harris-Foulkes estimate   =     -27.42012785 Ry
     estimated scf accuracy    <       1.51451942 Ry

     iteration # 30     ecut=    30.00 Ry     beta=0.70
     Davidson diagonalization with overlap
     ethr =  2.50E-03,  avg # of iterations =  1.0

     total cpu time spent up to now is        4.6 secs

     total energy              =     -27.44925727 Ry
     Harris-Foulkes estimate   =     -27.42765500 Ry
     estimated scf accuracy    <       1.52707747 Ry

     iteration # 31     ecut=    30.00 Ry     beta=0.70
     Davidson diagonalization with overlap
     ethr =  2.50E-03,  avg # of iterations =  1.0

     negative rho (up, down):  4.796E-06 0.000E+00

     total cpu time spent up to now is        4.7 secs

     total energy              =     -27.48991820 Ry
     Harris-Foulkes estimate   =     -27.44929227 Ry
     estimated scf accuracy    <       1.56300946 Ry

     iteration # 32     ecut=    30.00 Ry     beta=0.70
     Davidson diagonalization with overlap
     ethr =  2.50E-03,  avg # of iterations =  1.0

     negative rho (up, down):  2.733E-04 0.000E+00

     total cpu time spent up to now is        4.7 secs

     total energy              =     -27.56496730 Ry
     Harris-Foulkes estimate   =     -27.49003906 Ry
     estimated scf accuracy    <       1.63229496 Ry

     iteration # 33     ecut=    30.00 Ry     beta=0.70
     Davidson diagonalization with overlap
     ethr =  2.50E-03,  avg # of iterations =  1.0

     negative rho (up, down):  3.772E-02 0.000E+00

     total cpu time spent up to now is        4.7 secs

     total energy              =     -28.00810790 Ry
     Harris-Foulkes estimate   =     -27.56537091 Ry
     estimated scf accuracy    <       1.75892490 Ry

     iteration # 34     ecut=    30.00 Ry     beta=0.70
     Davidson diagonalization with overlap
     ethr =  2.50E-03,  avg # of iterations =  1.0

     negative rho (up, down):  9.526E-02 0.000E+00

     total cpu time spent up to now is        4.8 secs

     total energy              =     -26.09980183 Ry
     Harris-Foulkes estimate   =     -28.02155151 Ry
     estimated scf accuracy    <       2.56534338 Ry

     iteration # 35     ecut=    30.00 Ry     beta=0.70
     Davidson diagonalization with overlap
     ethr =  2.50E-03,  avg # of iterations =  5.0

     negative rho (up, down):  1.744E-02 0.000E+00

     total cpu time spent up to now is        4.8 secs

     total energy              =     -28.33835180 Ry
     Harris-Foulkes estimate   =     -29.13141442 Ry
     estimated scf accuracy    <       3.34462422 Ry

     iteration # 36     ecut=    30.00 Ry     beta=0.70
     Davidson diagonalization with overlap
     ethr =  2.50E-03,  avg # of iterations =  3.0

     negative rho (up, down):  1.226E-03 0.000E+00

     total cpu time spent up to now is        4.8 secs

     total energy              =     -27.22238600 Ry
     Harris-Foulkes estimate   =     -28.34682558 Ry
     estimated scf accuracy    <       2.28894488 Ry

     iteration # 37     ecut=    30.00 Ry     beta=0.70
     Davidson diagonalization with overlap
     ethr =  2.50E-03,  avg # of iterations =  3.0

     negative rho (up, down):  3.173E-02 0.000E+00

     total cpu time spent up to now is        4.9 secs

     total energy              =     -27.52983977 Ry
     Harris-Foulkes estimate   =     -27.30521253 Ry
     estimated scf accuracy    <       0.79412660 Ry

     iteration # 38     ecut=    30.00 Ry     beta=0.70
     Davidson diagonalization with overlap
     ethr =  2.50E-03,  avg # of iterations =  1.0

     negative rho (up, down):  8.023E-07 0.000E+00

     total cpu time spent up to now is        4.9 secs

     total energy              =     -27.15150488 Ry
     Harris-Foulkes estimate   =     -27.60418288 Ry
     estimated scf accuracy    <       1.84483829 Ry

     iteration # 39     ecut=    30.00 Ry     beta=0.70
     Davidson diagonalization with overlap
     ethr =  2.50E-03,  avg # of iterations =  2.0

     negative rho (up, down):  3.293E-08 0.000E+00

     total cpu time spent up to now is        5.0 secs

     total energy              =     -27.37071207 Ry
     Harris-Foulkes estimate   =     -27.38015325 Ry
     estimated scf accuracy    <       0.88551917 Ry

     iteration # 40     ecut=    30.00 Ry     beta=0.70
     Davidson diagonalization with overlap
     ethr =  2.50E-03,  avg # of iterations =  1.0

     total cpu time spent up to now is        5.0 secs

     total energy              =     -27.36722395 Ry
     Harris-Foulkes estimate   =     -27.37129736 Ry
     estimated scf accuracy    <       0.88208178 Ry

     iteration # 41     ecut=    30.00 Ry     beta=0.70
     Davidson diagonalization with overlap
     ethr =  2.50E-03,  avg # of iterations =  1.0

     total cpu time spent up to now is        5.0 secs

     total energy              =     -27.33493760 Ry
     Harris-Foulkes estimate   =     -27.36730224 Ry
     estimated scf accuracy    <       0.88468851 Ry

     iteration # 42     ecut=    30.00 Ry     beta=0.70
     Davidson diagonalization with overlap
     ethr =  2.50E-03,  avg # of iterations =  1.0

     total cpu time spent up to now is        5.0 secs

     total energy              =     -27.00521979 Ry
     Harris-Foulkes estimate   =     -27.33497839 Ry
     estimated scf accuracy    <       0.83827139 Ry

     iteration # 43     ecut=    30.00 Ry     beta=0.70
     Davidson diagonalization with overlap
     ethr =  2.50E-03,  avg # of iterations =  2.0

     total cpu time spent up to now is        5.1 secs

     total energy              =     -27.40320721 Ry
     Harris-Foulkes estimate   =     -27.74787540 Ry
     estimated scf accuracy    <       2.06550133 Ry

     iteration # 44     ecut=    30.00 Ry     beta=0.70
     Davidson diagonalization with overlap
     ethr =  2.50E-03,  avg # of iterations =  1.0

     total cpu time spent up to now is        5.1 secs

     total energy              =     -27.42071927 Ry
     Harris-Foulkes estimate   =     -27.40972056 Ry
     estimated scf accuracy    <       1.50928841 Ry

     iteration # 45     ecut=    30.00 Ry     beta=0.70
     Davidson diagonalization with overlap
     ethr =  2.50E-03,  avg # of iterations =  1.0

     total cpu time spent up to now is        5.1 secs

     total energy              =     -27.33092281 Ry
     Harris-Foulkes estimate   =     -27.42091139 Ry
     estimated scf accuracy    <       1.52180666 Ry

     iteration # 46     ecut=    30.00 Ry     beta=0.70
     Davidson diagonalization with overlap
     ethr =  2.50E-03,  avg # of iterations =  1.0

     total cpu time spent up to now is        5.2 secs

     total energy              =     -27.34964691 Ry
     Harris-Foulkes estimate   =     -27.32858173 Ry
     estimated scf accuracy    <       1.77253442 Ry

     iteration # 47     ecut=    30.00 Ry     beta=0.70
     Davidson diagonalization with overlap
     ethr =  2.50E-03,  avg # of iterations =  1.0

     total cpu time spent up to now is        5.2 secs

     total energy              =     -27.32140451 Ry
     Harris-Foulkes estimate   =     -27.34939245 Ry
     estimated scf accuracy    <       1.62014798 Ry

     iteration # 48     ecut=    30.00 Ry     beta=0.70
     Davidson diagonalization with overlap
     ethr =  2.50E-03,  avg # of iterations =  1.0

     total cpu time spent up to now is        5.2 secs

     total energy              =     -27.32419235 Ry
     Harris-Foulkes estimate   =     -27.32035677 Ry
     estimated scf accuracy    <       1.58019650 Ry

     iteration # 49     ecut=    30.00 Ry     beta=0.70
     Davidson diagonalization with overlap
     ethr =  2.50E-03,  avg # of iterations =  1.0

     total cpu time spent up to now is        5.3 secs

     total energy              =     -27.35480099 Ry
     Harris-Foulkes estimate   =     -27.32426361 Ry
     estimated scf accuracy    <       1.69464132 Ry

     iteration # 50     ecut=    30.00 Ry     beta=0.70
     Davidson diagonalization with overlap
     ethr =  2.50E-03,  avg # of iterations =  1.0

     total cpu time spent up to now is        5.3 secs

     total energy              =     -27.37022156 Ry
     Harris-Foulkes estimate   =     -27.35477558 Ry
     estimated scf accuracy    <       1.55357450 Ry

     iteration # 51     ecut=    30.00 Ry     beta=0.70
     Davidson diagonalization with overlap
     ethr =  2.50E-03,  avg # of iterations =  1.0

     negative rho (up, down):  1.673E-08 0.000E+00

     total cpu time spent up to now is        5.3 secs

     total energy              =     -27.42589386 Ry
     Harris-Foulkes estimate   =     -27.36989155 Ry
     estimated scf accuracy    <       1.46208980 Ry

     iteration # 52     ecut=    30.00 Ry     beta=0.70
     Davidson diagonalization with overlap
     ethr =  2.50E-03,  avg # of iterations =  1.0

     negative rho (up, down):  1.743E-08 0.000E+00

     total cpu time spent up to now is        5.4 secs

     total energy              =     -27.42311775 Ry
     Harris-Foulkes estimate   =     -27.42564700 Ry
     estimated scf accuracy    <       1.52544521 Ry

     iteration # 53     ecut=    30.00 Ry     beta=0.70
     Davidson diagonalization with overlap
     ethr =  2.50E-03,  avg # of iterations =  1.0

     negative rho (up, down):  6.272E-08 0.000E+00

     total cpu time spent up to now is        5.4 secs

     total energy              =     -27.44398678 Ry
     Harris-Foulkes estimate   =     -27.42312308 Ry
     estimated scf accuracy    <       1.52166386 Ry

     iteration # 54     ecut=    30.00 Ry     beta=0.70
     Davidson diagonalization with overlap
     ethr =  2.50E-03,  avg # of iterations =  1.0

     total cpu time spent up to now is        5.4 secs

     total energy              =     -27.32216803 Ry
     Harris-Foulkes estimate   =     -27.44402437 Ry
     estimated scf accuracy    <       1.55704579 Ry

     iteration # 55     ecut=    30.00 Ry     beta=0.70
     Davidson diagonalization with overlap
     ethr =  2.50E-03,  avg # of iterations =  1.0

     total cpu time spent up to now is        5.5 secs

     total energy              =     -27.45585911 Ry
     Harris-Foulkes estimate   =     -27.31940667 Ry
     estimated scf accuracy    <       1.54820522 Ry

     iteration # 56     ecut=    30.00 Ry     beta=0.70
     Davidson diagonalization with overlap
     ethr =  2.50E-03,  avg # of iterations =  1.0

     negative rho (up, down):  2.348E-03 0.000E+00

     total cpu time spent up to now is        5.5 secs

     total energy              =     -27.61165374 Ry
     Harris-Foulkes estimate   =     -27.45245057 Ry
     estimated scf accuracy    <       1.56334129 Ry

     iteration # 57     ecut=    30.00 Ry     beta=0.70
     Davidson diagonalization with overlap
     ethr =  2.50E-03,  avg # of iterations =  1.0

     negative rho (up, down):  3.626E-08 0.000E+00

     total cpu time spent up to now is        5.5 secs

     total energy              =     -27.45218183 Ry
     Harris-Foulkes estimate   =     -27.61382556 Ry
     estimated scf accuracy    <       1.84227886 Ry

     iteration # 58     ecut=    30.00 Ry     beta=0.70
     Davidson diagonalization with overlap
     ethr =  2.50E-03,  avg # of iterations =  1.0

     negative rho (up, down):  4.946E-02 0.000E+00

     total cpu time spent up to now is        5.6 secs

     total energy              =     -26.29598316 Ry
     Harris-Foulkes estimate   =     -27.45397144 Ry
     estimated scf accuracy    <       1.57771899 Ry

     iteration # 59     ecut=    30.00 Ry     beta=0.70
     Davidson diagonalization with overlap
     ethr =  2.50E-03,  avg # of iterations =  4.0

     negative rho (up, down):  4.519E-03 0.000E+00

     total cpu time spent up to now is        5.6 secs

     total energy              =     -28.14069664 Ry
     Harris-Foulkes estimate   =     -28.93078008 Ry
     estimated scf accuracy    <       3.10571488 Ry

     iteration # 60     ecut=    30.00 Ry     beta=0.70
     Davidson diagonalization with overlap
     ethr =  2.50E-03,  avg # of iterations =  2.0

     negative rho (up, down):  8.849E-08 0.000E+00

     total cpu time spent up to now is        5.6 secs

     total energy              =     -27.24187667 Ry
     Harris-Foulkes estimate   =     -28.15213305 Ry
     estimated scf accuracy    <       2.02914872 Ry

     iteration # 61     ecut=    30.00 Ry     beta=0.70
     Davidson diagonalization with overlap
     ethr =  2.50E-03,  avg # of iterations =  3.0

     total cpu time spent up to now is        5.7 secs

     total energy              =     -27.25345045 Ry
     Harris-Foulkes estimate   =     -27.29916009 Ry
     estimated scf accuracy    <       0.23269722 Ry

     iteration # 62     ecut=    30.00 Ry     beta=0.70
     Davidson diagonalization with overlap
     ethr =  2.50E-03,  avg # of iterations =  1.0

     total cpu time spent up to now is        5.7 secs

     total energy              =     -27.32371393 Ry
     Harris-Foulkes estimate   =     -27.36380412 Ry
     estimated scf accuracy    <       0.87911683 Ry

     iteration # 63     ecut=    30.00 Ry     beta=0.70
     Davidson diagonalization with overlap
     ethr =  2.50E-03,  avg # of iterations =  1.0

     total cpu time spent up to now is        5.8 secs

     total energy              =     -27.31166708 Ry
     Harris-Foulkes estimate   =     -27.32390864 Ry
     estimated scf accuracy    <       0.80129693 Ry

     iteration # 64     ecut=    30.00 Ry     beta=0.70
     Davidson diagonalization with overlap
     ethr =  2.50E-03,  avg # of iterations =  1.0

     total cpu time spent up to now is        5.8 secs

     total energy              =     -27.32189863 Ry
     Harris-Foulkes estimate   =     -27.31202166 Ry
     estimated scf accuracy    <       0.66928161 Ry

     iteration # 65     ecut=    30.00 Ry     beta=0.70
     Davidson diagonalization with overlap
     ethr =  2.50E-03,  avg # of iterations =  1.0

     total cpu time spent up to now is        5.8 secs

     total energy              =     -27.30584461 Ry
     Harris-Foulkes estimate   =     -27.32236790 Ry
     estimated scf accuracy    <       0.79271947 Ry

     iteration # 66     ecut=    30.00 Ry     beta=0.70
     Davidson diagonalization with overlap
     ethr =  2.50E-03,  avg # of iterations =  1.0

     total cpu time spent up to now is        5.8 secs

     total energy              =     -27.23130132 Ry
     Harris-Foulkes estimate   =     -27.30683412 Ry
     estimated scf accuracy    <       0.53650352 Ry

     iteration # 67     ecut=    30.00 Ry     beta=0.70
     Davidson diagonalization with overlap
     ethr =  2.50E-03,  avg # of iterations =  1.0

     total cpu time spent up to now is        5.9 secs

     total energy              =     -27.20886892 Ry
     Harris-Foulkes estimate   =     -27.37896708 Ry
     estimated scf accuracy    <       1.45463683 Ry

     iteration # 68     ecut=    30.00 Ry     beta=0.70
     Davidson diagonalization with overlap
     ethr =  2.50E-03,  avg # of iterations =  1.0

     total cpu time spent up to now is        5.9 secs

     total energy              =     -27.28161415 Ry
     Harris-Foulkes estimate   =     -27.34045778 Ry
     estimated scf accuracy    <       0.84545345 Ry

     iteration # 69     ecut=    30.00 Ry     beta=0.70
     Davidson diagonalization with overlap
     ethr =  2.50E-03,  avg # of iterations =  1.0

     total cpu time spent up to now is        5.9 secs

     total energy              =     -27.29726371 Ry
     Harris-Foulkes estimate   =     -27.29579225 Ry
     estimated scf accuracy    <       0.00054910 Ry

     iteration # 70     ecut=    30.00 Ry     beta=0.70
     Davidson diagonalization with overlap
     ethr =  6.86E-06,  avg # of iterations = 15.0

     total cpu time spent up to now is        6.0 secs

     total energy              =     -27.33924499 Ry
     Harris-Foulkes estimate   =     -27.32838637 Ry
     estimated scf accuracy    <       1.76872592 Ry

     iteration # 71     ecut=    30.00 Ry     beta=0.70
     Davidson diagonalization with overlap
     ethr =  6.86E-06,  avg # of iterations =  1.0

     total cpu time spent up to now is        6.1 secs

     total energy              =     -27.24523756 Ry
     Harris-Foulkes estimate   =     -27.33927561 Ry
     estimated scf accuracy    <       1.75947243 Ry

     iteration # 72     ecut=    30.00 Ry     beta=0.70
     Davidson diagonalization with overlap
     ethr =  6.86E-06,  avg # of iterations =  9.0

     total cpu time spent up to now is        6.1 secs

     total energy              =     -27.31531310 Ry
     Harris-Foulkes estimate   =     -27.30392261 Ry
     estimated scf accuracy    <       0.44090494 Ry

     iteration # 73     ecut=    30.00 Ry     beta=0.70
     Davidson diagonalization with overlap
     ethr =  6.86E-06,  avg # of iterations =  1.0

     total cpu time spent up to now is        6.1 secs

     total energy              =     -27.28921595 Ry
     Harris-Foulkes estimate   =     -27.31732758 Ry
     estimated scf accuracy    <       0.75704308 Ry

     iteration # 74     ecut=    30.00 Ry     beta=0.70
     Davidson diagonalization with overlap
     ethr =  6.86E-06,  avg # of iterations =  2.0

     total cpu time spent up to now is        6.2 secs

     total energy              =     -27.28532631 Ry
     Harris-Foulkes estimate   =     -27.29659174 Ry
     estimated scf accuracy    <       0.05591717 Ry

     iteration # 75     ecut=    30.00 Ry     beta=0.70
     Davidson diagonalization with overlap
     ethr =  6.86E-06,  avg # of iterations =  8.0

     total cpu time spent up to now is        6.2 secs

     total energy              =     -27.30342439 Ry
     Harris-Foulkes estimate   =     -27.33182882 Ry
     estimated scf accuracy    <       1.79480632 Ry

     iteration # 76     ecut=    30.00 Ry     beta=0.70
     Davidson diagonalization with overlap
     ethr =  6.86E-06,  avg # of iterations =  2.0

     total cpu time spent up to now is        6.3 secs

     total energy              =     -27.28294502 Ry
     Harris-Foulkes estimate   =     -27.30649574 Ry
     estimated scf accuracy    <       0.83781527 Ry

     iteration # 77     ecut=    30.00 Ry     beta=0.70
     Davidson diagonalization with overlap
     ethr =  6.86E-06,  avg # of iterations =  4.0

     total cpu time spent up to now is        6.3 secs

     total energy              =     -27.29344254 Ry
     Harris-Foulkes estimate   =     -27.29595810 Ry
     estimated scf accuracy    <       0.01180634 Ry

     iteration # 78     ecut=    30.00 Ry     beta=0.70
     Davidson diagonalization with overlap
     ethr =  6.86E-06,  avg # of iterations =  3.0

     total cpu time spent up to now is        6.3 secs

     total energy              =     -27.29532208 Ry
     Harris-Foulkes estimate   =     -27.30553567 Ry
     estimated scf accuracy    <       0.76839777 Ry

     iteration # 79     ecut=    30.00 Ry     beta=0.70
     Davidson diagonalization with overlap
     ethr =  6.86E-06,  avg # of iterations =  1.0

     total cpu time spent up to now is        6.4 secs

     total energy              =     -27.29665696 Ry
     Harris-Foulkes estimate   =     -27.29791719 Ry
     estimated scf accuracy    <       0.17296483 Ry

     iteration # 80     ecut=    30.00 Ry     beta=0.70
     Davidson diagonalization with overlap
     ethr =  6.86E-06,  avg # of iterations =  1.0

     total cpu time spent up to now is        6.4 secs

     total energy              =     -27.29544879 Ry
     Harris-Foulkes estimate   =     -27.29684623 Ry
     estimated scf accuracy    <       0.08433706 Ry

     iteration # 81     ecut=    30.00 Ry     beta=0.70
     Davidson diagonalization with overlap
     ethr =  6.86E-06,  avg # of iterations =  1.0

     total cpu time spent up to now is        6.4 secs

     total energy              =     -27.29570696 Ry
     Harris-Foulkes estimate   =     -27.29591402 Ry
     estimated scf accuracy    <       0.00915299 Ry

     iteration # 82     ecut=    30.00 Ry     beta=0.70
     Davidson diagonalization with overlap
     ethr =  6.86E-06,  avg # of iterations =  1.0

     total cpu time spent up to now is        6.5 secs

     total energy              =     -27.29579554 Ry
     Harris-Foulkes estimate   =     -27.29579899 Ry
     estimated scf accuracy    <       0.00010508 Ry

     iteration # 83     ecut=    30.00 Ry     beta=0.70
     Davidson diagonalization with overlap
     ethr =  1.31E-06,  avg # of iterations =  1.0

     total cpu time spent up to now is        6.5 secs

     total energy              =     -27.29579760 Ry
     Harris-Foulkes estimate   =     -27.29579799 Ry
     estimated scf accuracy    <       0.00001232 Ry

     iteration # 84     ecut=    30.00 Ry     beta=0.70
     Davidson diagonalization with overlap
     ethr =  1.54E-07,  avg # of iterations =  1.0

     total cpu time spent up to now is        6.5 secs

     total energy              =     -27.29579726 Ry
     Harris-Foulkes estimate   =     -27.29579761 Ry
     estimated scf accuracy    <       0.00001048 Ry

     iteration # 85     ecut=    30.00 Ry     beta=0.70
     Davidson diagonalization with overlap
     ethr =  1.31E-07,  avg # of iterations =  1.0

     total cpu time spent up to now is        6.5 secs

     total energy              =     -27.29579735 Ry
     Harris-Foulkes estimate   =     -27.29579737 Ry
     estimated scf accuracy    <       0.00000011 Ry

     iteration # 86     ecut=    30.00 Ry     beta=0.70
     Davidson diagonalization with overlap
     ethr =  1.37E-09,  avg # of iterations =  1.0

     total cpu time spent up to now is        6.6 secs

     total energy              =     -27.29579734 Ry
     Harris-Foulkes estimate   =     -27.29579735 Ry
     estimated scf accuracy    <       0.00000004 Ry

     iteration # 87     ecut=    30.00 Ry     beta=0.70
     Davidson diagonalization with overlap
     ethr =  4.40E-10,  avg # of iterations =  1.0

     total cpu time spent up to now is        6.6 secs

     End of self-consistent calculation

          k = 0.0000 0.0000 0.0000 ( 22119 PWs)   bands (ev):

   -31.2735 -11.8311  -7.5642  -7.5618  -7.4011  -0.3139   0.6543   0.7201

     the Fermi energy is    -7.3850 ev

!    total energy              =     -27.29579734 Ry
     Harris-Foulkes estimate   =     -27.29579734 Ry
     estimated scf accuracy    <          4.0E-09 Ry

     convergence has been achieved in  87 iterations

     Forces acting on atoms (Ry/au):

     atom    1 type  1   force =     0.00139038    0.00067023    0.00004765
     atom    2 type  1   force =   -15.55359113   -9.14680930    4.23306997
     atom    3 type  2   force =    15.55220075    9.14613907   -4.23311763

     Total force =    26.209527     Total SCF correction =     0.000018

     Entering Dynamics:    iteration =     3
                           time      =   0.0145 pico-seconds


     Andersen thermostat:    3 collisions

ATOMIC_POSITIONS (bohr)
H       11.274767749  18.614787656   8.049929547
H     -153.886991532 -80.179323270  62.948261860
O       26.447429064  25.902593501  14.046146547


     kinetic energy (Ekin) =   496.78831197 Ry
     temperature           = ************** K 
     Ekin + Etot (const)   =   469.49251463 Ry
     Message from routine dynamics:
     Total linear momentum <> 0

     Linear momentum :    0.0075128326    0.0024346837    0.2616481738

     Writing output data file pwscf.save

     second order wave-functions extrapolation
     Check: negative starting charge=   -0.348849
     second order charge density extrapolation
     Check: negative starting charge=   -0.352541

     negative rho (up, down):  9.495E+01 0.000E+00

     total cpu time spent up to now is        7.0 secs

     per-process dynamical memory:    20.4 Mb

     Self-consistent Calculation

     iteration #  1     ecut=    30.00 Ry     beta=0.70
     Davidson diagonalization with overlap
     c_bands:  4 eigenvalues not converged
     ethr =  1.00E-06,  avg # of iterations = 40.0

     negative rho (up, down):  2.808E+01 0.000E+00

     total cpu time spent up to now is        7.2 secs

     total energy              =    -352.91169304 Ry
     Harris-Foulkes estimate   =  -16137.45826022 Ry
     estimated scf accuracy    <    2971.59024410 Ry

     iteration #  2     ecut=    30.00 Ry     beta=0.70
     Davidson diagonalization with overlap
     ethr =  1.00E-02,  avg # of iterations = 18.0

     negative rho (up, down):  7.054E-01 0.000E+00

     total cpu time spent up to now is        7.3 secs

     total energy              =     138.89680859 Ry
     Harris-Foulkes estimate   =   -5319.82949850 Ry
     estimated scf accuracy    <     293.54991571 Ry

     iteration #  3     ecut=    30.00 Ry     beta=0.70
     Davidson diagonalization with overlap
     ethr =  1.00E-02,  avg # of iterations =  7.0

     negative rho (up, down):  1.361E-01 0.000E+00

     total cpu time spent up to now is        7.3 secs

     total energy              =     156.08305271 Ry
     Harris-Foulkes estimate   =   -1416.42552583 Ry
     estimated scf accuracy    <      47.26502045 Ry

     iteration #  4     ecut=    30.00 Ry     beta=0.70
     Davidson diagonalization with overlap
     ethr =  1.00E-02,  avg # of iterations = 16.0

     negative rho (up, down):  2.882E-02 0.000E+00

     total cpu time spent up to now is        7.4 secs

     total energy              =     123.03521311 Ry
     Harris-Foulkes estimate   =    -246.81701332 Ry
     estimated scf accuracy    <      36.39565847 Ry

     iteration #  5     ecut=    30.00 Ry     beta=0.70
     Davidson diagonalization with overlap
     ethr =  1.00E-02,  avg # of iterations = 10.0

     negative rho (up, down):  3.018E-03 0.000E+00

     total cpu time spent up to now is        7.5 secs

     total energy              =      20.43517740 Ry
     Harris-Foulkes estimate   =    -103.99193549 Ry
     estimated scf accuracy    <      30.52187069 Ry

     iteration #  6     ecut=    30.00 Ry     beta=0.70
     Davidson diagonalization with overlap
     ethr =  1.00E-02,  avg # of iterations =  5.0

     negative rho (up, down):  6.747E-05 0.000E+00

     total cpu time spent up to now is        7.5 secs

     total energy              =     -83.93224125 Ry
     Harris-Foulkes estimate   =     -82.73307025 Ry
     estimated scf accuracy    <      69.77596720 Ry

     iteration #  7     ecut=    30.00 Ry     beta=0.70
     Davidson diagonalization with overlap
     ethr =  1.00E-02,  avg # of iterations =  1.0

     negative rho (up, down):  1.029E+01 0.000E+00

     total cpu time spent up to now is        7.5 secs

     total energy              =    -556.76893129 Ry
     Harris-Foulkes estimate   =     -83.93272838 Ry
     estimated scf accuracy    <      71.39833595 Ry

     iteration #  8     ecut=    30.00 Ry     beta=0.70
     Davidson diagonalization with overlap
     ethr =  1.00E-02,  avg # of iterations =  8.0

     negative rho (up, down):  1.017E+01 0.000E+00

     total cpu time spent up to now is        7.6 secs

     total energy              =    -507.16075826 Ry
     Harris-Foulkes estimate   =   -1895.34430361 Ry
     estimated scf accuracy    <     438.67005394 Ry

     iteration #  9     ecut=    30.00 Ry     beta=0.70
     Davidson diagonalization with overlap
     ethr =  1.00E-02,  avg # of iterations =  6.0

     negative rho (up, down):  1.026E+01 0.000E+00

     total cpu time spent up to now is        7.6 secs

     total energy              =    -361.98309423 Ry
     Harris-Foulkes estimate   =   -1002.08162248 Ry
     estimated scf accuracy    <     357.27963943 Ry

     iteration # 10     ecut=    30.00 Ry     beta=0.70
     Davidson diagonalization with overlap
     ethr =  1.00E-02,  avg # of iterations =  7.0

     negative rho (up, down):  1.286E+01 0.000E+00

     total cpu time spent up to now is        7.7 secs

     total energy              =    -643.89734908 Ry
     Harris-Foulkes estimate   =   -1902.40704482 Ry
     estimated scf accuracy    <     355.98744397 Ry

     iteration # 11     ecut=    30.00 Ry     beta=0.70
     Davidson diagonalization with overlap
     ethr =  1.00E-02,  avg # of iterations =  8.0

     negative rho (up, down):  8.313E+00 0.000E+00

     total cpu time spent up to now is        7.7 secs

     total energy              =    4204.04054533 Ry
     Harris-Foulkes estimate   =   -2209.22922761 Ry
     estimated scf accuracy    <     330.08330447 Ry

     iteration # 12     ecut=    30.00 Ry     beta=0.70
     Davidson diagonalization with overlap
     ethr =  1.00E-02,  avg # of iterations = 13.0

     negative rho (up, down):  5.971E+00 0.000E+00

     total cpu time spent up to now is        7.8 secs

     total energy              =      65.80968227 Ry
     Harris-Foulkes estimate   =   -1011.49041716 Ry
     estimated scf accuracy    <     164.16852704 Ry

     iteration # 13     ecut=    30.00 Ry     beta=0.70
     Davidson diagonalization with overlap
     ethr =  1.00E-02,  avg # of iterations = 11.0

     negative rho (up, down):  6.715E+00 0.000E+00

     total cpu time spent up to now is        7.9 secs

     total energy              =    -265.22576108 Ry
     Harris-Foulkes estimate   =    -421.07849950 Ry
     estimated scf accuracy    <     257.41386605 Ry

     iteration # 14     ecut=    30.00 Ry     beta=0.70
     Davidson diagonalization with overlap
[...]

     total energy              =     130.59045768 Ry
     Harris-Foulkes estimate   =    -708.96217580 Ry
     estimated scf accuracy    <      36.46499272 Ry

     iteration # 59     ecut=    30.00 Ry     beta=0.70
     Davidson diagonalization with overlap
     ethr =  1.00E-02,  avg # of iterations = 10.0

     negative rho (up, down):  8.313E-02 0.000E+00

     total cpu time spent up to now is       10.5 secs

     total energy              =     141.17532908 Ry
     Harris-Foulkes estimate   =   -6282.64160973 Ry
     estimated scf accuracy    <      44.11994956 Ry

     iteration # 60     ecut=    30.00 Ry     beta=0.70
     Davidson diagonalization with overlap
     ethr =  1.00E-02,  avg # of iterations = 10.0

     negative rho (up, down):  1.231E-04 0.000E+00

     total cpu time spent up to now is       10.5 secs

     total energy              =     -13.17787881 Ry
     Harris-Foulkes estimate   =     -76.50459628 Ry
     estimated scf accuracy    <      15.31866127 Ry

     iteration # 61     ecut=    30.00 Ry     beta=0.70
     Davidson diagonalization with overlap
     ethr =  1.00E-02,  avg # of iterations =  4.0

     negative rho (up, down):  4.791E-02 0.000E+00

     total cpu time spent up to now is       10.5 secs

     total energy              =     -48.49979517 Ry
     Harris-Foulkes estimate   =     -52.62223343 Ry
     estimated scf accuracy    <      30.13943424 Ry

     iteration # 62     ecut=    30.00 Ry     beta=0.70
     Davidson diagonalization with overlap
     ethr =  1.00E-02,  avg # of iterations =  4.0

     negative rho (up, down):  5.034E-02 0.000E+00

     total cpu time spent up to now is       10.6 secs

     total energy              =     -13.05505159 Ry
     Harris-Foulkes estimate   =    -175.81025671 Ry
     estimated scf accuracy    <      14.81364284 Ry

     iteration # 63     ecut=    30.00 Ry     beta=0.70
     Davidson diagonalization with overlap
     ethr =  1.00E-02,  avg # of iterations =  4.0

     negative rho (up, down):  4.594E-02 0.000E+00

     total cpu time spent up to now is       10.6 secs

     total energy              =     -17.19095372 Ry
     Harris-Foulkes estimate   =    -479.91136293 Ry
     estimated scf accuracy    <      13.01480801 Ry

     iteration # 64     ecut=    30.00 Ry     beta=0.70
     Davidson diagonalization with overlap
     ethr =  1.00E-02,  avg # of iterations =  7.0

     total cpu time spent up to now is       10.7 secs

     total energy              =      58.57229100 Ry
     Harris-Foulkes estimate   =     -85.52182149 Ry
     estimated scf accuracy    <      17.74433987 Ry

     iteration # 65     ecut=    30.00 Ry     beta=0.70
     Davidson diagonalization with overlap
     ethr =  1.00E-02,  avg # of iterations =  4.0

     negative rho (up, down):  9.555E-02 0.000E+00

     total cpu time spent up to now is       10.7 secs

     total energy              =     -42.92127435 Ry
     Harris-Foulkes estimate   =     -47.86215151 Ry
     estimated scf accuracy    <      24.09034387 Ry

     iteration # 66     ecut=    30.00 Ry     beta=0.70
     Davidson diagonalization with overlap
     ethr =  1.00E-02,  avg # of iterations =  1.0

     negative rho (up, down):  3.808E-01 0.000E+00

     total cpu time spent up to now is       10.8 secs

     total energy              =     -34.90600910 Ry
     Harris-Foulkes estimate   =     -42.96981000 Ry
     estimated scf accuracy    <      17.44168930 Ry

     iteration # 67     ecut=    30.00 Ry     beta=0.70
     Davidson diagonalization with overlap
     ethr =  1.00E-02,  avg # of iterations = 12.0

     negative rho (up, down):  2.820E-01 0.000E+00

     total cpu time spent up to now is       10.8 secs

     total energy              =      -7.38139224 Ry
     Harris-Foulkes estimate   =     -41.66151737 Ry
     estimated scf accuracy    <       4.30095575 Ry

     iteration # 68     ecut=    30.00 Ry     beta=0.70
     Davidson diagonalization with overlap
     ethr =  1.00E-02,  avg # of iterations =  4.0

     negative rho (up, down):  3.911E-01 0.000E+00

     total cpu time spent up to now is       10.8 secs

     total energy              =     -33.95296149 Ry
     Harris-Foulkes estimate   =     -35.82472622 Ry
     estimated scf accuracy    <       7.65828443 Ry

     iteration # 69     ecut=    30.00 Ry     beta=0.70
     Davidson diagonalization with overlap
     ethr =  1.00E-02,  avg # of iterations =  1.0

     negative rho (up, down):  9.947E-02 0.000E+00

     total cpu time spent up to now is       10.9 secs

     total energy              =     -34.61590557 Ry
     Harris-Foulkes estimate   =     -35.55060275 Ry
     estimated scf accuracy    <       9.09166980 Ry

     iteration # 70     ecut=    30.00 Ry     beta=0.70
     Davidson diagonalization with overlap
     ethr =  1.00E-02,  avg # of iterations =  1.0

     negative rho (up, down):  1.050E-01 0.000E+00

     total cpu time spent up to now is       10.9 secs

     total energy              =     -35.54842903 Ry
     Harris-Foulkes estimate   =     -34.62631877 Ry
     estimated scf accuracy    <       9.37189421 Ry

     iteration # 71     ecut=    30.00 Ry     beta=0.70
     Davidson diagonalization with overlap
     ethr =  1.00E-02,  avg # of iterations =  6.0

     negative rho (up, down):  6.683E-02 0.000E+00

     total cpu time spent up to now is       11.0 secs

     total energy              =      30.66824345 Ry
     Harris-Foulkes estimate   =    -161.78308419 Ry
     estimated scf accuracy    <      27.33069189 Ry

     iteration # 72     ecut=    30.00 Ry     beta=0.70
     Davidson diagonalization with overlap
     ethr =  1.00E-02,  avg # of iterations =  8.0

     negative rho (up, down):  3.581E-02 0.000E+00

     total cpu time spent up to now is       11.0 secs

     total energy              =      82.06556688 Ry
     Harris-Foulkes estimate   =    -228.73517434 Ry
     estimated scf accuracy    <      57.57510313 Ry

     iteration # 73     ecut=    30.00 Ry     beta=0.70
     Davidson diagonalization with overlap
     ethr =  1.00E-02,  avg # of iterations =  8.0

     negative rho (up, down):  2.246E-06 0.000E+00

     total cpu time spent up to now is       11.1 secs

     total energy              =      57.59071877 Ry
     Harris-Foulkes estimate   =     -99.50043679 Ry
     estimated scf accuracy    <      25.98686450 Ry

     iteration # 74     ecut=    30.00 Ry     beta=0.70
     Davidson diagonalization with overlap
     ethr =  1.00E-02,  avg # of iterations =  6.0

     negative rho (up, down):  8.100E-02 0.000E+00

     total cpu time spent up to now is       11.1 secs

     total energy              =     -38.98231269 Ry
     Harris-Foulkes estimate   =     -37.84541145 Ry
     estimated scf accuracy    <       9.33437625 Ry

     iteration # 75     ecut=    30.00 Ry     beta=0.70
     Davidson diagonalization with overlap
     ethr =  1.00E-02,  avg # of iterations =  6.0

     negative rho (up, down):  1.091E-02 0.000E+00

     total cpu time spent up to now is       11.2 secs

     total energy              =     -38.91690526 Ry
     Harris-Foulkes estimate   =     -41.09790814 Ry
     estimated scf accuracy    <      15.57907855 Ry

     iteration # 76     ecut=    30.00 Ry     beta=0.70
     Davidson diagonalization with overlap
     ethr =  1.00E-02,  avg # of iterations =  1.0

     negative rho (up, down):  4.921E-02 0.000E+00

     total cpu time spent up to now is       11.2 secs

     total energy              =     -35.25395703 Ry
     Harris-Foulkes estimate   =     -38.92318283 Ry
     estimated scf accuracy    <      12.84853359 Ry

     iteration # 77     ecut=    30.00 Ry     beta=0.70
     Davidson diagonalization with overlap
     ethr =  1.00E-02,  avg # of iterations =  9.0

     negative rho (up, down):  2.726E-04 0.000E+00

     total cpu time spent up to now is       11.3 secs

     total energy              =     100.38275336 Ry
     Harris-Foulkes estimate   =    -332.76324795 Ry
     estimated scf accuracy    <      55.94991844 Ry

     iteration # 78     ecut=    30.00 Ry     beta=0.70
     Davidson diagonalization with overlap
     ethr =  1.00E-02,  avg # of iterations = 10.0

     negative rho (up, down):  4.992E-03 0.000E+00

     total cpu time spent up to now is       11.3 secs

     total energy              =     -32.22601273 Ry
     Harris-Foulkes estimate   =     -35.36995060 Ry
     estimated scf accuracy    <       8.13418220 Ry

     iteration # 79     ecut=    30.00 Ry     beta=0.70
     Davidson diagonalization with overlap
     ethr =  1.00E-02,  avg # of iterations =  1.0

     negative rho (up, down):  5.060E-03 0.000E+00

     total cpu time spent up to now is       11.3 secs

     total energy              =     -34.13791481 Ry
     Harris-Foulkes estimate   =     -34.22490693 Ry
     estimated scf accuracy    <       8.13834655 Ry

     iteration # 80     ecut=    30.00 Ry     beta=0.70
     Davidson diagonalization with overlap
     ethr =  1.00E-02,  avg # of iterations =  1.0

     negative rho (up, down):  1.079E-02 0.000E+00

     total cpu time spent up to now is       11.4 secs

     total energy              =     -33.93655787 Ry
     Harris-Foulkes estimate   =     -34.13947661 Ry
     estimated scf accuracy    <       7.97530025 Ry

     iteration # 81     ecut=    30.00 Ry     beta=0.70
     Davidson diagonalization with overlap
     ethr =  1.00E-02,  avg # of iterations =  1.0

     negative rho (up, down):  1.279E-02 0.000E+00

     total cpu time spent up to now is       11.4 secs

     total energy              =     -34.06545338 Ry
     Harris-Foulkes estimate   =     -33.93760521 Ry
     estimated scf accuracy    <       7.53459912 Ry

     iteration # 82     ecut=    30.00 Ry     beta=0.70
     Davidson diagonalization with overlap
     ethr =  1.00E-02,  avg # of iterations =  7.0

     negative rho (up, down):  6.029E-01 0.000E+00

     total cpu time spent up to now is       11.5 secs

     total energy              =     -26.24585529 Ry
     Harris-Foulkes estimate   =     -47.80285349 Ry
     estimated scf accuracy    <      17.99281671 Ry

     iteration # 83     ecut=    30.00 Ry     beta=0.70
     Davidson diagonalization with overlap
     ethr =  1.00E-02,  avg # of iterations =  7.0

     negative rho (up, down):  2.089E-01 0.000E+00

     total cpu time spent up to now is       11.5 secs

     total energy              =    -230.38731031 Ry
     Harris-Foulkes estimate   =    -122.12755625 Ry
     estimated scf accuracy    <      57.57358355 Ry

     iteration # 84     ecut=    30.00 Ry     beta=0.70
     Davidson diagonalization with overlap
     ethr =  1.00E-02,  avg # of iterations =  9.0

     negative rho (up, down):  1.497E-01 0.000E+00

     total cpu time spent up to now is       11.6 secs

     total energy              =     -40.77722860 Ry
     Harris-Foulkes estimate   =    -846.70776609 Ry
     estimated scf accuracy    <      69.54471448 Ry

     iteration # 85     ecut=    30.00 Ry     beta=0.70
     Davidson diagonalization with overlap
     ethr =  1.00E-02,  avg # of iterations =  5.0

     negative rho (up, down):  9.488E-02 0.000E+00

     total cpu time spent up to now is       11.6 secs

     total energy              =      87.51964077 Ry
     Harris-Foulkes estimate   =    -566.02656282 Ry
     estimated scf accuracy    <      73.31532071 Ry

     iteration # 86     ecut=    30.00 Ry     beta=0.70
     Davidson diagonalization with overlap
     ethr =  1.00E-02,  avg # of iterations =  6.0

     negative rho (up, down):  1.503E-01 0.000E+00

     total cpu time spent up to now is       11.7 secs

     total energy              =     -54.26906488 Ry
     Harris-Foulkes estimate   =     -33.34977711 Ry
     estimated scf accuracy    <       8.93157351 Ry

     iteration # 87     ecut=    30.00 Ry     beta=0.70
     Davidson diagonalization with overlap
     ethr =  1.00E-02,  avg # of iterations =  4.0

     negative rho (up, down):  6.344E-01 0.000E+00

     total cpu time spent up to now is       11.7 secs

     total energy              =     -23.90463726 Ry
     Harris-Foulkes estimate   =    -441.36285978 Ry
     estimated scf accuracy    <      19.85215453 Ry

     iteration # 88     ecut=    30.00 Ry     beta=0.70
     Davidson diagonalization with overlap
     ethr =  1.00E-02,  avg # of iterations = 14.0

     negative rho (up, down):  7.256E-01 0.000E+00

     total cpu time spent up to now is       11.8 secs

     total energy              =   -3972.67205489 Ry
     Harris-Foulkes estimate   =    -246.51478777 Ry
     estimated scf accuracy    <      60.21678757 Ry

     iteration # 89     ecut=    30.00 Ry     beta=0.70
     Davidson diagonalization with overlap
     ethr =  1.00E-02,  avg # of iterations =  8.0

     negative rho (up, down):  7.294E-01 0.000E+00

     total cpu time spent up to now is       11.8 secs

     total energy              =     -58.61057892 Ry
     Harris-Foulkes estimate   =  -15070.48410416 Ry
     estimated scf accuracy    <      68.62723839 Ry

     iteration # 90     ecut=    30.00 Ry     beta=0.70
     Davidson diagonalization with overlap
     ethr =  1.00E-02,  avg # of iterations =  4.0

     negative rho (up, down):  9.724E-01 0.000E+00

     total cpu time spent up to now is       11.9 secs

     total energy              =     102.19296090 Ry
     Harris-Foulkes estimate   =   -1355.88736231 Ry
     estimated scf accuracy    <      65.51760526 Ry

     iteration # 91     ecut=    30.00 Ry     beta=0.70
     Davidson diagonalization with overlap
     ethr =  1.00E-02,  avg # of iterations =  9.0

     negative rho (up, down):  7.919E-01 0.000E+00

     total cpu time spent up to now is       11.9 secs

     total energy              =     -40.90497052 Ry
     Harris-Foulkes estimate   =    -610.23330926 Ry
     estimated scf accuracy    <      50.55947050 Ry

     iteration # 92     ecut=    30.00 Ry     beta=0.70
     Davidson diagonalization with overlap
     ethr =  1.00E-02,  avg # of iterations =  8.0

     negative rho (up, down):  1.403E+00 0.000E+00

     total cpu time spent up to now is       12.0 secs

     total energy              =    -259.57148999 Ry
     Harris-Foulkes estimate   =   -1347.68109921 Ry
     estimated scf accuracy    <      38.67575520 Ry

     iteration # 93     ecut=    30.00 Ry     beta=0.70
     Davidson diagonalization with overlap
     ethr =  1.00E-02,  avg # of iterations = 10.0

     negative rho (up, down):  8.254E-01 0.000E+00

     total cpu time spent up to now is       12.1 secs

     total energy              =     128.17549731 Ry
     Harris-Foulkes estimate   =   -6713.00825746 Ry
     estimated scf accuracy    <      40.40368331 Ry

     iteration # 94     ecut=    30.00 Ry     beta=0.70
     Davidson diagonalization with overlap
     ethr =  1.00E-02,  avg # of iterations = 11.0

     negative rho (up, down):  8.907E-01 0.000E+00

     total cpu time spent up to now is       12.1 secs

     total energy              =      10.23920723 Ry
     Harris-Foulkes estimate   =    -170.51243659 Ry
     estimated scf accuracy    <      55.32559727 Ry

     iteration # 95     ecut=    30.00 Ry     beta=0.70
     Davidson diagonalization with overlap
     ethr =  1.00E-02,  avg # of iterations =  8.0

     negative rho (up, down):  2.222E+00 0.000E+00

     total cpu time spent up to now is       12.2 secs

     total energy              =    -222.90737105 Ry
     Harris-Foulkes estimate   =   -1597.97421723 Ry
     estimated scf accuracy    <      54.31547067 Ry

     iteration # 96     ecut=    30.00 Ry     beta=0.70
     Davidson diagonalization with overlap
     ethr =  1.00E-02,  avg # of iterations =  6.0

     negative rho (up, down):  3.271E+00 0.000E+00

     total cpu time spent up to now is       12.2 secs

     total energy              =   15496.14696089 Ry
     Harris-Foulkes estimate   =   -2053.12315302 Ry
     estimated scf accuracy    <      39.73887182 Ry

     iteration # 97     ecut=    30.00 Ry     beta=0.70
     Davidson diagonalization with overlap
     ethr =  1.00E-02,  avg # of iterations = 15.0

     negative rho (up, down):  2.274E+00 0.000E+00

     total cpu time spent up to now is       12.3 secs

     total energy              =     135.81110314 Ry
     Harris-Foulkes estimate   =   -5195.01333713 Ry
     estimated scf accuracy    <      28.61589121 Ry

     iteration # 98     ecut=    30.00 Ry     beta=0.70
     Davidson diagonalization with overlap
     ethr =  1.00E-02,  avg # of iterations =  7.0

     negative rho (up, down):  8.278E-01 0.000E+00

     total cpu time spent up to now is       12.4 secs

     total energy              =     -15.63936624 Ry
     Harris-Foulkes estimate   =    -782.29820250 Ry
     estimated scf accuracy    <      30.76739795 Ry

     iteration # 99     ecut=    30.00 Ry     beta=0.70
     Davidson diagonalization with overlap
     ethr =  1.00E-02,  avg # of iterations =  7.0

     negative rho (up, down):  5.801E-01 0.000E+00

     total cpu time spent up to now is       12.4 secs

     total energy              =      94.26656121 Ry
     Harris-Foulkes estimate   =   -7271.79110277 Ry
     estimated scf accuracy    <      20.52472906 Ry

     iteration #100     ecut=    30.00 Ry     beta=0.70
     Davidson diagonalization with overlap
     ethr =  1.00E-02,  avg # of iterations =  5.0

     negative rho (up, down):  5.238E-01 0.000E+00

     total cpu time spent up to now is       12.5 secs

     total energy              =      88.93638219 Ry
     Harris-Foulkes estimate   =   -5290.21615012 Ry
     estimated scf accuracy    <      19.09364464 Ry

     End of self-consistent calculation

     convergence NOT achieved after 100 iterations: stopping

     Writing output data file pwscf.save
 
     init_run     :      0.09s CPU      0.11s WALL (       1 calls)
     electrons    :      9.37s CPU     11.52s WALL (       4 calls)
     update_pot   :      0.32s CPU      0.51s WALL (       3 calls)
     forces       :      0.08s CPU      0.08s WALL (       3 calls)

     Called by init_run:
     wfcinit      :      0.01s CPU      0.02s WALL (       1 calls)
     potinit      :      0.03s CPU      0.03s WALL (       1 calls)

     Called by electrons:
     c_bands      :      4.59s CPU      4.84s WALL (     263 calls)
     sum_band     :      0.78s CPU      0.83s WALL (     263 calls)
     v_of_rho     :      1.85s CPU      1.93s WALL (     267 calls)
     mix_rho      :      1.92s CPU      3.28s WALL (     263 calls)

     Called by c_bands:
     init_us_2    :      0.03s CPU      0.03s WALL (     527 calls)
     cegterg      :      4.53s CPU      4.71s WALL (     264 calls)

     Called by sum_band:

     Called by *egterg:
     h_psi        :      3.80s CPU      3.91s WALL (    1340 calls)
     g_psi        :      0.04s CPU      0.04s WALL (    1075 calls)
     cdiaghg      :      0.27s CPU      0.31s WALL (    1335 calls)

     Called by h_psi:
     h_psi:pot    :      3.78s CPU      3.89s WALL (    1340 calls)
     h_psi:calbec :      0.07s CPU      0.07s WALL (    1340 calls)
     vloc_psi     :      3.70s CPU      3.81s WALL (    1340 calls)
     add_vuspsi   :      0.01s CPU      0.01s WALL (    1340 calls)

     General routines
     calbec       :      0.08s CPU      0.09s WALL (    1354 calls)
     fft          :      1.20s CPU      1.25s WALL (    2943 calls)
     fftw         :      3.82s CPU      3.96s WALL (   17182 calls)
     davcio       :      0.28s CPU      1.18s WALL (    4917 calls)
 
     Parallel routines
     fft_scatter  :      1.92s CPU      2.05s WALL (   20125 calls)
 
     PWSCF        :    10.02s CPU        12.59s WALL

 
   This run was terminated on:   7:37: 2  14Feb2018            

=------------------------------------------------------------------------------=
   JOB DONE.
=------------------------------------------------------------------------------=
