
     Program PWSCF v.6.0 (svn rev. 13079) starts on 14Feb2018 at  7:42:23 

     This program is part of the open-source Quantum ESPRESSO suite
     for quantum simulation of materials; please cite
         "P. Giannozzi et al., J. Phys.:Condens. Matter 21 395502 (2009);
          URL http://www.quantum-espresso.org", 
     in publications or presentations arising from this work. More details at
     http://www.quantum-espresso.org/quote

     Parallel version (MPI), running on    28 processors
     R & G space division:  proc/nbgrp/npool/nimage =      28
     Reading input from inputs/MD-H2O-2/178.in

     Current dimensions of program PWSCF are:
     Max number of different atomic species (ntypx) = 10
     Max number of k-points (npk) =  40000
     Max angular momentum in pseudopotentials (lmaxx) =  3

     Subspace diagonalization in iterative solution of the eigenvalue problem:
     a serial algorithm will be used

 
     Parallelization info
     --------------------
     sticks:   dense  smooth     PW     G-vecs:    dense   smooth      PW
     Min         136     136     33                 6338     6338     787
     Max         137     137     34                 6341     6341     792
     Sum        3809    3809    949               177509   177509   22119
 


     bravais-lattice index     =            1
     lattice parameter (alat)  =      20.0000  a.u.
     unit-cell volume          =    8000.0000 (a.u.)^3
     number of atoms/cell      =            3
     number of atomic types    =            2
     number of electrons       =         8.00
     number of Kohn-Sham states=            8
     kinetic-energy cutoff     =      30.0000  Ry
     charge density cutoff     =     120.0000  Ry
     convergence threshold     =      1.0E-08
     mixing beta               =       0.7000
     number of iterations used =            8  plain     mixing
     Exchange-correlation      = BLYP ( 1  3  1  3 0 0)
     nstep                     =         5000


     celldm(1)=  20.000000  celldm(2)=   0.000000  celldm(3)=   0.000000
     celldm(4)=   0.000000  celldm(5)=   0.000000  celldm(6)=   0.000000

     crystal axes: (cart. coord. in units of alat)
               a(1) = (   1.000000   0.000000   0.000000 )  
               a(2) = (   0.000000   1.000000   0.000000 )  
               a(3) = (   0.000000   0.000000   1.000000 )  

     reciprocal axes: (cart. coord. in units 2 pi/alat)
               b(1) = (  1.000000  0.000000  0.000000 )  
               b(2) = (  0.000000  1.000000  0.000000 )  
               b(3) = (  0.000000  0.000000  1.000000 )  


     PseudoPot. # 1 for  H read from file:
     ./H.blyp-hgh.UPF
     MD5 check sum: c576e69559cde411e611be972c763230
     Pseudo is Norm-conserving, Zval =  1.0
     Generated in analytical, separable form
     Using radial grid of  929 points,  0 beta functions with: 

     PseudoPot. # 2 for  O read from file:
     ./O.blyp-hgh.UPF
     MD5 check sum: d0b7156309aa9befef28faac7bc56342
     Pseudo is Norm-conserving, Zval =  6.0
     Generated in analytical, separable form
     Using radial grid of 1095 points,  1 beta functions with: 
                l(1) =   0

     atomic species   valence    mass     pseudopotential
        H              1.00     1.01000      H( 1.00)
        O              6.00    16.00000      O( 1.00)

     No symmetry found



   Cartesian axes

     site n.     atom                  positions (alat units)
         1           H   tau(   1) = (   0.1375288   0.2697367   0.6655351  )
         2           H   tau(   2) = (   1.0971071   0.2962820   0.6342973  )
         3           O   tau(   3) = (   0.8103725   0.2563706   0.4649094  )

     number of k points=     1  Marzari-Vanderbilt smearing, width (Ry)=  0.0250
                       cart. coord. in units 2pi/alat
        k(    1) = (   0.0000000   0.0000000   0.0000000), wk =   2.0000000

     Dense  grid:   177509 G-vectors     FFT dimensions: (  72,  72,  72)

     Estimated max dynamical RAM per process >       6.09Mb

     Estimated total allocated dynamical RAM >     170.64Mb

     Initial potential from superposition of free atoms
     Check: negative starting charge=   -0.358942

     starting charge    7.99998, renormalised to    8.00000

     negative rho (up, down):  3.589E-01 0.000E+00
     Starting wfc are    6 randomized atomic wfcs +    2 random wfc

     total cpu time spent up to now is        0.2 secs

     per-process dynamical memory:    18.8 Mb

     Self-consistent Calculation

     iteration #  1     ecut=    30.00 Ry     beta=0.70
     Davidson diagonalization with overlap
     ethr =  1.00E-02,  avg # of iterations =  8.0

     negative rho (up, down):  9.473E-02 0.000E+00

     total cpu time spent up to now is        0.3 secs

     total energy              =     -31.57040388 Ry
     Harris-Foulkes estimate   =     -32.34872871 Ry
     estimated scf accuracy    <       0.82765586 Ry

     iteration #  2     ecut=    30.00 Ry     beta=0.70
     Davidson diagonalization with overlap
     ethr =  1.00E-02,  avg # of iterations =  2.0

     negative rho (up, down):  6.997E-02 0.000E+00

     total cpu time spent up to now is        0.3 secs

     total energy              =     -30.99612882 Ry
     Harris-Foulkes estimate   =     -31.89313099 Ry
     estimated scf accuracy    <       2.33046880 Ry

     iteration #  3     ecut=    30.00 Ry     beta=0.70
     Davidson diagonalization with overlap
     ethr =  1.00E-02,  avg # of iterations =  2.0

     negative rho (up, down):  2.019E-02 0.000E+00

     total cpu time spent up to now is        0.4 secs

     total energy              =     -31.91872579 Ry
     Harris-Foulkes estimate   =     -31.92908480 Ry
     estimated scf accuracy    <       0.16164343 Ry

     iteration #  4     ecut=    30.00 Ry     beta=0.70
     Davidson diagonalization with overlap
     ethr =  2.02E-03,  avg # of iterations =  1.0

     negative rho (up, down):  9.410E-03 0.000E+00

     total cpu time spent up to now is        0.4 secs

     total energy              =     -31.91085263 Ry
     Harris-Foulkes estimate   =     -31.92221400 Ry
     estimated scf accuracy    <       0.08150894 Ry

     iteration #  5     ecut=    30.00 Ry     beta=0.70
     Davidson diagonalization with overlap
     ethr =  1.02E-03,  avg # of iterations =  1.0

     negative rho (up, down):  2.736E-03 0.000E+00

     total cpu time spent up to now is        0.4 secs

     total energy              =     -31.90394922 Ry
     Harris-Foulkes estimate   =     -31.91372270 Ry
     estimated scf accuracy    <       0.05040266 Ry

     iteration #  6     ecut=    30.00 Ry     beta=0.70
     Davidson diagonalization with overlap
     ethr =  6.30E-04,  avg # of iterations =  3.0

     negative rho (up, down):  4.578E-06 0.000E+00

     total cpu time spent up to now is        0.4 secs

     total energy              =     -31.89263928 Ry
     Harris-Foulkes estimate   =     -31.90545568 Ry
     estimated scf accuracy    <       0.01888290 Ry

     iteration #  7     ecut=    30.00 Ry     beta=0.70
     Davidson diagonalization with overlap
     ethr =  2.36E-04,  avg # of iterations =  3.0

     negative rho (up, down):  5.698E-05 0.000E+00

     total cpu time spent up to now is        0.5 secs

     total energy              =     -31.89477159 Ry
     Harris-Foulkes estimate   =     -31.89501132 Ry
     estimated scf accuracy    <       0.00037999 Ry

     iteration #  8     ecut=    30.00 Ry     beta=0.70
     Davidson diagonalization with overlap
     c_bands:  1 eigenvalues not converged
     ethr =  4.75E-06,  avg # of iterations = 20.0

     negative rho (up, down):  3.528E-07 0.000E+00

     total cpu time spent up to now is        0.5 secs

     total energy              =     -31.89481371 Ry
     Harris-Foulkes estimate   =     -31.89483627 Ry
     estimated scf accuracy    <       0.00005625 Ry

     iteration #  9     ecut=    30.00 Ry     beta=0.70
     Davidson diagonalization with overlap
     ethr =  7.03E-07,  avg # of iterations =  5.0

     total cpu time spent up to now is        0.6 secs

     total energy              =     -31.89481526 Ry
     Harris-Foulkes estimate   =     -31.89481824 Ry
     estimated scf accuracy    <       0.00000161 Ry

     iteration # 10     ecut=    30.00 Ry     beta=0.70
     Davidson diagonalization with overlap
     ethr =  2.01E-08,  avg # of iterations =  2.0

     total cpu time spent up to now is        0.6 secs

     total energy              =     -31.89481417 Ry
     Harris-Foulkes estimate   =     -31.89481585 Ry
     estimated scf accuracy    <       0.00000143 Ry

     iteration # 11     ecut=    30.00 Ry     beta=0.70
     Davidson diagonalization with overlap
     ethr =  1.79E-08,  avg # of iterations =  2.0

     total cpu time spent up to now is        0.6 secs

     total energy              =     -31.89481401 Ry
     Harris-Foulkes estimate   =     -31.89481432 Ry
     estimated scf accuracy    <       0.00000012 Ry

     iteration # 12     ecut=    30.00 Ry     beta=0.70
     Davidson diagonalization with overlap
     ethr =  1.52E-09,  avg # of iterations =  2.0

     total cpu time spent up to now is        0.7 secs

     End of self-consistent calculation

          k = 0.0000 0.0000 0.0000 ( 22119 PWs)   bands (ev):

   -25.1099 -10.8436  -8.4135  -8.4132  -8.4128  -0.3312   0.5863   0.8774

     the Fermi energy is    -8.2901 ev

!    total energy              =     -31.89481399 Ry
     Harris-Foulkes estimate   =     -31.89481403 Ry
     estimated scf accuracy    <          2.7E-09 Ry

     convergence has been achieved in  12 iterations

     Forces acting on atoms (Ry/au):

     atom    1 type  1   force =     0.23093192   -0.15172829    0.17852388
     atom    2 type  1   force =    -0.23136735    0.15157050   -0.17863434
     atom    3 type  2   force =     0.00043543    0.00015779    0.00011047

     Total force =     0.465443     Total SCF correction =     0.000087

     Molecular Dynamics Calculation

     Starting temperature  =  1000.00 K

     temperature is controlled by Andersen thermostat
     Collision frequency = 1.0000/timestep
     mass H                =     1.01
     mass O                =    16.00
     Time step             =   100.00 a.u.,  4.8378 femto-seconds

     Entering Dynamics:    iteration =     1
                           time      =   0.0048 pico-seconds


     Andersen thermostat:    3 collisions

ATOMIC_POSITIONS (bohr)
H        4.236437188   4.847165337  14.082223758
H       20.692005275   6.977905795  11.526800241
O       16.192570893   5.095553994   9.322656765


     kinetic energy (Ekin) =     0.01319564 Ry
     temperature           =   694.47456190 K 
     Ekin + Etot (const)   =   -31.88161835 Ry

     Linear momentum :   -0.0000000000   -0.0000000000    0.0000000000

     Writing output data file pwscf.save
     Check: negative starting charge=   -0.358942
     NEW-OLD atomic charge density approx. for the potential
     Check: negative starting charge=   -0.348917

     negative rho (up, down):  1.205E-01 0.000E+00

     total cpu time spent up to now is        1.0 secs

     per-process dynamical memory:    20.4 Mb

     Self-consistent Calculation

     iteration #  1     ecut=    30.00 Ry     beta=0.70
     Davidson diagonalization with overlap
     ethr =  1.00E-06,  avg # of iterations = 19.0

     negative rho (up, down):  3.212E-02 0.000E+00

     total cpu time spent up to now is        1.2 secs

     total energy              =     -29.52075646 Ry
     Harris-Foulkes estimate   =     -31.83936586 Ry
     estimated scf accuracy    <       2.96856897 Ry

     iteration #  2     ecut=    30.00 Ry     beta=0.70
     Davidson diagonalization with overlap
     ethr =  1.00E-02,  avg # of iterations =  4.0

     negative rho (up, down):  2.909E-03 0.000E+00

     total cpu time spent up to now is        1.2 secs

     total energy              =     -31.33633809 Ry
     Harris-Foulkes estimate   =     -37.54830848 Ry
     estimated scf accuracy    <      19.87586545 Ry

     iteration #  3     ecut=    30.00 Ry     beta=0.70
     Davidson diagonalization with overlap
     ethr =  1.00E-02,  avg # of iterations =  7.0

     negative rho (up, down):  3.609E-03 0.000E+00

     total cpu time spent up to now is        1.2 secs

     total energy              =     -31.64089824 Ry
     Harris-Foulkes estimate   =     -32.12659696 Ry
     estimated scf accuracy    <       4.87900853 Ry

     iteration #  4     ecut=    30.00 Ry     beta=0.70
     Davidson diagonalization with overlap
     ethr =  1.00E-02,  avg # of iterations =  1.0

     negative rho (up, down):  1.432E-01 0.000E+00

     total cpu time spent up to now is        1.3 secs

     total energy              =     -30.48472942 Ry
     Harris-Foulkes estimate   =     -31.65147653 Ry
     estimated scf accuracy    <       3.97245445 Ry

     iteration #  5     ecut=    30.00 Ry     beta=0.70
     Davidson diagonalization with overlap
     ethr =  1.00E-02,  avg # of iterations =  1.0

     negative rho (up, down):  1.578E-01 0.000E+00

     total cpu time spent up to now is        1.3 secs

     total energy              =     -29.95071975 Ry
     Harris-Foulkes estimate   =     -30.55438360 Ry
     estimated scf accuracy    <       1.97331090 Ry

     iteration #  6     ecut=    30.00 Ry     beta=0.70
     Davidson diagonalization with overlap
     ethr =  1.00E-02,  avg # of iterations =  5.0

     negative rho (up, down):  7.512E-02 0.000E+00

     total cpu time spent up to now is        1.3 secs

     total energy              =     -32.93316528 Ry
     Harris-Foulkes estimate   =     -33.41362867 Ry
     estimated scf accuracy    <       5.85237164 Ry

     iteration #  7     ecut=    30.00 Ry     beta=0.70
     Davidson diagonalization with overlap
     ethr =  1.00E-02,  avg # of iterations =  1.0

     negative rho (up, down):  7.103E-04 0.000E+00

     total cpu time spent up to now is        1.4 secs

     total energy              =     -32.08183198 Ry
     Harris-Foulkes estimate   =     -32.94558250 Ry
     estimated scf accuracy    <       4.98117291 Ry

     iteration #  8     ecut=    30.00 Ry     beta=0.70
     Davidson diagonalization with overlap
     ethr =  1.00E-02,  avg # of iterations =  1.0

     negative rho (up, down):  9.447E-06 0.000E+00

     total cpu time spent up to now is        1.4 secs

     total energy              =     -31.96115858 Ry
     Harris-Foulkes estimate   =     -32.10299478 Ry
     estimated scf accuracy    <       3.44466583 Ry

     iteration #  9     ecut=    30.00 Ry     beta=0.70
     Davidson diagonalization with overlap
     ethr =  1.00E-02,  avg # of iterations =  1.0

     negative rho (up, down):  2.756E-04 0.000E+00

     total cpu time spent up to now is        1.4 secs

     total energy              =     -31.98321596 Ry
     Harris-Foulkes estimate   =     -31.96229671 Ry
     estimated scf accuracy    <       3.19230875 Ry

     iteration # 10     ecut=    30.00 Ry     beta=0.70
     Davidson diagonalization with overlap
     ethr =  1.00E-02,  avg # of iterations =  1.0

     negative rho (up, down):  2.430E-05 0.000E+00

     total cpu time spent up to now is        1.5 secs

     total energy              =     -31.60656879 Ry
     Harris-Foulkes estimate   =     -31.98325644 Ry
     estimated scf accuracy    <       3.22251659 Ry

     iteration # 11     ecut=    30.00 Ry     beta=0.70
     Davidson diagonalization with overlap
     ethr =  1.00E-02,  avg # of iterations =  1.0

     negative rho (up, down):  6.110E-04 0.000E+00

     total cpu time spent up to now is        1.5 secs

     total energy              =     -31.92962442 Ry
     Harris-Foulkes estimate   =     -31.63608703 Ry
     estimated scf accuracy    <       1.04706707 Ry

     iteration # 12     ecut=    30.00 Ry     beta=0.70
     Davidson diagonalization with overlap
     ethr =  1.00E-02,  avg # of iterations =  1.0

     negative rho (up, down):  1.484E-04 0.000E+00

     total cpu time spent up to now is        1.5 secs

     total energy              =     -31.87018030 Ry
     Harris-Foulkes estimate   =     -32.08142697 Ry
     estimated scf accuracy    <       3.35428970 Ry

     iteration # 13     ecut=    30.00 Ry     beta=0.70
     Davidson diagonalization with overlap
     ethr =  1.00E-02,  avg # of iterations =  1.0

     negative rho (up, down):  2.438E-04 0.000E+00

     total cpu time spent up to now is        1.6 secs

     total energy              =     -30.77036651 Ry
     Harris-Foulkes estimate   =     -31.87228102 Ry
     estimated scf accuracy    <       3.02481616 Ry

     iteration # 14     ecut=    30.00 Ry     beta=0.70
     Davidson diagonalization with overlap
     ethr =  1.00E-02,  avg # of iterations =  2.0

     negative rho (up, down):  5.262E-05 0.000E+00

     total cpu time spent up to now is        1.6 secs

     total energy              =     -34.30442679 Ry
     Harris-Foulkes estimate   =     -32.47698006 Ry
     estimated scf accuracy    <       5.13820016 Ry

     iteration # 15     ecut=    30.00 Ry     beta=0.70
     Davidson diagonalization with overlap
     ethr =  1.00E-02,  avg # of iterations =  4.0

     negative rho (up, down):  2.387E-05 0.000E+00

     total cpu time spent up to now is        1.6 secs

     total energy              =     -34.23775109 Ry
     Harris-Foulkes estimate   =     -34.78964599 Ry
     estimated scf accuracy    <      17.12744079 Ry

     iteration # 16     ecut=    30.00 Ry     beta=0.70
     Davidson diagonalization with overlap
     ethr =  1.00E-02,  avg # of iterations =  1.0

     negative rho (up, down):  1.970E-05 0.000E+00

     total cpu time spent up to now is        1.7 secs

     total energy              =     -34.04186488 Ry
     Harris-Foulkes estimate   =     -34.24531724 Ry
     estimated scf accuracy    <      16.20806001 Ry

     iteration # 17     ecut=    30.00 Ry     beta=0.70
     Davidson diagonalization with overlap
     ethr =  1.00E-02,  avg # of iterations =  1.0

     negative rho (up, down):  7.845E-03 0.000E+00

     total cpu time spent up to now is        1.7 secs

     total energy              =     -32.98880732 Ry
     Harris-Foulkes estimate   =     -34.04471529 Ry
     estimated scf accuracy    <      15.81531753 Ry

     iteration # 18     ecut=    30.00 Ry     beta=0.70
     Davidson diagonalization with overlap
     ethr =  1.00E-02,  avg # of iterations =  2.0

     negative rho (up, down):  1.279E-02 0.000E+00

     total cpu time spent up to now is        1.7 secs

     total energy              =     -31.48491880 Ry
     Harris-Foulkes estimate   =     -33.13463179 Ry
     estimated scf accuracy    <       7.24448435 Ry

     iteration # 19     ecut=    30.00 Ry     beta=0.70
     Davidson diagonalization with overlap
     ethr =  1.00E-02,  avg # of iterations =  4.0

     negative rho (up, down):  3.406E-02 0.000E+00

     total cpu time spent up to now is        1.8 secs

     total energy              =     -31.51408726 Ry
     Harris-Foulkes estimate   =     -31.68470921 Ry
     estimated scf accuracy    <       3.36920327 Ry

     iteration # 20     ecut=    30.00 Ry     beta=0.70
     Davidson diagonalization with overlap
     ethr =  1.00E-02,  avg # of iterations =  1.0

     negative rho (up, down):  1.264E-03 0.000E+00

     total cpu time spent up to now is        1.8 secs

     total energy              =     -31.74390478 Ry
     Harris-Foulkes estimate   =     -31.54476956 Ry
     estimated scf accuracy    <       0.70192173 Ry

     iteration # 21     ecut=    30.00 Ry     beta=0.70
     Davidson diagonalization with overlap
     ethr =  8.77E-03,  avg # of iterations =  1.0

     negative rho (up, down):  7.429E-02 0.000E+00

     total cpu time spent up to now is        1.9 secs

     total energy              =     -32.05475821 Ry
     Harris-Foulkes estimate   =     -31.94656923 Ry
     estimated scf accuracy    <       4.21615693 Ry

     iteration # 22     ecut=    30.00 Ry     beta=0.70
     Davidson diagonalization with overlap
     ethr =  8.77E-03,  avg # of iterations =  1.0

     negative rho (up, down):  3.398E-01 0.000E+00

     total cpu time spent up to now is        1.9 secs

     total energy              =     -30.69964216 Ry
     Harris-Foulkes estimate   =     -32.05762820 Ry
     estimated scf accuracy    <       4.47029805 Ry

     iteration # 23     ecut=    30.00 Ry     beta=0.70
     Davidson diagonalization with overlap
     ethr =  8.77E-03,  avg # of iterations =  5.0

     negative rho (up, down):  1.068E-01 0.000E+00

     total cpu time spent up to now is        1.9 secs

     total energy              =     -31.46623942 Ry
     Harris-Foulkes estimate   =     -32.22152511 Ry
     estimated scf accuracy    <       3.72401217 Ry

     iteration # 24     ecut=    30.00 Ry     beta=0.70
     Davidson diagonalization with overlap
     ethr =  8.77E-03,  avg # of iterations =  1.0

     negative rho (up, down):  5.381E-02 0.000E+00

     total cpu time spent up to now is        2.0 secs

     total energy              =     -31.60643152 Ry
     Harris-Foulkes estimate   =     -31.62105209 Ry
     estimated scf accuracy    <       0.49671509 Ry

     iteration # 25     ecut=    30.00 Ry     beta=0.70
     Davidson diagonalization with overlap
     ethr =  6.21E-03,  avg # of iterations =  1.0

     negative rho (up, down):  1.447E-03 0.000E+00

     total cpu time spent up to now is        2.0 secs

     total energy              =     -31.60328890 Ry
     Harris-Foulkes estimate   =     -31.63736269 Ry
     estimated scf accuracy    <       1.51496735 Ry

     iteration # 26     ecut=    30.00 Ry     beta=0.70
     Davidson diagonalization with overlap
     ethr =  6.21E-03,  avg # of iterations =  1.0

     negative rho (up, down):  1.613E-04 0.000E+00

     total cpu time spent up to now is        2.0 secs

     total energy              =     -31.57412059 Ry
     Harris-Foulkes estimate   =     -31.60957785 Ry
     estimated scf accuracy    <       0.69373829 Ry

     iteration # 27     ecut=    30.00 Ry     beta=0.70
     Davidson diagonalization with overlap
     ethr =  6.21E-03,  avg # of iterations =  1.0

     negative rho (up, down):  1.633E-03 0.000E+00

     total cpu time spent up to now is        2.1 secs

     total energy              =     -31.57367986 Ry
     Harris-Foulkes estimate   =     -31.58844688 Ry
     estimated scf accuracy    <       0.20544518 Ry

     iteration # 28     ecut=    30.00 Ry     beta=0.70
     Davidson diagonalization with overlap
     ethr =  2.57E-03,  avg # of iterations =  1.0

     negative rho (up, down):  4.640E-03 0.000E+00

     total cpu time spent up to now is        2.1 secs

     total energy              =     -31.57733159 Ry
     Harris-Foulkes estimate   =     -31.58793250 Ry
     estimated scf accuracy    <       0.37242840 Ry

     iteration # 29     ecut=    30.00 Ry     beta=0.70
     Davidson diagonalization with overlap
     ethr =  2.57E-03,  avg # of iterations =  1.0

     negative rho (up, down):  9.171E-03 0.000E+00

     total cpu time spent up to now is        2.2 secs

     total energy              =     -31.50119724 Ry
     Harris-Foulkes estimate   =     -31.58085330 Ry
     estimated scf accuracy    <       0.36922025 Ry

     iteration # 30     ecut=    30.00 Ry     beta=0.70
     Davidson diagonalization with overlap
     ethr =  2.57E-03,  avg # of iterations =  1.0

     negative rho (up, down):  3.063E-03 0.000E+00

     total cpu time spent up to now is        2.2 secs

     total energy              =     -31.52006237 Ry
     Harris-Foulkes estimate   =     -31.65660019 Ry
     estimated scf accuracy    <       1.51235586 Ry

     iteration # 31     ecut=    30.00 Ry     beta=0.70
     Davidson diagonalization with overlap
     ethr =  2.57E-03,  avg # of iterations =  1.0

     negative rho (up, down):  1.052E-03 0.000E+00

     total cpu time spent up to now is        2.2 secs

     total energy              =     -31.56967764 Ry
     Harris-Foulkes estimate   =     -31.57106647 Ry
     estimated scf accuracy    <       0.01386442 Ry

     iteration # 32     ecut=    30.00 Ry     beta=0.70
     Davidson diagonalization with overlap
     ethr =  1.73E-04,  avg # of iterations =  1.0

     negative rho (up, down):  3.688E-06 0.000E+00

     total cpu time spent up to now is        2.3 secs

     total energy              =     -31.55665063 Ry
     Harris-Foulkes estimate   =     -31.57391929 Ry
     estimated scf accuracy    <       0.13670564 Ry

     iteration # 33     ecut=    30.00 Ry     beta=0.70
     Davidson diagonalization with overlap
     ethr =  1.73E-04,  avg # of iterations =  1.0

     negative rho (up, down):  7.562E-07 0.000E+00

     total cpu time spent up to now is        2.3 secs

     total energy              =     -31.57508199 Ry
     Harris-Foulkes estimate   =     -31.57915948 Ry
     estimated scf accuracy    <       0.23660694 Ry

     iteration # 34     ecut=    30.00 Ry     beta=0.70
     Davidson diagonalization with overlap
     ethr =  1.73E-04,  avg # of iterations =  1.0

     negative rho (up, down):  4.075E-08 0.000E+00

     total cpu time spent up to now is        2.4 secs

     total energy              =     -31.57299938 Ry
     Harris-Foulkes estimate   =     -31.57567327 Ry
     estimated scf accuracy    <       0.15551290 Ry

     iteration # 35     ecut=    30.00 Ry     beta=0.70
     Davidson diagonalization with overlap
     ethr =  1.73E-04,  avg # of iterations =  1.0

     total cpu time spent up to now is        2.4 secs

     total energy              =     -31.57258902 Ry
     Harris-Foulkes estimate   =     -31.57331197 Ry
     estimated scf accuracy    <       0.09335678 Ry

     iteration # 36     ecut=    30.00 Ry     beta=0.70
     Davidson diagonalization with overlap
     ethr =  1.73E-04,  avg # of iterations =  1.0

     negative rho (up, down):  4.256E-07 0.000E+00

     total cpu time spent up to now is        2.4 secs

     total energy              =     -31.57225165 Ry
     Harris-Foulkes estimate   =     -31.57263121 Ry
     estimated scf accuracy    <       0.07615370 Ry

     iteration # 37     ecut=    30.00 Ry     beta=0.70
     Davidson diagonalization with overlap
     ethr =  1.73E-04,  avg # of iterations =  1.0

     negative rho (up, down):  3.198E-05 0.000E+00

     total cpu time spent up to now is        2.5 secs

     total energy              =     -31.56885314 Ry
     Harris-Foulkes estimate   =     -31.57226901 Ry
     estimated scf accuracy    <       0.06670255 Ry

     iteration # 38     ecut=    30.00 Ry     beta=0.70
     Davidson diagonalization with overlap
     ethr =  1.73E-04,  avg # of iterations =  1.0

     negative rho (up, down):  2.397E-06 0.000E+00

     total cpu time spent up to now is        2.5 secs

     total energy              =     -31.57025024 Ry
     Harris-Foulkes estimate   =     -31.57022774 Ry
     estimated scf accuracy    <       0.00141399 Ry

     iteration # 39     ecut=    30.00 Ry     beta=0.70
     Davidson diagonalization with overlap
     ethr =  1.77E-05,  avg # of iterations =  4.0

     negative rho (up, down):  5.484E-08 0.000E+00

     total cpu time spent up to now is        2.5 secs

     total energy              =     -31.57003852 Ry
     Harris-Foulkes estimate   =     -31.57026651 Ry
     estimated scf accuracy    <       0.00314025 Ry

     iteration # 40     ecut=    30.00 Ry     beta=0.70
     Davidson diagonalization with overlap
     ethr =  1.77E-05,  avg # of iterations =  1.0

     total cpu time spent up to now is        2.6 secs

     total energy              =     -31.57016951 Ry
     Harris-Foulkes estimate   =     -31.57018792 Ry
     estimated scf accuracy    <       0.00052716 Ry

     iteration # 41     ecut=    30.00 Ry     beta=0.70
     Davidson diagonalization with overlap
     ethr =  6.59E-06,  avg # of iterations =  1.0

     total cpu time spent up to now is        2.6 secs

     total energy              =     -31.57016396 Ry
     Harris-Foulkes estimate   =     -31.57017412 Ry
     estimated scf accuracy    <       0.00011677 Ry

     iteration # 42     ecut=    30.00 Ry     beta=0.70
     Davidson diagonalization with overlap
     ethr =  1.46E-06,  avg # of iterations =  3.0

     total cpu time spent up to now is        2.6 secs

     total energy              =     -31.57017022 Ry
     Harris-Foulkes estimate   =     -31.57017077 Ry
     estimated scf accuracy    <       0.00001506 Ry

     iteration # 43     ecut=    30.00 Ry     beta=0.70
     Davidson diagonalization with overlap
     ethr =  1.88E-07,  avg # of iterations =  1.0

     total cpu time spent up to now is        2.7 secs

     total energy              =     -31.57017104 Ry
     Harris-Foulkes estimate   =     -31.57017060 Ry
     estimated scf accuracy    <       0.00000020 Ry

     iteration # 44     ecut=    30.00 Ry     beta=0.70
     Davidson diagonalization with overlap
     ethr =  2.44E-09,  avg # of iterations =  1.0

     total cpu time spent up to now is        2.7 secs

     total energy              =     -31.57017109 Ry
     Harris-Foulkes estimate   =     -31.57017110 Ry
     estimated scf accuracy    <       0.00000078 Ry

     iteration # 45     ecut=    30.00 Ry     beta=0.70
     Davidson diagonalization with overlap
     ethr =  2.44E-09,  avg # of iterations =  1.0

     total cpu time spent up to now is        2.7 secs

     End of self-consistent calculation

          k = 0.0000 0.0000 0.0000 ( 22119 PWs)   bands (ev):

   -23.8912  -7.7531  -7.2710  -7.2708  -7.2026  -6.2394  -0.1868   0.5980

     the Fermi energy is    -7.1337 ev

!    total energy              =     -31.57017115 Ry
     Harris-Foulkes estimate   =     -31.57017112 Ry
     estimated scf accuracy    <          1.2E-09 Ry

     convergence has been achieved in  45 iterations

     Forces acting on atoms (Ry/au):

     atom    1 type  1   force =    -0.02879479    0.01713932   -0.02047643
     atom    2 type  1   force =     0.00441539   -0.02771939    0.00889590
     atom    3 type  2   force =     0.02437941    0.01058007    0.01158053

     Total force =     0.057005     Total SCF correction =     0.000027

     Entering Dynamics:    iteration =     2
                           time      =   0.0097 pico-seconds


     Andersen thermostat:    3 collisions

ATOMIC_POSITIONS (bohr)
H        3.976053909   5.209499102  14.004919597
H       20.803225947   6.522940219  11.799677361
O       16.201986783   5.101401377   9.310311222


     kinetic energy (Ekin) =     0.01392820 Ry
     temperature           =   733.02876039 K 
     Ekin + Etot (const)   =   -31.55624295 Ry
     Message from routine dynamics:
     Total linear momentum <> 0

     Linear momentum :   -0.0482643422    0.4839037204    0.0463385468

     Writing output data file pwscf.save

     first order wave-functions extrapolation
     Check: negative starting charge=   -0.348917
     first order charge density extrapolation
     Check: negative starting charge=   -0.351451

     negative rho (up, down):  3.346E-01 0.000E+00

     total cpu time spent up to now is        3.0 secs

     per-process dynamical memory:    20.4 Mb

     Self-consistent Calculation

     iteration #  1     ecut=    30.00 Ry     beta=0.70
     Davidson diagonalization with overlap
     ethr =  1.00E-06,  avg # of iterations = 11.0

     negative rho (up, down):  3.216E-02 0.000E+00

     total cpu time spent up to now is        3.2 secs

     total energy              =      83.30542299 Ry
     Harris-Foulkes estimate   =     -88.29784221 Ry
     estimated scf accuracy    <      63.53942873 Ry

     iteration #  2     ecut=    30.00 Ry     beta=0.70
     Davidson diagonalization with overlap
     ethr =  1.00E-02,  avg # of iterations =  7.0

     negative rho (up, down):  1.154E-02 0.000E+00

     total cpu time spent up to now is        3.2 secs

     total energy              =      -4.07638362 Ry
     Harris-Foulkes estimate   =    -205.12861951 Ry
     estimated scf accuracy    <      30.05898988 Ry

     iteration #  3     ecut=    30.00 Ry     beta=0.70
     Davidson diagonalization with overlap
     ethr =  1.00E-02,  avg # of iterations =  5.0

     negative rho (up, down):  1.165E-02 0.000E+00

     total cpu time spent up to now is        3.3 secs

     total energy              =     -39.98287798 Ry
     Harris-Foulkes estimate   =     -50.00717021 Ry
     estimated scf accuracy    <      26.66953705 Ry

     iteration #  4     ecut=    30.00 Ry     beta=0.70
     Davidson diagonalization with overlap
     ethr =  1.00E-02,  avg # of iterations =  3.0

     negative rho (up, down):  4.059E-02 0.000E+00

     total cpu time spent up to now is        3.3 secs

     total energy              =     -33.39980246 Ry
     Harris-Foulkes estimate   =     -40.18559667 Ry
     estimated scf accuracy    <      13.99901340 Ry

     iteration #  5     ecut=    30.00 Ry     beta=0.70
     Davidson diagonalization with overlap
     ethr =  1.00E-02,  avg # of iterations =  6.0

     negative rho (up, down):  1.980E-02 0.000E+00

     total cpu time spent up to now is        3.4 secs

     total energy              =     -32.36640539 Ry
     Harris-Foulkes estimate   =     -34.06423991 Ry
     estimated scf accuracy    <       1.33896000 Ry

     iteration #  6     ecut=    30.00 Ry     beta=0.70
     Davidson diagonalization with overlap
     ethr =  1.00E-02,  avg # of iterations =  4.0

     negative rho (up, down):  2.596E-02 0.000E+00

     total cpu time spent up to now is        3.4 secs

     total energy              =    -297.83268578 Ry
     Harris-Foulkes estimate   =     -47.30270085 Ry
     estimated scf accuracy    <       3.78648351 Ry

     iteration #  7     ecut=    30.00 Ry     beta=0.70
     Davidson diagonalization with overlap
     ethr =  1.00E-02,  avg # of iterations =  4.0

     negative rho (up, down):  1.902E-02 0.000E+00

     total cpu time spent up to now is        3.4 secs

     total energy              =      16.85624960 Ry
     Harris-Foulkes estimate   =    -693.21439761 Ry
     estimated scf accuracy    <      12.89284545 Ry

     iteration #  8     ecut=    30.00 Ry     beta=0.70
     Davidson diagonalization with overlap
     ethr =  1.00E-02,  avg # of iterations =  4.0

     negative rho (up, down):  5.273E-03 0.000E+00

     total cpu time spent up to now is        3.5 secs

     total energy              =     -32.16854073 Ry
     Harris-Foulkes estimate   =     -33.90548973 Ry
     estimated scf accuracy    <       5.46483635 Ry

     iteration #  9     ecut=    30.00 Ry     beta=0.70
     Davidson diagonalization with overlap
     ethr =  1.00E-02,  avg # of iterations =  4.0

     negative rho (up, down):  7.693E-03 0.000E+00

     total cpu time spent up to now is        3.5 secs

     total energy              =     -23.28624857 Ry
     Harris-Foulkes estimate   =     -57.98808088 Ry
     estimated scf accuracy    <       4.19071863 Ry

     iteration # 10     ecut=    30.00 Ry     beta=0.70
     Davidson diagonalization with overlap
     ethr =  1.00E-02,  avg # of iterations =  4.0

     negative rho (up, down):  2.313E-03 0.000E+00

     total cpu time spent up to now is        3.6 secs

     total energy              =     -46.45166686 Ry
     Harris-Foulkes estimate   =    -159.63441552 Ry
     estimated scf accuracy    <      16.85893395 Ry

     iteration # 11     ecut=    30.00 Ry     beta=0.70
     Davidson diagonalization with overlap
     ethr =  1.00E-02,  avg # of iterations =  4.0

     negative rho (up, down):  9.357E-03 0.000E+00

     total cpu time spent up to now is        3.6 secs

     total energy              =      -5.07016706 Ry
     Harris-Foulkes estimate   =    -142.12310982 Ry
     estimated scf accuracy    <      20.23812635 Ry

     iteration # 12     ecut=    30.00 Ry     beta=0.70
     Davidson diagonalization with overlap
     ethr =  1.00E-02,  avg # of iterations =  4.0

     negative rho (up, down):  1.400E-01 0.000E+00

     total cpu time spent up to now is        3.6 secs

     total energy              =    -156.55981701 Ry
     Harris-Foulkes estimate   =     -82.66512189 Ry
     estimated scf accuracy    <      20.52646191 Ry

     iteration # 13     ecut=    30.00 Ry     beta=0.70
     Davidson diagonalization with overlap
     ethr =  1.00E-02,  avg # of iterations =  4.0

     negative rho (up, down):  6.576E-02 0.000E+00

     total cpu time spent up to now is        3.7 secs

     total energy              =      52.28349353 Ry
     Harris-Foulkes estimate   =   -1168.78443036 Ry
     estimated scf accuracy    <      44.40899736 Ry

     iteration # 14     ecut=    30.00 Ry     beta=0.70
     Davidson diagonalization with overlap
     ethr =  1.00E-02,  avg # of iterations = 10.0

     negative rho (up, down):  6.306E-02 0.000E+00

     total cpu time spent up to now is        3.7 secs

     total energy              =     -32.83738672 Ry
     Harris-Foulkes estimate   =     -32.22809046 Ry
     estimated scf accuracy    <       1.63518340 Ry

     iteration # 15     ecut=    30.00 Ry     beta=0.70
     Davidson diagonalization with overlap
     ethr =  1.00E-02,  avg # of iterations =  5.0

     negative rho (up, down):  4.996E-04 0.000E+00

     total cpu time spent up to now is        3.8 secs

     total energy              =       2.93185201 Ry
     Harris-Foulkes estimate   =    -141.00869607 Ry
     estimated scf accuracy    <      18.63505364 Ry

     iteration # 16     ecut=    30.00 Ry     beta=0.70
     Davidson diagonalization with overlap
     ethr =  1.00E-02,  avg # of iterations =  5.0

     negative rho (up, down):  2.823E-02 0.000E+00

     total cpu time spent up to now is        3.8 secs

     total energy              =     -38.12296661 Ry
     Harris-Foulkes estimate   =     -32.06210546 Ry
     estimated scf accuracy    <       2.82641561 Ry

     iteration # 17     ecut=    30.00 Ry     beta=0.70
     Davidson diagonalization with overlap
     ethr =  1.00E-02,  avg # of iterations =  4.0

     negative rho (up, down):  1.625E-02 0.000E+00

     total cpu time spent up to now is        3.9 secs

     total energy              =      22.82886972 Ry
     Harris-Foulkes estimate   =   -1112.00939484 Ry
     estimated scf accuracy    <      34.04376922 Ry

     iteration # 18     ecut=    30.00 Ry     beta=0.70
     Davidson diagonalization with overlap
     ethr =  1.00E-02,  avg # of iterations =  7.0

     negative rho (up, down):  8.677E-03 0.000E+00

     total cpu time spent up to now is        3.9 secs

     total energy              =     354.99291726 Ry
     Harris-Foulkes estimate   =    -565.65519093 Ry
     estimated scf accuracy    <       9.19672080 Ry

     iteration # 19     ecut=    30.00 Ry     beta=0.70
     Davidson diagonalization with overlap
     ethr =  1.00E-02,  avg # of iterations =  4.0

     negative rho (up, down):  2.039E-02 0.000E+00

     total cpu time spent up to now is        4.0 secs

     total energy              =       4.63191513 Ry
     Harris-Foulkes estimate   =     -84.73342986 Ry
     estimated scf accuracy    <       5.45910091 Ry

     iteration # 20     ecut=    30.00 Ry     beta=0.70
     Davidson diagonalization with overlap
     ethr =  1.00E-02,  avg # of iterations =  4.0

     negative rho (up, down):  2.277E-02 0.000E+00

     total cpu time spent up to now is        4.0 secs

     total energy              =     -19.72143578 Ry
     Harris-Foulkes estimate   =     -41.16470753 Ry
     estimated scf accuracy    <       3.72868723 Ry

     iteration # 21     ecut=    30.00 Ry     beta=0.70
     Davidson diagonalization with overlap
     ethr =  1.00E-02,  avg # of iterations =  5.0

     negative rho (up, down):  3.067E-02 0.000E+00

     total cpu time spent up to now is        4.0 secs

     total energy              =     -31.78632657 Ry
     Harris-Foulkes estimate   =     -32.03388822 Ry
     estimated scf accuracy    <       0.53754169 Ry

     iteration # 22     ecut=    30.00 Ry     beta=0.70
     Davidson diagonalization with overlap
     ethr =  6.72E-03,  avg # of iterations =  2.0

     negative rho (up, down):  6.260E-03 0.000E+00

     total cpu time spent up to now is        4.1 secs

     total energy              =     -31.88596999 Ry
     Harris-Foulkes estimate   =     -31.90068017 Ry
     estimated scf accuracy    <       0.59233293 Ry

     iteration # 23     ecut=    30.00 Ry     beta=0.70
     Davidson diagonalization with overlap
     ethr =  6.72E-03,  avg # of iterations =  3.0

     negative rho (up, down):  9.103E-03 0.000E+00

     total cpu time spent up to now is        4.1 secs

     total energy              =     -25.98357792 Ry
     Harris-Foulkes estimate   =     -33.06265747 Ry
     estimated scf accuracy    <       1.14252731 Ry

     iteration # 24     ecut=    30.00 Ry     beta=0.70
     Davidson diagonalization with overlap
     ethr =  6.72E-03,  avg # of iterations =  4.0

     negative rho (up, down):  1.217E-05 0.000E+00

     total cpu time spent up to now is        4.2 secs

     total energy              =     -31.21703317 Ry
     Harris-Foulkes estimate   =     -32.07845973 Ry
     estimated scf accuracy    <       0.24661042 Ry

     iteration # 25     ecut=    30.00 Ry     beta=0.70
     Davidson diagonalization with overlap
     ethr =  3.08E-03,  avg # of iterations =  4.0

     negative rho (up, down):  8.184E-07 0.000E+00

     total cpu time spent up to now is        4.2 secs

     total energy              =     -31.81344860 Ry
     Harris-Foulkes estimate   =     -31.91914274 Ry
     estimated scf accuracy    <       2.57859176 Ry

     iteration # 26     ecut=    30.00 Ry     beta=0.70
     Davidson diagonalization with overlap
     ethr =  3.08E-03,  avg # of iterations =  1.0

     total cpu time spent up to now is        4.2 secs

     total energy              =     -31.76802309 Ry
     Harris-Foulkes estimate   =     -31.82202596 Ry
     estimated scf accuracy    <       1.58518439 Ry

     iteration # 27     ecut=    30.00 Ry     beta=0.70
     Davidson diagonalization with overlap
     ethr =  3.08E-03,  avg # of iterations =  1.0

     negative rho (up, down):  3.578E-07 0.000E+00

     total cpu time spent up to now is        4.3 secs

     total energy              =     -31.75411638 Ry
     Harris-Foulkes estimate   =     -31.77421936 Ry
     estimated scf accuracy    <       0.74934077 Ry

     iteration # 28     ecut=    30.00 Ry     beta=0.70
     Davidson diagonalization with overlap
     ethr =  3.08E-03,  avg # of iterations =  1.0

     negative rho (up, down):  7.235E-07 0.000E+00

     total cpu time spent up to now is        4.3 secs

     total energy              =     -31.73039887 Ry
     Harris-Foulkes estimate   =     -31.75533319 Ry
     estimated scf accuracy    <       0.76533749 Ry

     iteration # 29     ecut=    30.00 Ry     beta=0.70
     Davidson diagonalization with overlap
     ethr =  3.08E-03,  avg # of iterations =  1.0

     negative rho (up, down):  1.095E-07 0.000E+00

     total cpu time spent up to now is        4.3 secs

     total energy              =     -31.71431794 Ry
     Harris-Foulkes estimate   =     -31.73245463 Ry
     estimated scf accuracy    <       0.50798319 Ry

     iteration # 30     ecut=    30.00 Ry     beta=0.70
     Davidson diagonalization with overlap
     ethr =  3.08E-03,  avg # of iterations =  1.0

     negative rho (up, down):  6.838E-04 0.000E+00

     total cpu time spent up to now is        4.4 secs

     total energy              =     -31.69994965 Ry
     Harris-Foulkes estimate   =     -31.71818737 Ry
     estimated scf accuracy    <       0.28119141 Ry

     iteration # 31     ecut=    30.00 Ry     beta=0.70
     Davidson diagonalization with overlap
     ethr =  3.08E-03,  avg # of iterations =  2.0

     negative rho (up, down):  2.566E-03 0.000E+00

     total cpu time spent up to now is        4.4 secs

     total energy              =     -31.72386323 Ry
     Harris-Foulkes estimate   =     -31.71113529 Ry
     estimated scf accuracy    <       0.26779904 Ry

     iteration # 32     ecut=    30.00 Ry     beta=0.70
     Davidson diagonalization with overlap
     ethr =  3.08E-03,  avg # of iterations =  2.0

     negative rho (up, down):  6.518E-04 0.000E+00

     total cpu time spent up to now is        4.4 secs

     total energy              =     -31.59128060 Ry
     Harris-Foulkes estimate   =     -31.74535379 Ry
     estimated scf accuracy    <       0.24786158 Ry

     iteration # 33     ecut=    30.00 Ry     beta=0.70
     Davidson diagonalization with overlap
     ethr =  3.08E-03,  avg # of iterations =  2.0

     negative rho (up, down):  1.374E-05 0.000E+00

     total cpu time spent up to now is        4.5 secs

     total energy              =     -31.65344776 Ry
     Harris-Foulkes estimate   =     -31.66333436 Ry
     estimated scf accuracy    <       0.80649868 Ry

     iteration # 34     ecut=    30.00 Ry     beta=0.70
     Davidson diagonalization with overlap
     ethr =  3.08E-03,  avg # of iterations =  1.0

     negative rho (up, down):  7.318E-05 0.000E+00

     total cpu time spent up to now is        4.5 secs

     total energy              =     -31.62437156 Ry
     Harris-Foulkes estimate   =     -31.65637880 Ry
     estimated scf accuracy    <       1.05721605 Ry

     iteration # 35     ecut=    30.00 Ry     beta=0.70
     Davidson diagonalization with overlap
     ethr =  3.08E-03,  avg # of iterations =  1.0

     negative rho (up, down):  1.560E-06 0.000E+00

     total cpu time spent up to now is        4.5 secs

     total energy              =     -31.62364039 Ry
     Harris-Foulkes estimate   =     -31.64339333 Ry
     estimated scf accuracy    <       0.15723585 Ry

     iteration # 36     ecut=    30.00 Ry     beta=0.70
     Davidson diagonalization with overlap
     ethr =  1.97E-03,  avg # of iterations =  1.0

     negative rho (up, down):  5.189E-07 0.000E+00

     total cpu time spent up to now is        4.6 secs

     total energy              =     -31.62099366 Ry
     Harris-Foulkes estimate   =     -31.63115942 Ry
     estimated scf accuracy    <       0.48837928 Ry

     iteration # 37     ecut=    30.00 Ry     beta=0.70
     Davidson diagonalization with overlap
     ethr =  1.97E-03,  avg # of iterations =  1.0

     negative rho (up, down):  1.023E-07 0.000E+00

     total cpu time spent up to now is        4.6 secs

     total energy              =     -31.61947083 Ry
     Harris-Foulkes estimate   =     -31.62208621 Ry
     estimated scf accuracy    <       0.27879601 Ry

     iteration # 38     ecut=    30.00 Ry     beta=0.70
     Davidson diagonalization with overlap
     ethr =  1.97E-03,  avg # of iterations =  1.0

     negative rho (up, down):  1.522E-08 0.000E+00

     total cpu time spent up to now is        4.6 secs

     total energy              =     -31.61700212 Ry
     Harris-Foulkes estimate   =     -31.61967303 Ry
     estimated scf accuracy    <       0.20268352 Ry

     iteration # 39     ecut=    30.00 Ry     beta=0.70
     Davidson diagonalization with overlap
     ethr =  1.97E-03,  avg # of iterations =  1.0

     negative rho (up, down):  1.513E-08 0.000E+00

     total cpu time spent up to now is        4.7 secs

     total energy              =     -31.61518623 Ry
     Harris-Foulkes estimate   =     -31.61721117 Ry
     estimated scf accuracy    <       0.14277164 Ry

     iteration # 40     ecut=    30.00 Ry     beta=0.70
     Davidson diagonalization with overlap
     ethr =  1.78E-03,  avg # of iterations =  1.0

     negative rho (up, down):  3.121E-07 0.000E+00

     total cpu time spent up to now is        4.7 secs

     total energy              =     -31.60638406 Ry
     Harris-Foulkes estimate   =     -31.61534329 Ry
     estimated scf accuracy    <       0.10021725 Ry

     iteration # 41     ecut=    30.00 Ry     beta=0.70
     Davidson diagonalization with overlap
     ethr =  1.25E-03,  avg # of iterations =  1.0

     negative rho (up, down):  1.218E-08 0.000E+00

     total cpu time spent up to now is        4.7 secs

     total energy              =     -31.61187701 Ry
     Harris-Foulkes estimate   =     -31.61203423 Ry
     estimated scf accuracy    <       0.00348354 Ry

     iteration # 42     ecut=    30.00 Ry     beta=0.70
     Davidson diagonalization with overlap
     ethr =  4.35E-05,  avg # of iterations =  5.0

     total cpu time spent up to now is        4.8 secs

     total energy              =     -31.61217468 Ry
     Harris-Foulkes estimate   =     -31.61211168 Ry
     estimated scf accuracy    <       0.00043562 Ry

     iteration # 43     ecut=    30.00 Ry     beta=0.70
     Davidson diagonalization with overlap
     ethr =  5.45E-06,  avg # of iterations = 15.0

     total cpu time spent up to now is        4.8 secs

     total energy              =     -31.61217890 Ry
     Harris-Foulkes estimate   =     -31.61218893 Ry
     estimated scf accuracy    <       0.00032977 Ry

     iteration # 44     ecut=    30.00 Ry     beta=0.70
     Davidson diagonalization with overlap
     ethr =  4.12E-06,  avg # of iterations =  1.0

     total cpu time spent up to now is        4.8 secs

     total energy              =     -31.61218260 Ry
     Harris-Foulkes estimate   =     -31.61218491 Ry
     estimated scf accuracy    <       0.00007869 Ry

     iteration # 45     ecut=    30.00 Ry     beta=0.70
     Davidson diagonalization with overlap
     ethr =  9.84E-07,  avg # of iterations =  1.0

     total cpu time spent up to now is        4.9 secs

     total energy              =     -31.61217880 Ry
     Harris-Foulkes estimate   =     -31.61218339 Ry
     estimated scf accuracy    <       0.00003364 Ry

     iteration # 46     ecut=    30.00 Ry     beta=0.70
     Davidson diagonalization with overlap
     ethr =  4.21E-07,  avg # of iterations =  1.0

     total cpu time spent up to now is        4.9 secs

     total energy              =     -31.61218192 Ry
     Harris-Foulkes estimate   =     -31.61218150 Ry
     estimated scf accuracy    <       0.00000062 Ry

     iteration # 47     ecut=    30.00 Ry     beta=0.70
     Davidson diagonalization with overlap
     ethr =  7.73E-09,  avg # of iterations =  2.0

     total cpu time spent up to now is        4.9 secs

     total energy              =     -31.61218203 Ry
     Harris-Foulkes estimate   =     -31.61218202 Ry
     estimated scf accuracy    <       0.00000025 Ry

     iteration # 48     ecut=    30.00 Ry     beta=0.70
     Davidson diagonalization with overlap
     ethr =  3.11E-09,  avg # of iterations =  1.0

     total cpu time spent up to now is        5.0 secs

     total energy              =     -31.61218207 Ry
     Harris-Foulkes estimate   =     -31.61218205 Ry
     estimated scf accuracy    <       0.00000002 Ry

     iteration # 49     ecut=    30.00 Ry     beta=0.70
     Davidson diagonalization with overlap
     ethr =  2.00E-10,  avg # of iterations =  2.0

     total cpu time spent up to now is        5.0 secs

     End of self-consistent calculation

          k = 0.0000 0.0000 0.0000 ( 22119 PWs)   bands (ev):

   -24.0600  -7.9419  -7.4308  -7.4305  -7.3711  -5.6675  -0.2073   0.5994

     the Fermi energy is    -7.2952 ev

!    total energy              =     -31.61218205 Ry
     Harris-Foulkes estimate   =     -31.61218207 Ry
     estimated scf accuracy    <          1.9E-09 Ry

     convergence has been achieved in  49 iterations

     Forces acting on atoms (Ry/au):

     atom    1 type  1   force =    -0.05711476    0.02355264   -0.03963636
     atom    2 type  1   force =     0.04018095   -0.02919087    0.03066719
     atom    3 type  2   force =     0.01693381    0.00563823    0.00896917

     Total force =     0.095885     Total SCF correction =     0.000042

     Entering Dynamics:    iteration =     3
                           time      =   0.0145 pico-seconds


     Andersen thermostat:    3 collisions

ATOMIC_POSITIONS (bohr)
H        3.577230620   5.182631508  13.662798722
H       21.383067460   6.278397809  12.471764295
O       16.190560007   5.118534133   9.289482115


     kinetic energy (Ekin) =     0.02397907 Ry
     temperature           =  1261.99717192 K 
     Ekin + Etot (const)   =   -31.58820298 Ry
     Message from routine dynamics:
     Total linear momentum <> 0

     Linear momentum :    0.3047675616   -0.3500624036   -0.1369358232

     Writing output data file pwscf.save

     second order wave-functions extrapolation
     Check: negative starting charge=   -0.351451
     second order charge density extrapolation
     Check: negative starting charge=   -0.355049

     negative rho (up, down):  7.461E-02 0.000E+00

     total cpu time spent up to now is        5.4 secs

     per-process dynamical memory:    20.4 Mb

     Self-consistent Calculation

     iteration #  1     ecut=    30.00 Ry     beta=0.70
     Davidson diagonalization with overlap
     ethr =  1.00E-06,  avg # of iterations = 13.0

     negative rho (up, down):  1.166E-02 0.000E+00

     total cpu time spent up to now is        5.5 secs

     total energy              =      -0.34586666 Ry
     Harris-Foulkes estimate   =     -82.01407935 Ry
     estimated scf accuracy    <       8.22546676 Ry

     iteration #  2     ecut=    30.00 Ry     beta=0.70
     Davidson diagonalization with overlap
     ethr =  1.00E-02,  avg # of iterations =  5.0

     negative rho (up, down):  8.007E-03 0.000E+00

     total cpu time spent up to now is        5.6 secs

     total energy              =     -32.92708816 Ry
     Harris-Foulkes estimate   =     -39.81907858 Ry
     estimated scf accuracy    <      15.23086640 Ry

     iteration #  3     ecut=    30.00 Ry     beta=0.70
     Davidson diagonalization with overlap
     ethr =  1.00E-02,  avg # of iterations =  4.0

     negative rho (up, down):  5.512E-03 0.000E+00

     total cpu time spent up to now is        5.6 secs

     total energy              =     -31.38939500 Ry
     Harris-Foulkes estimate   =     -33.36308836 Ry
     estimated scf accuracy    <       5.43537402 Ry

     iteration #  4     ecut=    30.00 Ry     beta=0.70
     Davidson diagonalization with overlap
     ethr =  1.00E-02,  avg # of iterations =  4.0

     negative rho (up, down):  4.633E-03 0.000E+00

     total cpu time spent up to now is        5.7 secs

     total energy              =     -31.96105518 Ry
     Harris-Foulkes estimate   =     -32.28954631 Ry
     estimated scf accuracy    <       1.18910514 Ry

     iteration #  5     ecut=    30.00 Ry     beta=0.70
     Davidson diagonalization with overlap
     ethr =  1.00E-02,  avg # of iterations =  1.0

     negative rho (up, down):  1.522E-03 0.000E+00

     total cpu time spent up to now is        5.7 secs

     total energy              =     -31.15209360 Ry
     Harris-Foulkes estimate   =     -32.04258626 Ry
     estimated scf accuracy    <       2.35742206 Ry

     iteration #  6     ecut=    30.00 Ry     beta=0.70
     Davidson diagonalization with overlap
     ethr =  1.00E-02,  avg # of iterations =  1.0

     negative rho (up, down):  2.231E-03 0.000E+00

     total cpu time spent up to now is        5.7 secs

     total energy              =     -31.58504714 Ry
     Harris-Foulkes estimate   =     -31.90700834 Ry
     estimated scf accuracy    <       2.18942404 Ry

     iteration #  7     ecut=    30.00 Ry     beta=0.70
     Davidson diagonalization with overlap
     ethr =  1.00E-02,  avg # of iterations =  1.0

     negative rho (up, down):  2.201E-03 0.000E+00

     total cpu time spent up to now is        5.7 secs

     total energy              =     -31.82196729 Ry
     Harris-Foulkes estimate   =     -31.83121090 Ry
     estimated scf accuracy    <       0.25037634 Ry

     iteration #  8     ecut=    30.00 Ry     beta=0.70
     Davidson diagonalization with overlap
     ethr =  3.13E-03,  avg # of iterations =  1.0

     negative rho (up, down):  2.381E-03 0.000E+00

     total cpu time spent up to now is        5.8 secs

     total energy              =     -31.81514178 Ry
     Harris-Foulkes estimate   =     -31.82236071 Ry
     estimated scf accuracy    <       0.22583042 Ry

     iteration #  9     ecut=    30.00 Ry     beta=0.70
     Davidson diagonalization with overlap
     ethr =  2.82E-03,  avg # of iterations =  1.0

     negative rho (up, down):  2.231E-03 0.000E+00

     total cpu time spent up to now is        5.8 secs

     total energy              =     -31.80217208 Ry
     Harris-Foulkes estimate   =     -31.81707535 Ry
     estimated scf accuracy    <       0.22252142 Ry

     iteration # 10     ecut=    30.00 Ry     beta=0.70
     Davidson diagonalization with overlap
     ethr =  2.78E-03,  avg # of iterations =  1.0

     negative rho (up, down):  2.975E-04 0.000E+00

     total cpu time spent up to now is        5.8 secs

     total energy              =     -31.74432737 Ry
     Harris-Foulkes estimate   =     -31.80267174 Ry
     estimated scf accuracy    <       0.18595952 Ry

     iteration # 11     ecut=    30.00 Ry     beta=0.70
     Davidson diagonalization with overlap
     ethr =  2.32E-03,  avg # of iterations =  2.0

     negative rho (up, down):  8.191E-03 0.000E+00

     total cpu time spent up to now is        5.9 secs

     total energy              =     -32.98504844 Ry
     Harris-Foulkes estimate   =     -32.39370488 Ry
     estimated scf accuracy    <       4.33218247 Ry

     iteration # 12     ecut=    30.00 Ry     beta=0.70
     Davidson diagonalization with overlap
     ethr =  2.32E-03,  avg # of iterations =  1.0

     negative rho (up, down):  8.415E-05 0.000E+00

     total cpu time spent up to now is        5.9 secs

     total energy              =     -32.10886505 Ry
     Harris-Foulkes estimate   =     -32.99947020 Ry
     estimated scf accuracy    <       5.06925072 Ry

     iteration # 13     ecut=    30.00 Ry     beta=0.70
     Davidson diagonalization with overlap
     ethr =  2.32E-03,  avg # of iterations =  1.0

     negative rho (up, down):  8.782E-04 0.000E+00

     total cpu time spent up to now is        6.0 secs

     total energy              =     -30.94431423 Ry
     Harris-Foulkes estimate   =     -32.10632693 Ry
     estimated scf accuracy    <       3.79010571 Ry

     iteration # 14     ecut=    30.00 Ry     beta=0.70
     Davidson diagonalization with overlap
     ethr =  2.32E-03,  avg # of iterations =  5.0

     negative rho (up, down):  1.918E-04 0.000E+00

     total cpu time spent up to now is        6.0 secs

     total energy              =     -30.93282721 Ry
     Harris-Foulkes estimate   =     -31.90959216 Ry
     estimated scf accuracy    <       2.90797935 Ry

     iteration # 15     ecut=    30.00 Ry     beta=0.70
     Davidson diagonalization with overlap
     ethr =  2.32E-03,  avg # of iterations =  2.0

     negative rho (up, down):  3.005E-05 0.000E+00

     total cpu time spent up to now is        6.0 secs

     total energy              =     -31.39085186 Ry
     Harris-Foulkes estimate   =     -32.09014604 Ry
     estimated scf accuracy    <       3.85702371 Ry

     iteration # 16     ecut=    30.00 Ry     beta=0.70
     Davidson diagonalization with overlap
     ethr =  2.32E-03,  avg # of iterations =  2.0

     negative rho (up, down):  2.572E-05 0.000E+00

     total cpu time spent up to now is        6.1 secs

     total energy              =     -31.78565665 Ry
     Harris-Foulkes estimate   =     -31.77866989 Ry
     estimated scf accuracy    <       0.05990301 Ry

     iteration # 17     ecut=    30.00 Ry     beta=0.70
     Davidson diagonalization with overlap
     ethr =  7.49E-04,  avg # of iterations =  1.0

     negative rho (up, down):  2.872E-08 0.000E+00

     total cpu time spent up to now is        6.1 secs

     total energy              =     -31.78248966 Ry
     Harris-Foulkes estimate   =     -31.78715873 Ry
     estimated scf accuracy    <       0.06263816 Ry

     iteration # 18     ecut=    30.00 Ry     beta=0.70
     Davidson diagonalization with overlap
     ethr =  7.49E-04,  avg # of iterations =  1.0

     negative rho (up, down):  1.655E-07 0.000E+00

     total cpu time spent up to now is        6.1 secs

     total energy              =     -31.75058142 Ry
     Harris-Foulkes estimate   =     -31.78302877 Ry
     estimated scf accuracy    <       0.05256321 Ry

     iteration # 19     ecut=    30.00 Ry     beta=0.70
     Davidson diagonalization with overlap
     ethr =  6.57E-04,  avg # of iterations =  2.0

     negative rho (up, down):  2.270E-08 0.000E+00

     total cpu time spent up to now is        6.2 secs

     total energy              =     -31.76713978 Ry
     Harris-Foulkes estimate   =     -31.76278363 Ry
     estimated scf accuracy    <       0.38038708 Ry

     iteration # 20     ecut=    30.00 Ry     beta=0.70
     Davidson diagonalization with overlap
     ethr =  6.57E-04,  avg # of iterations =  1.0

     negative rho (up, down):  1.277E-07 0.000E+00

     total cpu time spent up to now is        6.2 secs

     total energy              =     -31.79837597 Ry
     Harris-Foulkes estimate   =     -31.76792444 Ry
     estimated scf accuracy    <       0.67226947 Ry

     iteration # 21     ecut=    30.00 Ry     beta=0.70
     Davidson diagonalization with overlap
     ethr =  6.57E-04,  avg # of iterations =  1.0

     negative rho (up, down):  2.419E-07 0.000E+00

     total cpu time spent up to now is        6.2 secs

     total energy              =     -31.23369382 Ry
     Harris-Foulkes estimate   =     -31.81795505 Ry
     estimated scf accuracy    <       2.94539868 Ry

     iteration # 22     ecut=    30.00 Ry     beta=0.70
     Davidson diagonalization with overlap
     ethr =  6.57E-04,  avg # of iterations =  3.0

     total cpu time spent up to now is        6.3 secs

     total energy              =     -31.77695946 Ry
     Harris-Foulkes estimate   =     -31.81498799 Ry
     estimated scf accuracy    <       0.14927327 Ry

     iteration # 23     ecut=    30.00 Ry     beta=0.70
     Davidson diagonalization with overlap
     ethr =  6.57E-04,  avg # of iterations =  1.0

     negative rho (up, down):  8.474E-05 0.000E+00

     total cpu time spent up to now is        6.3 secs

     total energy              =     -31.80783015 Ry
     Harris-Foulkes estimate   =     -31.78185568 Ry
     estimated scf accuracy    <       0.05384513 Ry

     iteration # 24     ecut=    30.00 Ry     beta=0.70
     Davidson diagonalization with overlap
     ethr =  6.57E-04,  avg # of iterations =  1.0

     negative rho (up, down):  2.685E-06 0.000E+00

     total cpu time spent up to now is        6.4 secs

     total energy              =     -31.84961603 Ry
     Harris-Foulkes estimate   =     -31.81166901 Ry
     estimated scf accuracy    <       0.11251125 Ry

     iteration # 25     ecut=    30.00 Ry     beta=0.70
     Davidson diagonalization with overlap
     ethr =  6.57E-04,  avg # of iterations =  1.0

     total cpu time spent up to now is        6.4 secs

     total energy              =     -31.77912824 Ry
     Harris-Foulkes estimate   =     -31.86412448 Ry
     estimated scf accuracy    <       0.91929999 Ry

     iteration # 26     ecut=    30.00 Ry     beta=0.70
     Davidson diagonalization with overlap
     ethr =  6.57E-04,  avg # of iterations =  1.0

     total cpu time spent up to now is        6.4 secs

     total energy              =     -31.80796990 Ry
     Harris-Foulkes estimate   =     -31.81646191 Ry
     estimated scf accuracy    <       0.12517889 Ry

     iteration # 27     ecut=    30.00 Ry     beta=0.70
     Davidson diagonalization with overlap
     ethr =  6.57E-04,  avg # of iterations =  1.0

     total cpu time spent up to now is        6.5 secs

     total energy              =     -31.80702863 Ry
     Harris-Foulkes estimate   =     -31.80837981 Ry
     estimated scf accuracy    <       0.10047354 Ry

     iteration # 28     ecut=    30.00 Ry     beta=0.70
     Davidson diagonalization with overlap
     ethr =  6.57E-04,  avg # of iterations =  1.0

     total cpu time spent up to now is        6.5 secs

     total energy              =     -31.79253014 Ry
     Harris-Foulkes estimate   =     -31.80705786 Ry
     estimated scf accuracy    <       0.09649149 Ry

     iteration # 29     ecut=    30.00 Ry     beta=0.70
     Davidson diagonalization with overlap
     ethr =  6.57E-04,  avg # of iterations =  1.0

     total cpu time spent up to now is        6.5 secs

     total energy              =     -31.78036861 Ry
     Harris-Foulkes estimate   =     -31.79313393 Ry
     estimated scf accuracy    <       0.06614981 Ry

     iteration # 30     ecut=    30.00 Ry     beta=0.70
     Davidson diagonalization with overlap
     ethr =  6.57E-04,  avg # of iterations =  1.0

     negative rho (up, down):  1.810E-06 0.000E+00

     total cpu time spent up to now is        6.6 secs

     total energy              =     -31.75355674 Ry
     Harris-Foulkes estimate   =     -31.78086918 Ry
     estimated scf accuracy    <       0.04318429 Ry

     iteration # 31     ecut=    30.00 Ry     beta=0.70
     Davidson diagonalization with overlap
     ethr =  5.40E-04,  avg # of iterations =  1.0

     negative rho (up, down):  9.691E-07 0.000E+00

     total cpu time spent up to now is        6.6 secs

     total energy              =     -31.75624371 Ry
     Harris-Foulkes estimate   =     -31.75730485 Ry
     estimated scf accuracy    <       0.01484602 Ry

     iteration # 32     ecut=    30.00 Ry     beta=0.70
     Davidson diagonalization with overlap
     ethr =  1.86E-04,  avg # of iterations =  3.0

     negative rho (up, down):  1.077E-06 0.000E+00

     total cpu time spent up to now is        6.6 secs

     total energy              =     -31.75580830 Ry
     Harris-Foulkes estimate   =     -31.75636697 Ry
     estimated scf accuracy    <       0.00936426 Ry

     iteration # 33     ecut=    30.00 Ry     beta=0.70
     Davidson diagonalization with overlap
     ethr =  1.17E-04,  avg # of iterations =  1.0

     negative rho (up, down):  2.357E-08 0.000E+00

     total cpu time spent up to now is        6.7 secs

     total energy              =     -31.75891867 Ry
     Harris-Foulkes estimate   =     -31.75598988 Ry
     estimated scf accuracy    <       0.00117179 Ry

     iteration # 34     ecut=    30.00 Ry     beta=0.70
     Davidson diagonalization with overlap
     ethr =  1.46E-05,  avg # of iterations =  3.0

     total cpu time spent up to now is        6.7 secs

     total energy              =     -31.76526622 Ry
     Harris-Foulkes estimate   =     -31.76184646 Ry
     estimated scf accuracy    <       0.00890550 Ry

     iteration # 35     ecut=    30.00 Ry     beta=0.70
     Davidson diagonalization with overlap
     ethr =  1.46E-05,  avg # of iterations =  2.0

     total cpu time spent up to now is        6.7 secs

     total energy              =     -31.76463340 Ry
     Harris-Foulkes estimate   =     -31.76546770 Ry
     estimated scf accuracy    <       0.01571141 Ry

     iteration # 36     ecut=    30.00 Ry     beta=0.70
     Davidson diagonalization with overlap
     ethr =  1.46E-05,  avg # of iterations =  1.0

     total cpu time spent up to now is        6.8 secs

     total energy              =     -31.76512610 Ry
     Harris-Foulkes estimate   =     -31.76464156 Ry
     estimated scf accuracy    <       0.01429230 Ry

     iteration # 37     ecut=    30.00 Ry     beta=0.70
     Davidson diagonalization with overlap
     ethr =  1.46E-05,  avg # of iterations =  1.0

     total cpu time spent up to now is        6.8 secs

     total energy              =     -31.76657374 Ry
     Harris-Foulkes estimate   =     -31.76512850 Ry
     estimated scf accuracy    <       0.01510476 Ry

     iteration # 38     ecut=    30.00 Ry     beta=0.70
     Davidson diagonalization with overlap
     ethr =  1.46E-05,  avg # of iterations =  1.0

     total cpu time spent up to now is        6.9 secs

     total energy              =     -31.76376985 Ry
     Harris-Foulkes estimate   =     -31.76659462 Ry
     estimated scf accuracy    <       0.01773575 Ry

     iteration # 39     ecut=    30.00 Ry     beta=0.70
     Davidson diagonalization with overlap
     ethr =  1.46E-05,  avg # of iterations =  1.0

     total cpu time spent up to now is        6.9 secs

     total energy              =     -31.76221592 Ry
     Harris-Foulkes estimate   =     -31.76384595 Ry
     estimated scf accuracy    <       0.01278697 Ry

     iteration # 40     ecut=    30.00 Ry     beta=0.70
     Davidson diagonalization with overlap
     ethr =  1.46E-05,  avg # of iterations =  1.0

     total cpu time spent up to now is        6.9 secs

     total energy              =     -31.75661164 Ry
     Harris-Foulkes estimate   =     -31.76226237 Ry
     estimated scf accuracy    <       0.00965401 Ry

     iteration # 41     ecut=    30.00 Ry     beta=0.70
     Davidson diagonalization with overlap
     ethr =  1.46E-05,  avg # of iterations =  6.0

     total cpu time spent up to now is        7.0 secs

     total energy              =     -31.75577626 Ry
     Harris-Foulkes estimate   =     -31.75587476 Ry
     estimated scf accuracy    <       0.00028931 Ry

     iteration # 42     ecut=    30.00 Ry     beta=0.70
     Davidson diagonalization with overlap
     ethr =  3.62E-06,  avg # of iterations = 10.0

     total cpu time spent up to now is        7.0 secs

     total energy              =     -31.75518436 Ry
     Harris-Foulkes estimate   =     -31.75612689 Ry
     estimated scf accuracy    <       0.00634857 Ry

     iteration # 43     ecut=    30.00 Ry     beta=0.70
     Davidson diagonalization with overlap
     ethr =  3.62E-06,  avg # of iterations =  1.0

     total cpu time spent up to now is        7.0 secs

     total energy              =     -31.75553684 Ry
     Harris-Foulkes estimate   =     -31.75629005 Ry
     estimated scf accuracy    <       0.01946965 Ry

     iteration # 44     ecut=    30.00 Ry     beta=0.70
     Davidson diagonalization with overlap
     ethr =  3.62E-06,  avg # of iterations =  1.0

     total cpu time spent up to now is        7.1 secs

     total energy              =     -31.75578465 Ry
     Harris-Foulkes estimate   =     -31.75587591 Ry
     estimated scf accuracy    <       0.00035086 Ry

     iteration # 45     ecut=    30.00 Ry     beta=0.70
     Davidson diagonalization with overlap
     ethr =  3.62E-06,  avg # of iterations =  1.0

     total cpu time spent up to now is        7.1 secs

     total energy              =     -31.75612499 Ry
     Harris-Foulkes estimate   =     -31.75602006 Ry
     estimated scf accuracy    <       0.00414162 Ry

     iteration # 46     ecut=    30.00 Ry     beta=0.70
     Davidson diagonalization with overlap
     ethr =  3.62E-06,  avg # of iterations =  1.0

     total cpu time spent up to now is        7.1 secs

     total energy              =     -31.75638982 Ry
     Harris-Foulkes estimate   =     -31.75613835 Ry
     estimated scf accuracy    <       0.00658039 Ry

     iteration # 47     ecut=    30.00 Ry     beta=0.70
     Davidson diagonalization with overlap
     ethr =  3.62E-06,  avg # of iterations =  1.0

     total cpu time spent up to now is        7.2 secs

     total energy              =     -31.75667582 Ry
     Harris-Foulkes estimate   =     -31.75642478 Ry
     estimated scf accuracy    <       0.01076823 Ry

     iteration # 48     ecut=    30.00 Ry     beta=0.70
     Davidson diagonalization with overlap
     ethr =  3.62E-06,  avg # of iterations =  1.0

     total cpu time spent up to now is        7.2 secs

     total energy              =     -31.75629011 Ry
     Harris-Foulkes estimate   =     -31.75668783 Ry
     estimated scf accuracy    <       0.01301271 Ry

     iteration # 49     ecut=    30.00 Ry     beta=0.70
     Davidson diagonalization with overlap
     ethr =  3.62E-06,  avg # of iterations =  1.0

     total cpu time spent up to now is        7.2 secs

     total energy              =     -31.75598116 Ry
     Harris-Foulkes estimate   =     -31.75631267 Ry
     estimated scf accuracy    <       0.00939901 Ry

     iteration # 50     ecut=    30.00 Ry     beta=0.70
     Davidson diagonalization with overlap
     ethr =  3.62E-06,  avg # of iterations =  1.0

     total cpu time spent up to now is        7.3 secs

     total energy              =     -31.75597419 Ry
     Harris-Foulkes estimate   =     -31.75602740 Ry
     estimated scf accuracy    <       0.00430982 Ry

     iteration # 51     ecut=    30.00 Ry     beta=0.70
     Davidson diagonalization with overlap
     ethr =  3.62E-06,  avg # of iterations =  1.0

     total cpu time spent up to now is        7.3 secs

     total energy              =     -31.75590989 Ry
     Harris-Foulkes estimate   =     -31.75597792 Ry
     estimated scf accuracy    <       0.00313514 Ry

     iteration # 52     ecut=    30.00 Ry     beta=0.70
     Davidson diagonalization with overlap
     ethr =  3.62E-06,  avg # of iterations =  1.0

     total cpu time spent up to now is        7.3 secs

     total energy              =     -31.75570832 Ry
     Harris-Foulkes estimate   =     -31.75591920 Ry
     estimated scf accuracy    <       0.00158337 Ry

     iteration # 53     ecut=    30.00 Ry     beta=0.70
     Davidson diagonalization with overlap
     ethr =  3.62E-06,  avg # of iterations =  1.0

     total cpu time spent up to now is        7.4 secs

     total energy              =     -31.75575833 Ry
     Harris-Foulkes estimate   =     -31.75595077 Ry
     estimated scf accuracy    <       0.00337227 Ry

     iteration # 54     ecut=    30.00 Ry     beta=0.70
     Davidson diagonalization with overlap
     ethr =  3.62E-06,  avg # of iterations =  1.0

     total cpu time spent up to now is        7.4 secs

     total energy              =     -31.75586665 Ry
     Harris-Foulkes estimate   =     -31.75586794 Ry
     estimated scf accuracy    <       0.00004113 Ry

     iteration # 55     ecut=    30.00 Ry     beta=0.70
     Davidson diagonalization with overlap
     ethr =  5.14E-07,  avg # of iterations =  1.0

     total cpu time spent up to now is        7.5 secs

     total energy              =     -31.75586706 Ry
     Harris-Foulkes estimate   =     -31.75586693 Ry
     estimated scf accuracy    <       0.00001387 Ry

     iteration # 56     ecut=    30.00 Ry     beta=0.70
     Davidson diagonalization with overlap
     ethr =  1.73E-07,  avg # of iterations =  1.0

     total cpu time spent up to now is        7.5 secs

     total energy              =     -31.75586646 Ry
     Harris-Foulkes estimate   =     -31.75586714 Ry
     estimated scf accuracy    <       0.00002742 Ry

     iteration # 57     ecut=    30.00 Ry     beta=0.70
     Davidson diagonalization with overlap
     ethr =  1.73E-07,  avg # of iterations =  1.0

     total cpu time spent up to now is        7.5 secs

     total energy              =     -31.75586659 Ry
     Harris-Foulkes estimate   =     -31.75586660 Ry
     estimated scf accuracy    <       0.00000916 Ry

     iteration # 58     ecut=    30.00 Ry     beta=0.70
     Davidson diagonalization with overlap
     ethr =  1.15E-07,  avg # of iterations =  1.0

     total cpu time spent up to now is        7.6 secs

     total energy              =     -31.75586644 Ry
     Harris-Foulkes estimate   =     -31.75586659 Ry
     estimated scf accuracy    <       0.00000837 Ry

     iteration # 59     ecut=    30.00 Ry     beta=0.70
     Davidson diagonalization with overlap
     ethr =  1.05E-07,  avg # of iterations =  1.0

     total cpu time spent up to now is        7.6 secs

     total energy              =     -31.75586608 Ry
     Harris-Foulkes estimate   =     -31.75586646 Ry
     estimated scf accuracy    <       0.00000426 Ry

     iteration # 60     ecut=    30.00 Ry     beta=0.70
     Davidson diagonalization with overlap
     ethr =  5.32E-08,  avg # of iterations =  1.0

     total cpu time spent up to now is        7.6 secs

     total energy              =     -31.75586628 Ry
     Harris-Foulkes estimate   =     -31.75586633 Ry
     estimated scf accuracy    <       0.00000087 Ry

     iteration # 61     ecut=    30.00 Ry     beta=0.70
     Davidson diagonalization with overlap
     ethr =  1.09E-08,  avg # of iterations =  1.0

     total cpu time spent up to now is        7.7 secs

     End of self-consistent calculation

          k = 0.0000 0.0000 0.0000 ( 22119 PWs)   bands (ev):

   -24.7470  -8.3571  -8.0739  -8.0739  -8.0312  -3.1191  -0.2711   0.6792

     the Fermi energy is    -7.9473 ev

!    total energy              =     -31.75586631 Ry
     Harris-Foulkes estimate   =     -31.75586630 Ry
     estimated scf accuracy    <          6.1E-09 Ry

     convergence has been achieved in  61 iterations

     Forces acting on atoms (Ry/au):

     atom    1 type  1   force =    -0.12324483    0.06135030   -0.06711227
     atom    2 type  1   force =     0.11849807   -0.06256321    0.06418712
     atom    3 type  2   force =     0.00474676    0.00121291    0.00292516

     Total force =     0.213461     Total SCF correction =     0.000021

     Entering Dynamics:    iteration =     4
                           time      =   0.0194 pico-seconds


     Andersen thermostat:    3 collisions

ATOMIC_POSITIONS (bohr)
H        2.226843166   5.712942002  12.842815447
H       22.473471117   5.263956146  12.973526340
O       16.206971485   5.149094913   9.309569830


     kinetic energy (Ekin) =     0.07384558 Ry
     temperature           =  3886.42677775 K 
     Ekin + Etot (const)   =   -31.68202073 Ry
     Message from routine dynamics:
     Total linear momentum <> 0

     Linear momentum :    0.6585480540    0.4524520681   -0.2987964083

     Writing output data file pwscf.save

     second order wave-functions extrapolation
     Check: negative starting charge=   -0.355049
     second order charge density extrapolation
     Check: negative starting charge=   -0.359501

     negative rho (up, down):  1.872E-01 0.000E+00

     total cpu time spent up to now is        8.0 secs

     per-process dynamical memory:    20.4 Mb

     Self-consistent Calculation

     iteration #  1     ecut=    30.00 Ry     beta=0.70
     Davidson diagonalization with overlap
     ethr =  1.00E-06,  avg # of iterations = 12.0

     negative rho (up, down):  3.095E-02 0.000E+00

     total cpu time spent up to now is        8.1 secs

     total energy              =      44.49909103 Ry
     Harris-Foulkes estimate   =    -115.25228493 Ry
     estimated scf accuracy    <      28.50556774 Ry

     iteration #  2     ecut=    30.00 Ry     beta=0.70
     Davidson diagonalization with overlap
     ethr =  1.00E-02,  avg # of iterations =  7.0

     negative rho (up, down):  2.019E-02 0.000E+00

     total cpu time spent up to now is        8.2 secs

     total energy              =     -35.05113883 Ry
     Harris-Foulkes estimate   =     -52.67758477 Ry
     estimated scf accuracy    <      34.96069304 Ry

     iteration #  3     ecut=    30.00 Ry     beta=0.70
     Davidson diagonalization with overlap
     ethr =  1.00E-02,  avg # of iterations =  6.0

     negative rho (up, down):  1.272E-02 0.000E+00

     total cpu time spent up to now is        8.2 secs

     total energy              =     -29.95469021 Ry
     Harris-Foulkes estimate   =     -35.74894674 Ry
     estimated scf accuracy    <      12.46929015 Ry

     iteration #  4     ecut=    30.00 Ry     beta=0.70
     Davidson diagonalization with overlap
     ethr =  1.00E-02,  avg # of iterations =  2.0

     negative rho (up, down):  1.137E-02 0.000E+00

[...]
     Harris-Foulkes estimate   =   -1999.68972988 Ry
     estimated scf accuracy    <      22.11477374 Ry

     iteration # 59     ecut=    30.00 Ry     beta=0.70
     Davidson diagonalization with overlap
     ethr =  1.00E-02,  avg # of iterations =  6.0

     negative rho (up, down):  5.629E-02 0.000E+00

     total cpu time spent up to now is       13.0 secs

     total energy              =     136.32502710 Ry
     Harris-Foulkes estimate   =    -790.40607101 Ry
     estimated scf accuracy    <      35.73449038 Ry

     iteration # 60     ecut=    30.00 Ry     beta=0.70
     Davidson diagonalization with overlap
     ethr =  1.00E-02,  avg # of iterations =  9.0

     negative rho (up, down):  4.146E-02 0.000E+00

     total cpu time spent up to now is       13.1 secs

     total energy              =      91.53384572 Ry
     Harris-Foulkes estimate   =   -1309.31645509 Ry
     estimated scf accuracy    <      20.97873530 Ry

     iteration # 61     ecut=    30.00 Ry     beta=0.70
     Davidson diagonalization with overlap
     ethr =  1.00E-02,  avg # of iterations =  7.0

     negative rho (up, down):  3.029E-02 0.000E+00

     total cpu time spent up to now is       13.1 secs

     total energy              =     -27.25558380 Ry
     Harris-Foulkes estimate   =    -582.38985175 Ry
     estimated scf accuracy    <      46.65001022 Ry

     iteration # 62     ecut=    30.00 Ry     beta=0.70
     Davidson diagonalization with overlap
     ethr =  1.00E-02,  avg # of iterations =  5.0

     negative rho (up, down):  1.419E-01 0.000E+00

     total cpu time spent up to now is       13.2 secs

     total energy              =      21.49138136 Ry
     Harris-Foulkes estimate   =    -761.27532795 Ry
     estimated scf accuracy    <      19.46928041 Ry

     iteration # 63     ecut=    30.00 Ry     beta=0.70
     Davidson diagonalization with overlap
     ethr =  1.00E-02,  avg # of iterations =  8.0

     negative rho (up, down):  2.576E-01 0.000E+00

     total cpu time spent up to now is       13.2 secs

     total energy              =     115.83105332 Ry
     Harris-Foulkes estimate   =   -2948.95330557 Ry
     estimated scf accuracy    <      23.57389298 Ry

     iteration # 64     ecut=    30.00 Ry     beta=0.70
     Davidson diagonalization with overlap
     ethr =  1.00E-02,  avg # of iterations =  9.0

     negative rho (up, down):  1.199E-01 0.000E+00

     total cpu time spent up to now is       13.3 secs

     total energy              =     101.32959517 Ry
     Harris-Foulkes estimate   =    -445.49207666 Ry
     estimated scf accuracy    <      25.52235318 Ry

     iteration # 65     ecut=    30.00 Ry     beta=0.70
     Davidson diagonalization with overlap
     ethr =  1.00E-02,  avg # of iterations =  9.0

     negative rho (up, down):  2.614E-01 0.000E+00

     total cpu time spent up to now is       13.3 secs

     total energy              =    -156.07787254 Ry
     Harris-Foulkes estimate   =    -260.94788495 Ry
     estimated scf accuracy    <      18.87945341 Ry

     iteration # 66     ecut=    30.00 Ry     beta=0.70
     Davidson diagonalization with overlap
     ethr =  1.00E-02,  avg # of iterations =  9.0

     negative rho (up, down):  2.920E-01 0.000E+00

     total cpu time spent up to now is       13.4 secs

     total energy              =   -1346.28362804 Ry
     Harris-Foulkes estimate   =    -522.55535534 Ry
     estimated scf accuracy    <      27.07696589 Ry

     iteration # 67     ecut=    30.00 Ry     beta=0.70
     Davidson diagonalization with overlap
     ethr =  1.00E-02,  avg # of iterations =  4.0

     negative rho (up, down):  2.907E-01 0.000E+00

     total cpu time spent up to now is       13.4 secs

     total energy              =    -912.85269430 Ry
     Harris-Foulkes estimate   =   -9334.39800156 Ry
     estimated scf accuracy    <      25.75317742 Ry

     iteration # 68     ecut=    30.00 Ry     beta=0.70
     Davidson diagonalization with overlap
     ethr =  1.00E-02,  avg # of iterations = 10.0

     negative rho (up, down):  6.583E-02 0.000E+00

     total cpu time spent up to now is       13.5 secs

     total energy              =     -12.19889999 Ry
     Harris-Foulkes estimate   =   -1141.07155787 Ry
     estimated scf accuracy    <      29.74649244 Ry

     iteration # 69     ecut=    30.00 Ry     beta=0.70
     Davidson diagonalization with overlap
     ethr =  1.00E-02,  avg # of iterations =  6.0

     negative rho (up, down):  9.482E-02 0.000E+00

     total cpu time spent up to now is       13.5 secs

     total energy              =     -63.77127404 Ry
     Harris-Foulkes estimate   =     -68.09346898 Ry
     estimated scf accuracy    <      49.84692302 Ry

     iteration # 70     ecut=    30.00 Ry     beta=0.70
     Davidson diagonalization with overlap
     ethr =  1.00E-02,  avg # of iterations =  7.0

     negative rho (up, down):  2.003E-02 0.000E+00

     total cpu time spent up to now is       13.6 secs

     total energy              =     137.93218568 Ry
     Harris-Foulkes estimate   =   -1797.98882582 Ry
     estimated scf accuracy    <      35.70722392 Ry

     iteration # 71     ecut=    30.00 Ry     beta=0.70
     Davidson diagonalization with overlap
     ethr =  1.00E-02,  avg # of iterations =  4.0

     negative rho (up, down):  2.286E-01 0.000E+00

     total cpu time spent up to now is       13.6 secs

     total energy              =     -65.39318915 Ry
     Harris-Foulkes estimate   =     -66.16768967 Ry
     estimated scf accuracy    <      47.11826627 Ry

     iteration # 72     ecut=    30.00 Ry     beta=0.70
     Davidson diagonalization with overlap
     ethr =  1.00E-02,  avg # of iterations =  7.0

     negative rho (up, down):  1.346E-01 0.000E+00

     total cpu time spent up to now is       13.7 secs

     total energy              =     120.97506435 Ry
     Harris-Foulkes estimate   =   -1715.99426144 Ry
     estimated scf accuracy    <      24.25760338 Ry

     iteration # 73     ecut=    30.00 Ry     beta=0.70
     Davidson diagonalization with overlap
     ethr =  1.00E-02,  avg # of iterations =  9.0

     negative rho (up, down):  8.479E-02 0.000E+00

     total cpu time spent up to now is       13.7 secs

     total energy              =      78.49566800 Ry
     Harris-Foulkes estimate   =    -428.79130013 Ry
     estimated scf accuracy    <      16.31160997 Ry

     iteration # 74     ecut=    30.00 Ry     beta=0.70
     Davidson diagonalization with overlap
     ethr =  1.00E-02,  avg # of iterations = 10.0

     negative rho (up, down):  1.081E-02 0.000E+00

     total cpu time spent up to now is       13.8 secs

     total energy              =     108.36782402 Ry
     Harris-Foulkes estimate   =    -155.86167703 Ry
     estimated scf accuracy    <      27.74560641 Ry

     iteration # 75     ecut=    30.00 Ry     beta=0.70
     Davidson diagonalization with overlap
     ethr =  1.00E-02,  avg # of iterations =  5.0

     negative rho (up, down):  1.393E-05 0.000E+00

     total cpu time spent up to now is       13.8 secs

     total energy              =      47.95366366 Ry
     Harris-Foulkes estimate   =   -1429.03334512 Ry
     estimated scf accuracy    <      17.58855060 Ry

     iteration # 76     ecut=    30.00 Ry     beta=0.70
     Davidson diagonalization with overlap
     ethr =  1.00E-02,  avg # of iterations =  6.0

     negative rho (up, down):  3.433E-02 0.000E+00

     total cpu time spent up to now is       13.9 secs

     total energy              =     -57.87667144 Ry
     Harris-Foulkes estimate   =     -60.51874409 Ry
     estimated scf accuracy    <      40.25934764 Ry

     iteration # 77     ecut=    30.00 Ry     beta=0.70
     Davidson diagonalization with overlap
     ethr =  1.00E-02,  avg # of iterations =  1.0

     negative rho (up, down):  2.265E-02 0.000E+00

     total cpu time spent up to now is       13.9 secs

     total energy              =     -53.38548734 Ry
     Harris-Foulkes estimate   =     -57.88445915 Ry
     estimated scf accuracy    <      36.85421437 Ry

     iteration # 78     ecut=    30.00 Ry     beta=0.70
     Davidson diagonalization with overlap
     ethr =  1.00E-02,  avg # of iterations =  1.0

     negative rho (up, down):  6.514E-02 0.000E+00

     total cpu time spent up to now is       14.0 secs

     total energy              =     -49.48959392 Ry
     Harris-Foulkes estimate   =     -53.40604741 Ry
     estimated scf accuracy    <      31.10504481 Ry

     iteration # 79     ecut=    30.00 Ry     beta=0.70
     Davidson diagonalization with overlap
     ethr =  1.00E-02,  avg # of iterations =  7.0

     negative rho (up, down):  1.710E+00 0.000E+00

     total cpu time spent up to now is       14.0 secs

     total energy              =      -9.19976828 Ry
     Harris-Foulkes estimate   =    -659.56153194 Ry
     estimated scf accuracy    <      29.27916441 Ry

     iteration # 80     ecut=    30.00 Ry     beta=0.70
     Davidson diagonalization with overlap
     ethr =  1.00E-02,  avg # of iterations =  9.0

     negative rho (up, down):  1.929E+00 0.000E+00

     total cpu time spent up to now is       14.1 secs

     total energy              =     -51.71133719 Ry
     Harris-Foulkes estimate   =    -796.29160646 Ry
     estimated scf accuracy    <      50.36268891 Ry

     iteration # 81     ecut=    30.00 Ry     beta=0.70
     Davidson diagonalization with overlap
     ethr =  1.00E-02,  avg # of iterations =  7.0

     negative rho (up, down):  5.754E-02 0.000E+00

     total cpu time spent up to now is       14.1 secs

     total energy              =     146.45112603 Ry
     Harris-Foulkes estimate   =   -1475.42980158 Ry
     estimated scf accuracy    <      47.43053411 Ry

     iteration # 82     ecut=    30.00 Ry     beta=0.70
     Davidson diagonalization with overlap
     ethr =  1.00E-02,  avg # of iterations = 11.0

     negative rho (up, down):  5.585E-02 0.000E+00

     total cpu time spent up to now is       14.2 secs

     total energy              =     -11.80416972 Ry
     Harris-Foulkes estimate   =    -277.51522976 Ry
     estimated scf accuracy    <      23.40480176 Ry

     iteration # 83     ecut=    30.00 Ry     beta=0.70
     Davidson diagonalization with overlap
     ethr =  1.00E-02,  avg # of iterations =  6.0

     negative rho (up, down):  1.650E-01 0.000E+00

     total cpu time spent up to now is       14.2 secs

     total energy              =     -52.87812424 Ry
     Harris-Foulkes estimate   =     -62.07114364 Ry
     estimated scf accuracy    <      41.80125623 Ry

     iteration # 84     ecut=    30.00 Ry     beta=0.70
     Davidson diagonalization with overlap
     ethr =  1.00E-02,  avg # of iterations =  6.0

     negative rho (up, down):  7.747E-02 0.000E+00

     total cpu time spent up to now is       14.3 secs

     total energy              =     293.94028877 Ry
     Harris-Foulkes estimate   =    -609.95294307 Ry
     estimated scf accuracy    <      32.53671648 Ry

     iteration # 85     ecut=    30.00 Ry     beta=0.70
     Davidson diagonalization with overlap
     ethr =  1.00E-02,  avg # of iterations =  5.0

     negative rho (up, down):  8.125E-02 0.000E+00

     total cpu time spent up to now is       14.3 secs

     total energy              =      64.84977521 Ry
     Harris-Foulkes estimate   =   -1164.17885864 Ry
     estimated scf accuracy    <      46.42293741 Ry

     iteration # 86     ecut=    30.00 Ry     beta=0.70
     Davidson diagonalization with overlap
     ethr =  1.00E-02,  avg # of iterations =  9.0

     negative rho (up, down):  1.193E-01 0.000E+00

     total cpu time spent up to now is       14.4 secs

     total energy              =    -288.08750382 Ry
     Harris-Foulkes estimate   =    -203.41000969 Ry
     estimated scf accuracy    <      20.82142681 Ry

     iteration # 87     ecut=    30.00 Ry     beta=0.70
     Davidson diagonalization with overlap
     ethr =  1.00E-02,  avg # of iterations =  4.0

     negative rho (up, down):  6.466E-02 0.000E+00

     total cpu time spent up to now is       14.4 secs

     total energy              =      36.44724529 Ry
     Harris-Foulkes estimate   =    -685.41676688 Ry
     estimated scf accuracy    <      17.36077969 Ry

     iteration # 88     ecut=    30.00 Ry     beta=0.70
     Davidson diagonalization with overlap
     ethr =  1.00E-02,  avg # of iterations =  7.0

     negative rho (up, down):  6.192E-02 0.000E+00

     total cpu time spent up to now is       14.5 secs

     total energy              =      10.49592727 Ry
     Harris-Foulkes estimate   =    -119.45253609 Ry
     estimated scf accuracy    <      15.82364150 Ry

     iteration # 89     ecut=    30.00 Ry     beta=0.70
     Davidson diagonalization with overlap
     ethr =  1.00E-02,  avg # of iterations =  6.0

     negative rho (up, down):  5.458E-02 0.000E+00

     total cpu time spent up to now is       14.5 secs

     total energy              =    -159.16448512 Ry
     Harris-Foulkes estimate   =    -421.75116248 Ry
     estimated scf accuracy    <      41.04867059 Ry

     iteration # 90     ecut=    30.00 Ry     beta=0.70
     Davidson diagonalization with overlap
     ethr =  1.00E-02,  avg # of iterations =  7.0

     negative rho (up, down):  1.491E-01 0.000E+00

     total cpu time spent up to now is       14.6 secs

     total energy              =     127.13203837 Ry
     Harris-Foulkes estimate   =   -1285.35453540 Ry
     estimated scf accuracy    <      45.17136112 Ry

     iteration # 91     ecut=    30.00 Ry     beta=0.70
     Davidson diagonalization with overlap
     ethr =  1.00E-02,  avg # of iterations =  4.0

     negative rho (up, down):  2.941E-01 0.000E+00

     total cpu time spent up to now is       14.6 secs

     total energy              =      -5.55662436 Ry
     Harris-Foulkes estimate   =    -147.58984726 Ry
     estimated scf accuracy    <      15.74272839 Ry

     iteration # 92     ecut=    30.00 Ry     beta=0.70
     Davidson diagonalization with overlap
     ethr =  1.00E-02,  avg # of iterations =  7.0

     negative rho (up, down):  3.623E-01 0.000E+00

     total cpu time spent up to now is       14.7 secs

     total energy              =      75.03505081 Ry
     Harris-Foulkes estimate   =    -263.73603693 Ry
     estimated scf accuracy    <      16.88729049 Ry

     iteration # 93     ecut=    30.00 Ry     beta=0.70
     Davidson diagonalization with overlap
     ethr =  1.00E-02,  avg # of iterations = 12.0

     negative rho (up, down):  1.914E-01 0.000E+00

     total cpu time spent up to now is       14.7 secs

     total energy              =     -32.73384718 Ry
     Harris-Foulkes estimate   =     -54.48267713 Ry
     estimated scf accuracy    <       9.90864824 Ry

     iteration # 94     ecut=    30.00 Ry     beta=0.70
     Davidson diagonalization with overlap
     ethr =  1.00E-02,  avg # of iterations =  6.0

     negative rho (up, down):  2.686E-01 0.000E+00

     total cpu time spent up to now is       14.8 secs

     total energy              =     -47.95215818 Ry
     Harris-Foulkes estimate   =    -520.85127004 Ry
     estimated scf accuracy    <      45.42537609 Ry

     iteration # 95     ecut=    30.00 Ry     beta=0.70
     Davidson diagonalization with overlap
     ethr =  1.00E-02,  avg # of iterations =  6.0

     negative rho (up, down):  1.825E-08 0.000E+00

     total cpu time spent up to now is       14.8 secs

     total energy              =     135.47256533 Ry
     Harris-Foulkes estimate   =    -643.09349611 Ry
     estimated scf accuracy    <      32.00026400 Ry

     iteration # 96     ecut=    30.00 Ry     beta=0.70
     Davidson diagonalization with overlap
     ethr =  1.00E-02,  avg # of iterations =  9.0

     negative rho (up, down):  6.070E-04 0.000E+00

     total cpu time spent up to now is       14.9 secs

     total energy              =     -45.91389915 Ry
     Harris-Foulkes estimate   =     -48.14280507 Ry
     estimated scf accuracy    <      24.78540232 Ry

     iteration # 97     ecut=    30.00 Ry     beta=0.70
     Davidson diagonalization with overlap
     ethr =  1.00E-02,  avg # of iterations =  1.0

     negative rho (up, down):  5.299E-01 0.000E+00

     total cpu time spent up to now is       14.9 secs

     total energy              =     -42.47068255 Ry
     Harris-Foulkes estimate   =     -45.92897075 Ry
     estimated scf accuracy    <      21.80678691 Ry

     iteration # 98     ecut=    30.00 Ry     beta=0.70
     Davidson diagonalization with overlap
     ethr =  1.00E-02,  avg # of iterations =  8.0

     negative rho (up, down):  4.076E-01 0.000E+00

     total cpu time spent up to now is       15.0 secs

     total energy              =     -25.14846758 Ry
     Harris-Foulkes estimate   =   -1034.57507943 Ry
     estimated scf accuracy    <      41.71513875 Ry

     iteration # 99     ecut=    30.00 Ry     beta=0.70
     Davidson diagonalization with overlap
     ethr =  1.00E-02,  avg # of iterations = 13.0

     negative rho (up, down):  1.081E-01 0.000E+00

     total cpu time spent up to now is       15.0 secs

     total energy              =      58.68213090 Ry
     Harris-Foulkes estimate   =    -364.38680212 Ry
     estimated scf accuracy    <      25.42873590 Ry

     iteration #100     ecut=    30.00 Ry     beta=0.70
     Davidson diagonalization with overlap
     ethr =  1.00E-02,  avg # of iterations =  7.0

     negative rho (up, down):  8.191E-02 0.000E+00

     total cpu time spent up to now is       15.1 secs

     total energy              =      57.11128307 Ry
     Harris-Foulkes estimate   =    -105.89190757 Ry
     estimated scf accuracy    <      19.58707888 Ry

     End of self-consistent calculation

     convergence NOT achieved after 100 iterations: stopping

     Writing output data file pwscf.save
 
     init_run     :      0.09s CPU      0.11s WALL (       1 calls)
     electrons    :     10.92s CPU     13.43s WALL (       6 calls)
     update_pot   :      0.61s CPU      0.96s WALL (       5 calls)
     forces       :      0.13s CPU      0.14s WALL (       5 calls)

     Called by init_run:
     wfcinit      :      0.01s CPU      0.02s WALL (       1 calls)
     potinit      :      0.02s CPU      0.03s WALL (       1 calls)

     Called by electrons:
     c_bands      :      5.38s CPU      5.67s WALL (     295 calls)
     sum_band     :      0.86s CPU      0.92s WALL (     295 calls)
     v_of_rho     :      2.13s CPU      2.26s WALL (     301 calls)
     mix_rho      :      2.12s CPU      3.55s WALL (     295 calls)

     Called by c_bands:
     init_us_2    :      0.03s CPU      0.03s WALL (     591 calls)
     cegterg      :      5.32s CPU      5.52s WALL (     295 calls)

     Called by sum_band:

     Called by *egterg:
     h_psi        :      4.44s CPU      4.61s WALL (    1549 calls)
     g_psi        :      0.05s CPU      0.05s WALL (    1253 calls)
     cdiaghg      :      0.34s CPU      0.35s WALL (    1543 calls)

     Called by h_psi:
     h_psi:pot    :      4.41s CPU      4.58s WALL (    1549 calls)
     h_psi:calbec :      0.07s CPU      0.15s WALL (    1549 calls)
     vloc_psi     :      4.32s CPU      4.41s WALL (    1549 calls)
     add_vuspsi   :      0.01s CPU      0.01s WALL (    1549 calls)

     General routines
     calbec       :      0.10s CPU      0.19s WALL (    1573 calls)
     fft          :      1.51s CPU      1.65s WALL (    3321 calls)
     fftw         :      4.45s CPU      4.58s WALL (   19618 calls)
     davcio       :      0.33s CPU      1.24s WALL (    5379 calls)
 
     Parallel routines
     fft_scatter  :      2.32s CPU      2.50s WALL (   22939 calls)
 
     PWSCF        :    11.97s CPU        15.22s WALL

 
   This run was terminated on:   7:42:39  14Feb2018            

=------------------------------------------------------------------------------=
   JOB DONE.
=------------------------------------------------------------------------------=
