
     Program PWSCF v.6.0 (svn rev. 13079) starts on 14Feb2018 at  7:42:39 

     This program is part of the open-source Quantum ESPRESSO suite
     for quantum simulation of materials; please cite
         "P. Giannozzi et al., J. Phys.:Condens. Matter 21 395502 (2009);
          URL http://www.quantum-espresso.org", 
     in publications or presentations arising from this work. More details at
     http://www.quantum-espresso.org/quote

     Parallel version (MPI), running on    28 processors
     R & G space division:  proc/nbgrp/npool/nimage =      28
     Reading input from inputs/MD-H2O-2/179.in

     Current dimensions of program PWSCF are:
     Max number of different atomic species (ntypx) = 10
     Max number of k-points (npk) =  40000
     Max angular momentum in pseudopotentials (lmaxx) =  3

     Subspace diagonalization in iterative solution of the eigenvalue problem:
     a serial algorithm will be used

 
     Parallelization info
     --------------------
     sticks:   dense  smooth     PW     G-vecs:    dense   smooth      PW
     Min         136     136     33                 6338     6338     787
     Max         137     137     34                 6341     6341     792
     Sum        3809    3809    949               177509   177509   22119
 


     bravais-lattice index     =            1
     lattice parameter (alat)  =      20.0000  a.u.
     unit-cell volume          =    8000.0000 (a.u.)^3
     number of atoms/cell      =            3
     number of atomic types    =            2
     number of electrons       =         8.00
     number of Kohn-Sham states=            8
     kinetic-energy cutoff     =      30.0000  Ry
     charge density cutoff     =     120.0000  Ry
     convergence threshold     =      1.0E-08
     mixing beta               =       0.7000
     number of iterations used =            8  plain     mixing
     Exchange-correlation      = BLYP ( 1  3  1  3 0 0)
     nstep                     =         5000


     celldm(1)=  20.000000  celldm(2)=   0.000000  celldm(3)=   0.000000
     celldm(4)=   0.000000  celldm(5)=   0.000000  celldm(6)=   0.000000

     crystal axes: (cart. coord. in units of alat)
               a(1) = (   1.000000   0.000000   0.000000 )  
               a(2) = (   0.000000   1.000000   0.000000 )  
               a(3) = (   0.000000   0.000000   1.000000 )  

     reciprocal axes: (cart. coord. in units 2 pi/alat)
               b(1) = (  1.000000  0.000000  0.000000 )  
               b(2) = (  0.000000  1.000000  0.000000 )  
               b(3) = (  0.000000  0.000000  1.000000 )  


     PseudoPot. # 1 for  H read from file:
     ./H.blyp-hgh.UPF
     MD5 check sum: c576e69559cde411e611be972c763230
     Pseudo is Norm-conserving, Zval =  1.0
     Generated in analytical, separable form
     Using radial grid of  929 points,  0 beta functions with: 

     PseudoPot. # 2 for  O read from file:
     ./O.blyp-hgh.UPF
     MD5 check sum: d0b7156309aa9befef28faac7bc56342
     Pseudo is Norm-conserving, Zval =  6.0
     Generated in analytical, separable form
     Using radial grid of 1095 points,  1 beta functions with: 
                l(1) =   0

     atomic species   valence    mass     pseudopotential
        H              1.00     1.01000      H( 1.00)
        O              6.00    16.00000      O( 1.00)

     No symmetry found



   Cartesian axes

     site n.     atom                  positions (alat units)
         1           H   tau(   1) = (   0.0994328   0.7292389   0.1031441  )
         2           H   tau(   2) = (   0.2764602   0.3205849   0.9272246  )
         3           O   tau(   3) = (   0.3111186   0.2661032   0.8515948  )

     number of k points=     1  Marzari-Vanderbilt smearing, width (Ry)=  0.0250
                       cart. coord. in units 2pi/alat
        k(    1) = (   0.0000000   0.0000000   0.0000000), wk =   2.0000000

     Dense  grid:   177509 G-vectors     FFT dimensions: (  72,  72,  72)

     Estimated max dynamical RAM per process >       6.09Mb

     Estimated total allocated dynamical RAM >     170.64Mb

     Initial potential from superposition of free atoms
     Check: negative starting charge=   -0.349715

     starting charge    7.99998, renormalised to    8.00000

     negative rho (up, down):  3.497E-01 0.000E+00
     Starting wfc are    6 randomized atomic wfcs +    2 random wfc

     total cpu time spent up to now is        0.2 secs

     per-process dynamical memory:    18.8 Mb

     Self-consistent Calculation

     iteration #  1     ecut=    30.00 Ry     beta=0.70
     Davidson diagonalization with overlap
     ethr =  1.00E-02,  avg # of iterations =  8.0

     negative rho (up, down):  9.127E-02 0.000E+00

     total cpu time spent up to now is        0.3 secs

     total energy              =     -30.35598265 Ry
     Harris-Foulkes estimate   =     -32.23489974 Ry
     estimated scf accuracy    <       2.16328394 Ry

     iteration #  2     ecut=    30.00 Ry     beta=0.70
     Davidson diagonalization with overlap
     ethr =  1.00E-02,  avg # of iterations =  3.0

     negative rho (up, down):  6.644E-02 0.000E+00

     total cpu time spent up to now is        0.3 secs

     total energy              =     -32.29029318 Ry
     Harris-Foulkes estimate   =     -34.58401593 Ry
     estimated scf accuracy    <       5.59113511 Ry

     iteration #  3     ecut=    30.00 Ry     beta=0.70
     Davidson diagonalization with overlap
     ethr =  1.00E-02,  avg # of iterations =  2.0

     negative rho (up, down):  6.393E-02 0.000E+00

     total cpu time spent up to now is        0.4 secs

     total energy              =     -32.44001446 Ry
     Harris-Foulkes estimate   =     -32.52556030 Ry
     estimated scf accuracy    <       1.81722107 Ry

     iteration #  4     ecut=    30.00 Ry     beta=0.70
     Davidson diagonalization with overlap
     ethr =  1.00E-02,  avg # of iterations =  1.0

     negative rho (up, down):  1.250E-02 0.000E+00

     total cpu time spent up to now is        0.4 secs

     total energy              =     -31.30191422 Ry
     Harris-Foulkes estimate   =     -32.44033987 Ry
     estimated scf accuracy    <       1.69850313 Ry

     iteration #  5     ecut=    30.00 Ry     beta=0.70
     Davidson diagonalization with overlap
     ethr =  1.00E-02,  avg # of iterations =  4.0

     negative rho (up, down):  2.186E-02 0.000E+00

     total cpu time spent up to now is        0.4 secs

     total energy              =     -33.30207629 Ry
     Harris-Foulkes estimate   =     -33.17754835 Ry
     estimated scf accuracy    <       7.45717356 Ry

     iteration #  6     ecut=    30.00 Ry     beta=0.70
     Davidson diagonalization with overlap
     ethr =  1.00E-02,  avg # of iterations =  1.0

     negative rho (up, down):  1.383E-02 0.000E+00

     total cpu time spent up to now is        0.4 secs

     total energy              =     -32.91124158 Ry
     Harris-Foulkes estimate   =     -33.31212241 Ry
     estimated scf accuracy    <       9.16631605 Ry

     iteration #  7     ecut=    30.00 Ry     beta=0.70
     Davidson diagonalization with overlap
     ethr =  1.00E-02,  avg # of iterations =  1.0

     negative rho (up, down):  1.211E-02 0.000E+00

     total cpu time spent up to now is        0.5 secs

     total energy              =     -32.84259712 Ry
     Harris-Foulkes estimate   =     -32.99190214 Ry
     estimated scf accuracy    <       3.23312234 Ry

     iteration #  8     ecut=    30.00 Ry     beta=0.70
     Davidson diagonalization with overlap
     ethr =  1.00E-02,  avg # of iterations =  1.0

     negative rho (up, down):  4.085E-02 0.000E+00

     total cpu time spent up to now is        0.5 secs

     total energy              =     -32.55250308 Ry
     Harris-Foulkes estimate   =     -32.84656071 Ry
     estimated scf accuracy    <       2.83963095 Ry

     iteration #  9     ecut=    30.00 Ry     beta=0.70
     Davidson diagonalization with overlap
     ethr =  1.00E-02,  avg # of iterations =  1.0

     negative rho (up, down):  5.706E-02 0.000E+00

     total cpu time spent up to now is        0.5 secs

     total energy              =     -31.90928061 Ry
     Harris-Foulkes estimate   =     -32.55734807 Ry
     estimated scf accuracy    <       2.29257181 Ry

     iteration # 10     ecut=    30.00 Ry     beta=0.70
     Davidson diagonalization with overlap
     ethr =  1.00E-02,  avg # of iterations =  1.0

     negative rho (up, down):  5.016E-02 0.000E+00

     total cpu time spent up to now is        0.6 secs

     total energy              =     -32.02854864 Ry
     Harris-Foulkes estimate   =     -31.94428013 Ry
     estimated scf accuracy    <       0.15351330 Ry

     iteration # 11     ecut=    30.00 Ry     beta=0.70
     Davidson diagonalization with overlap
     ethr =  1.92E-03,  avg # of iterations =  1.0

     negative rho (up, down):  6.087E-02 0.000E+00

     total cpu time spent up to now is        0.6 secs

     total energy              =     -32.15586628 Ry
     Harris-Foulkes estimate   =     -32.17633881 Ry
     estimated scf accuracy    <       1.54818468 Ry

     iteration # 12     ecut=    30.00 Ry     beta=0.70
     Davidson diagonalization with overlap
     ethr =  1.92E-03,  avg # of iterations =  1.0

     negative rho (up, down):  5.777E-02 0.000E+00

     total cpu time spent up to now is        0.7 secs

     total energy              =     -31.82776749 Ry
     Harris-Foulkes estimate   =     -32.15614364 Ry
     estimated scf accuracy    <       1.52222359 Ry

     iteration # 13     ecut=    30.00 Ry     beta=0.70
     Davidson diagonalization with overlap
     ethr =  1.92E-03,  avg # of iterations =  2.0

     negative rho (up, down):  2.972E-02 0.000E+00

     total cpu time spent up to now is        0.7 secs

     total energy              =     -31.99819564 Ry
     Harris-Foulkes estimate   =     -32.01155334 Ry
     estimated scf accuracy    <       1.02392703 Ry

     iteration # 14     ecut=    30.00 Ry     beta=0.70
     Davidson diagonalization with overlap
     ethr =  1.92E-03,  avg # of iterations =  1.0

     negative rho (up, down):  3.145E-02 0.000E+00

     total cpu time spent up to now is        0.7 secs

     total energy              =     -31.99149361 Ry
     Harris-Foulkes estimate   =     -31.99924280 Ry
     estimated scf accuracy    <       0.96618636 Ry

     iteration # 15     ecut=    30.00 Ry     beta=0.70
     Davidson diagonalization with overlap
     ethr =  1.92E-03,  avg # of iterations =  1.0

     negative rho (up, down):  1.446E-02 0.000E+00

     total cpu time spent up to now is        0.7 secs

     total energy              =     -31.99866457 Ry
     Harris-Foulkes estimate   =     -31.99154729 Ry
     estimated scf accuracy    <       0.95113695 Ry

     iteration # 16     ecut=    30.00 Ry     beta=0.70
     Davidson diagonalization with overlap
     ethr =  1.92E-03,  avg # of iterations =  1.0

     negative rho (up, down):  8.747E-04 0.000E+00

     total cpu time spent up to now is        0.8 secs

     total energy              =     -32.02192305 Ry
     Harris-Foulkes estimate   =     -31.99867386 Ry
     estimated scf accuracy    <       0.96109059 Ry

     iteration # 17     ecut=    30.00 Ry     beta=0.70
     Davidson diagonalization with overlap
     ethr =  1.92E-03,  avg # of iterations =  1.0

     negative rho (up, down):  5.507E-04 0.000E+00

     total cpu time spent up to now is        0.8 secs

     total energy              =     -32.00096888 Ry
     Harris-Foulkes estimate   =     -32.02214388 Ry
     estimated scf accuracy    <       1.00851134 Ry

     iteration # 18     ecut=    30.00 Ry     beta=0.70
     Davidson diagonalization with overlap
     ethr =  1.92E-03,  avg # of iterations =  1.0

     negative rho (up, down):  1.892E-04 0.000E+00

     total cpu time spent up to now is        0.8 secs

     total energy              =     -32.07133827 Ry
     Harris-Foulkes estimate   =     -32.00099941 Ry
     estimated scf accuracy    <       0.97795638 Ry

     iteration # 19     ecut=    30.00 Ry     beta=0.70
     Davidson diagonalization with overlap
     ethr =  1.92E-03,  avg # of iterations =  1.0

     negative rho (up, down):  3.502E-03 0.000E+00

     total cpu time spent up to now is        0.9 secs

     total energy              =     -31.84114080 Ry
     Harris-Foulkes estimate   =     -32.07176588 Ry
     estimated scf accuracy    <       1.09190503 Ry

     iteration # 20     ecut=    30.00 Ry     beta=0.70
     Davidson diagonalization with overlap
     ethr =  1.92E-03,  avg # of iterations =  1.0

     negative rho (up, down):  6.646E-05 0.000E+00

     total cpu time spent up to now is        0.9 secs

     total energy              =     -31.97625135 Ry
     Harris-Foulkes estimate   =     -32.03972845 Ry
     estimated scf accuracy    <       1.30431576 Ry

     iteration # 21     ecut=    30.00 Ry     beta=0.70
     Davidson diagonalization with overlap
     ethr =  1.92E-03,  avg # of iterations =  1.0

     negative rho (up, down):  1.098E-03 0.000E+00

     total cpu time spent up to now is        0.9 secs

     total energy              =     -31.74358147 Ry
     Harris-Foulkes estimate   =     -31.97345918 Ry
     estimated scf accuracy    <       1.54701719 Ry

     iteration # 22     ecut=    30.00 Ry     beta=0.70
     Davidson diagonalization with overlap
     ethr =  1.92E-03,  avg # of iterations =  1.0

     negative rho (up, down):  6.551E-04 0.000E+00

     total cpu time spent up to now is        1.0 secs

     total energy              =     -31.91470040 Ry
     Harris-Foulkes estimate   =     -32.08499720 Ry
     estimated scf accuracy    <       1.09315383 Ry

     iteration # 23     ecut=    30.00 Ry     beta=0.70
     Davidson diagonalization with overlap
     ethr =  1.92E-03,  avg # of iterations =  1.0

     negative rho (up, down):  3.232E-06 0.000E+00

     total cpu time spent up to now is        1.0 secs

     total energy              =     -31.90567969 Ry
     Harris-Foulkes estimate   =     -31.95076536 Ry
     estimated scf accuracy    <       0.38080911 Ry

     iteration # 24     ecut=    30.00 Ry     beta=0.70
     Davidson diagonalization with overlap
     ethr =  1.92E-03,  avg # of iterations =  1.0

     negative rho (up, down):  7.626E-07 0.000E+00

     total cpu time spent up to now is        1.0 secs

     total energy              =     -31.96913760 Ry
     Harris-Foulkes estimate   =     -31.98842649 Ry
     estimated scf accuracy    <       0.94129465 Ry

     iteration # 25     ecut=    30.00 Ry     beta=0.70
     Davidson diagonalization with overlap
     ethr =  1.92E-03,  avg # of iterations =  1.0

     negative rho (up, down):  9.034E-07 0.000E+00

     total cpu time spent up to now is        1.1 secs

     total energy              =     -31.97428862 Ry
     Harris-Foulkes estimate   =     -31.96936727 Ry
     estimated scf accuracy    <       0.84680347 Ry

     iteration # 26     ecut=    30.00 Ry     beta=0.70
     Davidson diagonalization with overlap
     ethr =  1.92E-03,  avg # of iterations =  1.0

     negative rho (up, down):  1.118E-06 0.000E+00

     total cpu time spent up to now is        1.1 secs

     total energy              =     -31.98038542 Ry
     Harris-Foulkes estimate   =     -31.97435186 Ry
     estimated scf accuracy    <       0.89300496 Ry

     iteration # 27     ecut=    30.00 Ry     beta=0.70
     Davidson diagonalization with overlap
     ethr =  1.92E-03,  avg # of iterations =  1.0

     negative rho (up, down):  8.254E-07 0.000E+00

     total cpu time spent up to now is        1.1 secs

     total energy              =     -31.98813134 Ry
     Harris-Foulkes estimate   =     -31.98043163 Ry
     estimated scf accuracy    <       0.92463274 Ry

     iteration # 28     ecut=    30.00 Ry     beta=0.70
     Davidson diagonalization with overlap
     ethr =  1.92E-03,  avg # of iterations =  1.0

     negative rho (up, down):  5.441E-05 0.000E+00

     total cpu time spent up to now is        1.2 secs

     total energy              =     -31.92194895 Ry
     Harris-Foulkes estimate   =     -31.98816000 Ry
     estimated scf accuracy    <       0.94574080 Ry

     iteration # 29     ecut=    30.00 Ry     beta=0.70
     Davidson diagonalization with overlap
     ethr =  1.92E-03,  avg # of iterations =  1.0

     negative rho (up, down):  9.547E-06 0.000E+00

     total cpu time spent up to now is        1.2 secs

     total energy              =     -31.94302459 Ry
     Harris-Foulkes estimate   =     -31.94783748 Ry
     estimated scf accuracy    <       0.14572242 Ry

     iteration # 30     ecut=    30.00 Ry     beta=0.70
     Davidson diagonalization with overlap
     ethr =  1.82E-03,  avg # of iterations =  1.0

     negative rho (up, down):  5.775E-06 0.000E+00

     total cpu time spent up to now is        1.2 secs

     total energy              =     -31.95122118 Ry
     Harris-Foulkes estimate   =     -31.94623298 Ry
     estimated scf accuracy    <       0.01420480 Ry

     iteration # 31     ecut=    30.00 Ry     beta=0.70
     Davidson diagonalization with overlap
     ethr =  1.78E-04,  avg # of iterations =  1.0

     negative rho (up, down):  4.103E-07 0.000E+00

     total cpu time spent up to now is        1.3 secs

     total energy              =     -31.95285178 Ry
     Harris-Foulkes estimate   =     -31.97013500 Ry
     estimated scf accuracy    <       0.85546321 Ry

     iteration # 32     ecut=    30.00 Ry     beta=0.70
     Davidson diagonalization with overlap
     ethr =  1.78E-04,  avg # of iterations =  1.0

     negative rho (up, down):  1.622E-06 0.000E+00

     total cpu time spent up to now is        1.3 secs

     total energy              =     -31.96374724 Ry
     Harris-Foulkes estimate   =     -31.95449347 Ry
     estimated scf accuracy    <       0.47599686 Ry

     iteration # 33     ecut=    30.00 Ry     beta=0.70
     Davidson diagonalization with overlap
     ethr =  1.78E-04,  avg # of iterations =  1.0

     negative rho (up, down):  1.288E-06 0.000E+00

     total cpu time spent up to now is        1.3 secs

     total energy              =     -31.96011690 Ry
     Harris-Foulkes estimate   =     -31.96517504 Ry
     estimated scf accuracy    <       0.78487475 Ry

     iteration # 34     ecut=    30.00 Ry     beta=0.70
     Davidson diagonalization with overlap
     ethr =  1.78E-04,  avg # of iterations =  1.0

     negative rho (up, down):  8.371E-07 0.000E+00

     total cpu time spent up to now is        1.4 secs

     total energy              =     -31.95960586 Ry
     Harris-Foulkes estimate   =     -31.96027916 Ry
     estimated scf accuracy    <       0.67456617 Ry

     iteration # 35     ecut=    30.00 Ry     beta=0.70
     Davidson diagonalization with overlap
     ethr =  1.78E-04,  avg # of iterations =  1.0

     negative rho (up, down):  3.947E-06 0.000E+00

     total cpu time spent up to now is        1.4 secs

     total energy              =     -31.97137999 Ry
     Harris-Foulkes estimate   =     -31.95961078 Ry
     estimated scf accuracy    <       0.65508333 Ry

     iteration # 36     ecut=    30.00 Ry     beta=0.70
     Davidson diagonalization with overlap
     ethr =  1.78E-04,  avg # of iterations =  1.0

     negative rho (up, down):  6.943E-06 0.000E+00

     total cpu time spent up to now is        1.4 secs

     total energy              =     -31.92013661 Ry
     Harris-Foulkes estimate   =     -31.97241279 Ry
     estimated scf accuracy    <       0.87811934 Ry

     iteration # 37     ecut=    30.00 Ry     beta=0.70
     Davidson diagonalization with overlap
     ethr =  1.78E-04,  avg # of iterations =  1.0

     negative rho (up, down):  3.774E-07 0.000E+00

     total cpu time spent up to now is        1.5 secs

     total energy              =     -31.94220419 Ry
     Harris-Foulkes estimate   =     -31.94948023 Ry
     estimated scf accuracy    <       0.27856272 Ry

     iteration # 38     ecut=    30.00 Ry     beta=0.70
     Davidson diagonalization with overlap
     ethr =  1.78E-04,  avg # of iterations =  1.0

     negative rho (up, down):  1.512E-06 0.000E+00

     total cpu time spent up to now is        1.5 secs

     total energy              =     -31.94639302 Ry
     Harris-Foulkes estimate   =     -31.94603503 Ry
     estimated scf accuracy    <       0.00070483 Ry

     iteration # 39     ecut=    30.00 Ry     beta=0.70
     Davidson diagonalization with overlap
     ethr =  8.81E-06,  avg # of iterations = 20.0

     negative rho (up, down):  5.744E-07 0.000E+00

     total cpu time spent up to now is        1.6 secs

     total energy              =     -31.93783496 Ry
     Harris-Foulkes estimate   =     -31.94871517 Ry
     estimated scf accuracy    <       0.17960332 Ry

     iteration # 40     ecut=    30.00 Ry     beta=0.70
     Davidson diagonalization with overlap
     ethr =  8.81E-06,  avg # of iterations =  3.0

     negative rho (up, down):  1.045E-07 0.000E+00

     total cpu time spent up to now is        1.6 secs

     total energy              =     -31.95304776 Ry
     Harris-Foulkes estimate   =     -31.94989685 Ry
     estimated scf accuracy    <       0.31126749 Ry

     iteration # 41     ecut=    30.00 Ry     beta=0.70
     Davidson diagonalization with overlap
     ethr =  8.81E-06,  avg # of iterations =  1.0

     negative rho (up, down):  6.238E-07 0.000E+00

     total cpu time spent up to now is        1.6 secs

     total energy              =     -31.96433736 Ry
     Harris-Foulkes estimate   =     -31.95365222 Ry
     estimated scf accuracy    <       0.59620370 Ry

     iteration # 42     ecut=    30.00 Ry     beta=0.70
     Davidson diagonalization with overlap
     ethr =  8.81E-06,  avg # of iterations =  1.0

     negative rho (up, down):  2.456E-06 0.000E+00

     total cpu time spent up to now is        1.7 secs

     total energy              =     -31.94762015 Ry
     Harris-Foulkes estimate   =     -31.96727953 Ry
     estimated scf accuracy    <       1.36387885 Ry

     iteration # 43     ecut=    30.00 Ry     beta=0.70
     Davidson diagonalization with overlap
     ethr =  8.81E-06,  avg # of iterations =  2.0

     negative rho (up, down):  1.099E-06 0.000E+00

     total cpu time spent up to now is        1.7 secs

     total energy              =     -31.95281591 Ry
     Harris-Foulkes estimate   =     -31.95141465 Ry
     estimated scf accuracy    <       0.42943784 Ry

     iteration # 44     ecut=    30.00 Ry     beta=0.70
     Davidson diagonalization with overlap
     ethr =  8.81E-06,  avg # of iterations =  1.0

     total cpu time spent up to now is        1.7 secs

     total energy              =     -31.93943200 Ry
     Harris-Foulkes estimate   =     -31.95290302 Ry
     estimated scf accuracy    <       0.54069555 Ry

     iteration # 45     ecut=    30.00 Ry     beta=0.70
     Davidson diagonalization with overlap
     ethr =  8.81E-06,  avg # of iterations =  1.0

     total cpu time spent up to now is        1.8 secs

     total energy              =     -31.94603472 Ry
     Harris-Foulkes estimate   =     -31.94602703 Ry
     estimated scf accuracy    <       0.00003300 Ry

     iteration # 46     ecut=    30.00 Ry     beta=0.70
     Davidson diagonalization with overlap
     ethr =  4.13E-07,  avg # of iterations = 10.0

     total cpu time spent up to now is        1.8 secs

     total energy              =     -31.94607769 Ry
     Harris-Foulkes estimate   =     -31.94607899 Ry
     estimated scf accuracy    <       0.00396979 Ry

     iteration # 47     ecut=    30.00 Ry     beta=0.70
     Davidson diagonalization with overlap
     ethr =  4.13E-07,  avg # of iterations =  1.0

     total cpu time spent up to now is        1.8 secs

     total energy              =     -31.94596743 Ry
     Harris-Foulkes estimate   =     -31.94607778 Ry
     estimated scf accuracy    <       0.00386584 Ry

     iteration # 48     ecut=    30.00 Ry     beta=0.70
     Davidson diagonalization with overlap
     ethr =  4.13E-07,  avg # of iterations =  1.0

     total cpu time spent up to now is        1.9 secs

     total energy              =     -31.94605475 Ry
     Harris-Foulkes estimate   =     -31.94602839 Ry
     estimated scf accuracy    <       0.00005420 Ry

     iteration # 49     ecut=    30.00 Ry     beta=0.70
     Davidson diagonalization with overlap
     ethr =  4.13E-07,  avg # of iterations =  2.0

     total cpu time spent up to now is        1.9 secs

     total energy              =     -31.94621561 Ry
     Harris-Foulkes estimate   =     -31.94620918 Ry
     estimated scf accuracy    <       0.01328896 Ry

     iteration # 50     ecut=    30.00 Ry     beta=0.70
     Davidson diagonalization with overlap
     ethr =  4.13E-07,  avg # of iterations =  1.0

     total cpu time spent up to now is        2.0 secs

     total energy              =     -31.94616985 Ry
     Harris-Foulkes estimate   =     -31.94621571 Ry
     estimated scf accuracy    <       0.01383719 Ry

     iteration # 51     ecut=    30.00 Ry     beta=0.70
     Davidson diagonalization with overlap
     ethr =  4.13E-07,  avg # of iterations =  1.0

     total cpu time spent up to now is        2.0 secs

     total energy              =     -31.94590316 Ry
     Harris-Foulkes estimate   =     -31.94617283 Ry
     estimated scf accuracy    <       0.01056601 Ry

     iteration # 52     ecut=    30.00 Ry     beta=0.70
     Davidson diagonalization with overlap
     ethr =  4.13E-07,  avg # of iterations =  1.0

     total cpu time spent up to now is        2.0 secs

     total energy              =     -31.94602895 Ry
     Harris-Foulkes estimate   =     -31.94602995 Ry
     estimated scf accuracy    <       0.00001935 Ry

     iteration # 53     ecut=    30.00 Ry     beta=0.70
     Davidson diagonalization with overlap
     ethr =  2.42E-07,  avg # of iterations =  1.0

     total cpu time spent up to now is        2.1 secs

     total energy              =     -31.94602872 Ry
     Harris-Foulkes estimate   =     -31.94602916 Ry
     estimated scf accuracy    <       0.00001353 Ry

     iteration # 54     ecut=    30.00 Ry     beta=0.70
     Davidson diagonalization with overlap
     ethr =  1.69E-07,  avg # of iterations =  1.0

     total cpu time spent up to now is        2.1 secs

     total energy              =     -31.94602867 Ry
     Harris-Foulkes estimate   =     -31.94602893 Ry
     estimated scf accuracy    <       0.00000370 Ry

     iteration # 55     ecut=    30.00 Ry     beta=0.70
     Davidson diagonalization with overlap
     ethr =  4.62E-08,  avg # of iterations =  1.0

     total cpu time spent up to now is        2.1 secs

     total energy              =     -31.94602652 Ry
     Harris-Foulkes estimate   =     -31.94602877 Ry
     estimated scf accuracy    <       0.00000685 Ry

     iteration # 56     ecut=    30.00 Ry     beta=0.70
     Davidson diagonalization with overlap
     ethr =  4.62E-08,  avg # of iterations =  2.0

     total cpu time spent up to now is        2.2 secs

     total energy              =     -31.94602687 Ry
     Harris-Foulkes estimate   =     -31.94602744 Ry
     estimated scf accuracy    <       0.00000529 Ry

     iteration # 57     ecut=    30.00 Ry     beta=0.70
     Davidson diagonalization with overlap
     ethr =  4.62E-08,  avg # of iterations =  1.0

     total cpu time spent up to now is        2.2 secs

     End of self-consistent calculation

          k = 0.0000 0.0000 0.0000 ( 22119 PWs)   bands (ev):

   -24.8203 -10.6653  -7.0748  -7.0747  -6.9362  -0.7223   0.3069   0.7839

     the Fermi energy is    -6.9047 ev

!    total energy              =     -31.94602643 Ry
     Harris-Foulkes estimate   =     -31.94602696 Ry
     estimated scf accuracy    <          4.9E-09 Ry

     convergence has been achieved in  57 iterations

     Forces acting on atoms (Ry/au):

     atom    1 type  1   force =    -0.00025709   -0.00017262   -0.00026922
     atom    2 type  1   force =    -0.00543430    0.00913330    0.01240390
     atom    3 type  2   force =     0.00569138   -0.00896068   -0.01213468

     Total force =     0.022955     Total SCF correction =     0.000109

     Molecular Dynamics Calculation

     Starting temperature  =  1000.00 K

     temperature is controlled by Andersen thermostat
     Collision frequency = 1.0000/timestep
     mass H                =     1.01
     mass O                =    16.00
     Time step             =   100.00 a.u.,  4.8378 femto-seconds

     Entering Dynamics:    iteration =     1
                           time      =   0.0048 pico-seconds


     Andersen thermostat:    3 collisions

ATOMIC_POSITIONS (bohr)
H        2.003300131  14.381648342   2.285412797
H        5.872507502   6.416889247  17.948467825
O        6.199776619   5.334557862  17.055472706


     kinetic energy (Ekin) =     0.03212499 Ry
     temperature           =  1690.70980147 K 
     Ekin + Etot (const)   =   -31.91390144 Ry

     Linear momentum :   -0.0000000000    0.0000000000   -0.0000000000

     Writing output data file pwscf.save
     Check: negative starting charge=   -0.349715
     NEW-OLD atomic charge density approx. for the potential
     Check: negative starting charge=   -0.351895

     negative rho (up, down):  8.812E-02 0.000E+00

     total cpu time spent up to now is        2.5 secs

     per-process dynamical memory:    20.4 Mb

     Self-consistent Calculation

     iteration #  1     ecut=    30.00 Ry     beta=0.70
     Davidson diagonalization with overlap
     c_bands:  2 eigenvalues not converged
     ethr =  1.00E-06,  avg # of iterations = 20.0

     negative rho (up, down):  2.065E-02 0.000E+00

     total cpu time spent up to now is        2.6 secs

     total energy              =     -30.91169559 Ry
     Harris-Foulkes estimate   =     -31.74247430 Ry
     estimated scf accuracy    <       1.11935612 Ry

     iteration #  2     ecut=    30.00 Ry     beta=0.70
     Davidson diagonalization with overlap
     ethr =  1.00E-02,  avg # of iterations =  3.0

     negative rho (up, down):  2.526E-04 0.000E+00

     total cpu time spent up to now is        2.6 secs

     total energy              =     -31.00763963 Ry
     Harris-Foulkes estimate   =     -34.01109269 Ry
     estimated scf accuracy    <      10.76491406 Ry

     iteration #  3     ecut=    30.00 Ry     beta=0.70
     Davidson diagonalization with overlap
     ethr =  1.00E-02,  avg # of iterations =  2.0

     negative rho (up, down):  4.589E-04 0.000E+00

     total cpu time spent up to now is        2.7 secs

     total energy              =     -31.15689007 Ry
     Harris-Foulkes estimate   =     -31.10259226 Ry
     estimated scf accuracy    <       6.22046265 Ry

     iteration #  4     ecut=    30.00 Ry     beta=0.70
     Davidson diagonalization with overlap
     ethr =  1.00E-02,  avg # of iterations =  4.0

     negative rho (up, down):  3.912E-02 0.000E+00

     total cpu time spent up to now is        2.7 secs

     total energy              =     -32.04410919 Ry
     Harris-Foulkes estimate   =     -31.97265804 Ry
     estimated scf accuracy    <       1.90963954 Ry

     iteration #  5     ecut=    30.00 Ry     beta=0.70
     Davidson diagonalization with overlap
     ethr =  1.00E-02,  avg # of iterations =  1.0

     negative rho (up, down):  3.421E-01 0.000E+00

     total cpu time spent up to now is        2.7 secs

     total energy              =     -32.11994351 Ry
     Harris-Foulkes estimate   =     -32.04938804 Ry
     estimated scf accuracy    <       2.01492912 Ry

     iteration #  6     ecut=    30.00 Ry     beta=0.70
     Davidson diagonalization with overlap
     ethr =  1.00E-02,  avg # of iterations =  1.0

     negative rho (up, down):  1.344E+00 0.000E+00

     total cpu time spent up to now is        2.8 secs

     total energy              =     -32.37867044 Ry
     Harris-Foulkes estimate   =     -32.13453823 Ry
     estimated scf accuracy    <       2.18745426 Ry

     iteration #  7     ecut=    30.00 Ry     beta=0.70
     Davidson diagonalization with overlap
     ethr =  1.00E-02,  avg # of iterations =  2.0

     negative rho (up, down):  1.767E+00 0.000E+00

     total cpu time spent up to now is        2.8 secs

     total energy              =     -33.78577509 Ry
     Harris-Foulkes estimate   =     -32.92119785 Ry
     estimated scf accuracy    <       8.38659849 Ry

     iteration #  8     ecut=    30.00 Ry     beta=0.70
     Davidson diagonalization with overlap
     ethr =  1.00E-02,  avg # of iterations =  3.0

     negative rho (up, down):  1.776E+00 0.000E+00

     total cpu time spent up to now is        2.9 secs

     total energy              =     -33.86216847 Ry
     Harris-Foulkes estimate   =     -33.81652594 Ry
     estimated scf accuracy    <      10.63077232 Ry

     iteration #  9     ecut=    30.00 Ry     beta=0.70
     Davidson diagonalization with overlap
     ethr =  1.00E-02,  avg # of iterations =  1.0

     negative rho (up, down):  1.817E+00 0.000E+00

     total cpu time spent up to now is        2.9 secs

     total energy              =     -33.95817369 Ry
     Harris-Foulkes estimate   =     -33.86765350 Ry
     estimated scf accuracy    <      12.18609513 Ry

     iteration # 10     ecut=    30.00 Ry     beta=0.70
     Davidson diagonalization with overlap
     ethr =  1.00E-02,  avg # of iterations =  1.0

     negative rho (up, down):  2.127E+00 0.000E+00

     total cpu time spent up to now is        2.9 secs

     total energy              =     -34.42702703 Ry
     Harris-Foulkes estimate   =     -33.96832269 Ry
     estimated scf accuracy    <      15.74881211 Ry

     iteration # 11     ecut=    30.00 Ry     beta=0.70
     Davidson diagonalization with overlap
     ethr =  1.00E-02,  avg # of iterations =  1.0

     negative rho (up, down):  2.156E+00 0.000E+00

     total cpu time spent up to now is        3.0 secs

     total energy              =     -34.82593633 Ry
     Harris-Foulkes estimate   =     -34.48107438 Ry
     estimated scf accuracy    <      20.47306344 Ry

     iteration # 12     ecut=    30.00 Ry     beta=0.70
     Davidson diagonalization with overlap
     ethr =  1.00E-02,  avg # of iterations =  1.0

     negative rho (up, down):  1.362E+00 0.000E+00

     total cpu time spent up to now is        3.0 secs

     total energy              =     -30.63478707 Ry
     Harris-Foulkes estimate   =     -34.83113416 Ry
     estimated scf accuracy    <      20.92212602 Ry

     iteration # 13     ecut=    30.00 Ry     beta=0.70
     Davidson diagonalization with overlap
     ethr =  1.00E-02,  avg # of iterations =  2.0

     negative rho (up, down):  1.395E+00 0.000E+00

     total cpu time spent up to now is        3.0 secs

     total energy              =     -31.28703013 Ry
     Harris-Foulkes estimate   =     -31.88246284 Ry
     estimated scf accuracy    <       7.19661822 Ry

     iteration # 14     ecut=    30.00 Ry     beta=0.70
     Davidson diagonalization with overlap
     ethr =  1.00E-02,  avg # of iterations =  1.0

     negative rho (up, down):  2.256E+00 0.000E+00

     total cpu time spent up to now is        3.1 secs

     total energy              =     -35.03037729 Ry
     Harris-Foulkes estimate   =     -31.32303706 Ry
     estimated scf accuracy    <       6.61599597 Ry

     iteration # 15     ecut=    30.00 Ry     beta=0.70
     Davidson diagonalization with overlap
     ethr =  1.00E-02,  avg # of iterations =  1.0

     negative rho (up, down):  4.661E-01 0.000E+00

     total cpu time spent up to now is        3.1 secs

     total energy              =     -19.62825033 Ry
     Harris-Foulkes estimate   =     -35.71560863 Ry
     estimated scf accuracy    <      21.93083429 Ry

     iteration # 16     ecut=    30.00 Ry     beta=0.70
     Davidson diagonalization with overlap
     ethr =  1.00E-02,  avg # of iterations =  7.0

     negative rho (up, down):  1.707E-01 0.000E+00

     total cpu time spent up to now is        3.1 secs

     total energy              =     -34.34829148 Ry
     Harris-Foulkes estimate   =     -37.97619633 Ry
     estimated scf accuracy    <      10.53794367 Ry

     iteration # 17     ecut=    30.00 Ry     beta=0.70
     Davidson diagonalization with overlap
     ethr =  1.00E-02,  avg # of iterations =  2.0

     negative rho (up, down):  8.024E-02 0.000E+00

     total cpu time spent up to now is        3.2 secs

     total energy              =     -31.99868035 Ry
     Harris-Foulkes estimate   =     -34.49203862 Ry
     estimated scf accuracy    <       5.29614150 Ry

     iteration # 18     ecut=    30.00 Ry     beta=0.70
     Davidson diagonalization with overlap
     ethr =  1.00E-02,  avg # of iterations =  2.0

     negative rho (up, down):  1.314E-01 0.000E+00

     total cpu time spent up to now is        3.2 secs

     total energy              =     -31.57255340 Ry
     Harris-Foulkes estimate   =     -32.18453038 Ry
     estimated scf accuracy    <       1.63382018 Ry

     iteration # 19     ecut=    30.00 Ry     beta=0.70
     Davidson diagonalization with overlap
     ethr =  1.00E-02,  avg # of iterations =  1.0

     negative rho (up, down):  6.832E-01 0.000E+00

     total cpu time spent up to now is        3.3 secs

     total energy              =     -31.09526208 Ry
     Harris-Foulkes estimate   =     -31.60070312 Ry
     estimated scf accuracy    <       0.71200468 Ry

     iteration # 20     ecut=    30.00 Ry     beta=0.70
     Davidson diagonalization with overlap
     ethr =  8.90E-03,  avg # of iterations =  6.0

     negative rho (up, down):  2.835E-02 0.000E+00

     total cpu time spent up to now is        3.3 secs

     total energy              =     -30.59708756 Ry
     Harris-Foulkes estimate   =     -33.93486458 Ry
     estimated scf accuracy    <      11.72419107 Ry

     iteration # 21     ecut=    30.00 Ry     beta=0.70
     Davidson diagonalization with overlap
     ethr =  8.90E-03,  avg # of iterations =  3.0

     negative rho (up, down):  2.237E-03 0.000E+00

     total cpu time spent up to now is        3.3 secs

     total energy              =     -30.04644110 Ry
     Harris-Foulkes estimate   =     -30.90779835 Ry
     estimated scf accuracy    <       5.96566443 Ry

     iteration # 22     ecut=    30.00 Ry     beta=0.70
     Davidson diagonalization with overlap
     ethr =  8.90E-03,  avg # of iterations =  5.0

     negative rho (up, down):  1.876E-03 0.000E+00

     total cpu time spent up to now is        3.4 secs

     total energy              =     -31.63210305 Ry
     Harris-Foulkes estimate   =     -31.92074119 Ry
     estimated scf accuracy    <       1.31082902 Ry

     iteration # 23     ecut=    30.00 Ry     beta=0.70
     Davidson diagonalization with overlap
     ethr =  8.90E-03,  avg # of iterations =  1.0

     total cpu time spent up to now is        3.4 secs

     total energy              =     -31.61806187 Ry
     Harris-Foulkes estimate   =     -31.79180303 Ry
     estimated scf accuracy    <       1.41810137 Ry

     iteration # 24     ecut=    30.00 Ry     beta=0.70
     Davidson diagonalization with overlap
     ethr =  8.90E-03,  avg # of iterations =  1.0

     total cpu time spent up to now is        3.5 secs

     total energy              =     -31.73849785 Ry
     Harris-Foulkes estimate   =     -31.77353010 Ry
     estimated scf accuracy    <       1.02101656 Ry

     iteration # 25     ecut=    30.00 Ry     beta=0.70
     Davidson diagonalization with overlap
     ethr =  8.90E-03,  avg # of iterations =  1.0

     total cpu time spent up to now is        3.5 secs

     total energy              =     -31.70600357 Ry
     Harris-Foulkes estimate   =     -31.73880003 Ry
     estimated scf accuracy    <       0.89964981 Ry

     iteration # 26     ecut=    30.00 Ry     beta=0.70
     Davidson diagonalization with overlap
     ethr =  8.90E-03,  avg # of iterations =  1.0

     total cpu time spent up to now is        3.5 secs

     total energy              =     -31.71421597 Ry
     Harris-Foulkes estimate   =     -31.71609621 Ry
     estimated scf accuracy    <       0.05214640 Ry

     iteration # 27     ecut=    30.00 Ry     beta=0.70
     Davidson diagonalization with overlap
     ethr =  6.52E-04,  avg # of iterations =  1.0

     total cpu time spent up to now is        3.6 secs

     total energy              =     -31.70647817 Ry
     Harris-Foulkes estimate   =     -31.71425435 Ry
     estimated scf accuracy    <       0.03816857 Ry

     iteration # 28     ecut=    30.00 Ry     beta=0.70
     Davidson diagonalization with overlap
     ethr =  4.77E-04,  avg # of iterations =  1.0

     total cpu time spent up to now is        3.6 secs

     total energy              =     -31.71729362 Ry
     Harris-Foulkes estimate   =     -31.72323088 Ry
     estimated scf accuracy    <       1.08419596 Ry

     iteration # 29     ecut=    30.00 Ry     beta=0.70
     Davidson diagonalization with overlap
     ethr =  4.77E-04,  avg # of iterations =  1.0

     total cpu time spent up to now is        3.6 secs

     total energy              =     -31.70833322 Ry
     Harris-Foulkes estimate   =     -31.71768003 Ry
     estimated scf accuracy    <       0.77823783 Ry

     iteration # 30     ecut=    30.00 Ry     beta=0.70
     Davidson diagonalization with overlap
     ethr =  4.77E-04,  avg # of iterations =  1.0

     negative rho (up, down):  2.218E-03 0.000E+00

     total cpu time spent up to now is        3.7 secs

     total energy              =     -31.70525098 Ry
     Harris-Foulkes estimate   =     -31.70995347 Ry
     estimated scf accuracy    <       0.27618732 Ry

     iteration # 31     ecut=    30.00 Ry     beta=0.70
     Davidson diagonalization with overlap
     ethr =  4.77E-04,  avg # of iterations =  1.0

     negative rho (up, down):  2.021E-03 0.000E+00

     total cpu time spent up to now is        3.7 secs

     total energy              =     -31.70447854 Ry
     Harris-Foulkes estimate   =     -31.70668543 Ry
     estimated scf accuracy    <       0.35501841 Ry

     iteration # 32     ecut=    30.00 Ry     beta=0.70
     Davidson diagonalization with overlap
     ethr =  4.77E-04,  avg # of iterations =  1.0

     negative rho (up, down):  2.298E-03 0.000E+00

     total cpu time spent up to now is        3.7 secs

     total energy              =     -31.70202507 Ry
     Harris-Foulkes estimate   =     -31.70479380 Ry
     estimated scf accuracy    <       0.20212422 Ry

     iteration # 33     ecut=    30.00 Ry     beta=0.70
     Davidson diagonalization with overlap
     ethr =  4.77E-04,  avg # of iterations =  1.0

     negative rho (up, down):  1.011E-03 0.000E+00

     total cpu time spent up to now is        3.8 secs

     total energy              =     -31.70113058 Ry
     Harris-Foulkes estimate   =     -31.70278443 Ry
     estimated scf accuracy    <       0.04058715 Ry

     iteration # 34     ecut=    30.00 Ry     beta=0.70
     Davidson diagonalization with overlap
     ethr =  4.77E-04,  avg # of iterations =  1.0

     negative rho (up, down):  4.701E-04 0.000E+00

     total cpu time spent up to now is        3.8 secs

     total energy              =     -31.70214715 Ry
     Harris-Foulkes estimate   =     -31.70243148 Ry
     estimated scf accuracy    <       0.01366938 Ry

     iteration # 35     ecut=    30.00 Ry     beta=0.70
     Davidson diagonalization with overlap
     ethr =  1.71E-04,  avg # of iterations =  1.0

     negative rho (up, down):  1.093E-04 0.000E+00

     total cpu time spent up to now is        3.8 secs

     total energy              =     -31.70223651 Ry
     Harris-Foulkes estimate   =     -31.70225039 Ry
     estimated scf accuracy    <       0.00080743 Ry

     iteration # 36     ecut=    30.00 Ry     beta=0.70
     Davidson diagonalization with overlap
     ethr =  1.01E-05,  avg # of iterations =  8.0

     negative rho (up, down):  9.205E-08 0.000E+00

     total cpu time spent up to now is        3.9 secs

     total energy              =     -31.70222243 Ry
     Harris-Foulkes estimate   =     -31.70223770 Ry
     estimated scf accuracy    <       0.00053618 Ry

     iteration # 37     ecut=    30.00 Ry     beta=0.70
     Davidson diagonalization with overlap
     ethr =  6.70E-06,  avg # of iterations =  1.0

     negative rho (up, down):  3.719E-08 0.000E+00

     total cpu time spent up to now is        3.9 secs

     total energy              =     -31.70223412 Ry
     Harris-Foulkes estimate   =     -31.70223601 Ry
     estimated scf accuracy    <       0.00008621 Ry

     iteration # 38     ecut=    30.00 Ry     beta=0.70
     Davidson diagonalization with overlap
     ethr =  1.08E-06,  avg # of iterations =  1.0

     total cpu time spent up to now is        3.9 secs

     total energy              =     -31.70223527 Ry
     Harris-Foulkes estimate   =     -31.70223534 Ry
     estimated scf accuracy    <       0.00000027 Ry

     iteration # 39     ecut=    30.00 Ry     beta=0.70
     Davidson diagonalization with overlap
     ethr =  3.33E-09,  avg # of iterations =  1.0

     total cpu time spent up to now is        4.0 secs

     total energy              =     -31.70223525 Ry
     Harris-Foulkes estimate   =     -31.70223527 Ry
     estimated scf accuracy    <       0.00000002 Ry

     iteration # 40     ecut=    30.00 Ry     beta=0.70
     Davidson diagonalization with overlap
     ethr =  3.03E-10,  avg # of iterations =  1.0

     total cpu time spent up to now is        4.0 secs

     End of self-consistent calculation

          k = 0.0000 0.0000 0.0000 ( 22119 PWs)   bands (ev):

   -27.0779 -11.2659  -7.2454  -7.2449  -7.0996  -0.4221   0.4771   0.7986

     the Fermi energy is    -7.0727 ev

!    total energy              =     -31.70223528 Ry
     Harris-Foulkes estimate   =     -31.70223525 Ry
     estimated scf accuracy    <          3.0E-10 Ry

     convergence has been achieved in  40 iterations

     Forces acting on atoms (Ry/au):

     atom    1 type  1   force =    -0.00025788   -0.00019174   -0.00012270
     atom    2 type  1   force =    -0.25709327    0.84867820    0.69980076
     atom    3 type  2   force =     0.25735116   -0.84848647   -0.69967806

     Total force =     1.597430     Total SCF correction =     0.000028

     Entering Dynamics:    iteration =     2
                           time      =   0.0097 pico-seconds


     Andersen thermostat:    3 collisions

ATOMIC_POSITIONS (bohr)
H        1.969360747  14.274888821   1.994253495
H        3.088881800  16.043501202  25.516416770
O        6.377635415   4.733617177  16.596125360


     kinetic energy (Ekin) =     2.01711344 Ry
     temperature           = ************** K 
     Ekin + Etot (const)   =   -29.68512184 Ry
     Message from routine dynamics:
     Total linear momentum <> 0

     Linear momentum :    0.0791779580    0.3087136007    0.0903068189

     Writing output data file pwscf.save

     first order wave-functions extrapolation
     Check: negative starting charge=   -0.351895
     first order charge density extrapolation
     Check: negative starting charge=   -0.359042

     negative rho (up, down):  7.376E-01 0.000E+00

     total cpu time spent up to now is        4.4 secs

     per-process dynamical memory:    20.4 Mb

     Self-consistent Calculation

     iteration #  1     ecut=    30.00 Ry     beta=0.70
     Davidson diagonalization with overlap
     ethr =  1.00E-06,  avg # of iterations = 18.0

     negative rho (up, down):  1.306E-01 0.000E+00

     total cpu time spent up to now is        4.6 secs

     total energy              =      90.04609225 Ry
     Harris-Foulkes estimate   =    -148.39540254 Ry
     estimated scf accuracy    <      43.93549278 Ry

     iteration #  2     ecut=    30.00 Ry     beta=0.70
     Davidson diagonalization with overlap
     ethr =  1.00E-02,  avg # of iterations =  7.0

     negative rho (up, down):  7.856E-02 0.000E+00

     total cpu time spent up to now is        4.6 secs

     total energy              =     -35.68790989 Ry
     Harris-Foulkes estimate   =     -51.99600099 Ry
     estimated scf accuracy    <      30.48678356 Ry

     iteration #  3     ecut=    30.00 Ry     beta=0.70
     Davidson diagonalization with overlap
     ethr =  1.00E-02,  avg # of iterations =  7.0

     negative rho (up, down):  6.825E-02 0.000E+00

     total cpu time spent up to now is        4.7 secs

     total energy              =     -36.07724091 Ry
     Harris-Foulkes estimate   =     -40.66287104 Ry
     estimated scf accuracy    <      18.18276809 Ry

     iteration #  4     ecut=    30.00 Ry     beta=0.70
     Davidson diagonalization with overlap
     ethr =  1.00E-02,  avg # of iterations =  2.0

     negative rho (up, down):  5.733E-02 0.000E+00

     total cpu time spent up to now is        4.7 secs

     total energy              =     -35.04117867 Ry
     Harris-Foulkes estimate   =     -36.62227062 Ry
     estimated scf accuracy    <       7.75647175 Ry

     iteration #  5     ecut=    30.00 Ry     beta=0.70
     Davidson diagonalization with overlap
     ethr =  1.00E-02,  avg # of iterations =  1.0

     negative rho (up, down):  5.154E-02 0.000E+00

     total cpu time spent up to now is        4.7 secs

     total energy              =     -34.36682489 Ry
     Harris-Foulkes estimate   =     -35.06932175 Ry
     estimated scf accuracy    <       5.54639153 Ry

     iteration #  6     ecut=    30.00 Ry     beta=0.70
     Davidson diagonalization with overlap
     ethr =  1.00E-02,  avg # of iterations =  1.0

     negative rho (up, down):  3.449E-02 0.000E+00

     total cpu time spent up to now is        4.7 secs

     total energy              =     -32.72502930 Ry
     Harris-Foulkes estimate   =     -34.39393521 Ry
     estimated scf accuracy    <       4.65543442 Ry

     iteration #  7     ecut=    30.00 Ry     beta=0.70
     Davidson diagonalization with overlap
     ethr =  1.00E-02,  avg # of iterations =  1.0

     negative rho (up, down):  1.821E-02 0.000E+00

     total cpu time spent up to now is        4.8 secs

     total energy              =     -31.83936303 Ry
     Harris-Foulkes estimate   =     -32.76781473 Ry
     estimated scf accuracy    <       2.19908927 Ry

     iteration #  8     ecut=    30.00 Ry     beta=0.70
     Davidson diagonalization with overlap
     ethr =  1.00E-02,  avg # of iterations =  1.0

     negative rho (up, down):  9.774E-03 0.000E+00

     total cpu time spent up to now is        4.8 secs

     total energy              =     -31.58765635 Ry
     Harris-Foulkes estimate   =     -31.87655699 Ry
     estimated scf accuracy    <       0.89718278 Ry

     iteration #  9     ecut=    30.00 Ry     beta=0.70
     Davidson diagonalization with overlap
     ethr =  1.00E-02,  avg # of iterations =  1.0

     negative rho (up, down):  6.551E-03 0.000E+00

     total cpu time spent up to now is        4.8 secs

     total energy              =     -31.62674919 Ry
     Harris-Foulkes estimate   =     -31.64431304 Ry
     estimated scf accuracy    <       0.33453095 Ry

     iteration # 10     ecut=    30.00 Ry     beta=0.70
     Davidson diagonalization with overlap
     ethr =  4.18E-03,  avg # of iterations =  1.0

     negative rho (up, down):  1.447E-03 0.000E+00

     total cpu time spent up to now is        4.9 secs

     total energy              =     -31.67731627 Ry
     Harris-Foulkes estimate   =     -31.64356911 Ry
     estimated scf accuracy    <       0.48055530 Ry

     iteration # 11     ecut=    30.00 Ry     beta=0.70
     Davidson diagonalization with overlap
     ethr =  4.18E-03,  avg # of iterations =  1.0

     negative rho (up, down):  4.903E-03 0.000E+00

     total cpu time spent up to now is        4.9 secs

     total energy              =     -31.60569395 Ry
     Harris-Foulkes estimate   =     -31.68115908 Ry
     estimated scf accuracy    <       0.40722782 Ry

     iteration # 12     ecut=    30.00 Ry     beta=0.70
     Davidson diagonalization with overlap
     ethr =  4.18E-03,  avg # of iterations =  1.0

     negative rho (up, down):  2.971E-03 0.000E+00

     total cpu time spent up to now is        5.0 secs

     total energy              =     -31.58728235 Ry
     Harris-Foulkes estimate   =     -31.61062282 Ry
     estimated scf accuracy    <       0.11061350 Ry

     iteration # 13     ecut=    30.00 Ry     beta=0.70
     Davidson diagonalization with overlap
     ethr =  1.38E-03,  avg # of iterations =  2.0

     negative rho (up, down):  2.452E-05 0.000E+00

     total cpu time spent up to now is        5.0 secs

     total energy              =     -31.48343118 Ry
     Harris-Foulkes estimate   =     -31.64675966 Ry
     estimated scf accuracy    <       0.49385055 Ry

     iteration # 14     ecut=    30.00 Ry     beta=0.70
     Davidson diagonalization with overlap
     ethr =  1.38E-03,  avg # of iterations =  2.0

     negative rho (up, down):  5.815E-05 0.000E+00

     total cpu time spent up to now is        5.0 secs

     total energy              =     -31.57416895 Ry
     Harris-Foulkes estimate   =     -31.65631472 Ry
     estimated scf accuracy    <       0.39343690 Ry

     iteration # 15     ecut=    30.00 Ry     beta=0.70
     Davidson diagonalization with overlap
     ethr =  1.38E-03,  avg # of iterations =  1.0

     negative rho (up, down):  1.027E-05 0.000E+00

     total cpu time spent up to now is        5.1 secs

     total energy              =     -31.59803258 Ry
     Harris-Foulkes estimate   =     -31.60771213 Ry
     estimated scf accuracy    <       0.06627360 Ry

     iteration # 16     ecut=    30.00 Ry     beta=0.70
     Davidson diagonalization with overlap
     ethr =  8.28E-04,  avg # of iterations =  1.0

     negative rho (up, down):  7.252E-06 0.000E+00

     total cpu time spent up to now is        5.1 secs

     total energy              =     -31.60119440 Ry
     Harris-Foulkes estimate   =     -31.60206884 Ry
     estimated scf accuracy    <       0.02421305 Ry

     iteration # 17     ecut=    30.00 Ry     beta=0.70
     Davidson diagonalization with overlap
     ethr =  3.03E-04,  avg # of iterations =  4.0

     negative rho (up, down):  1.506E-07 0.000E+00

     total cpu time spent up to now is        5.1 secs

     total energy              =     -31.59475502 Ry
     Harris-Foulkes estimate   =     -31.60148850 Ry
     estimated scf accuracy    <       0.02177651 Ry

     iteration # 18     ecut=    30.00 Ry     beta=0.70
     Davidson diagonalization with overlap
     ethr =  2.72E-04,  avg # of iterations =  1.0

     negative rho (up, down):  2.041E-06 0.000E+00

     total cpu time spent up to now is        5.2 secs

     total energy              =     -31.59012523 Ry
     Harris-Foulkes estimate   =     -31.59282851 Ry
     estimated scf accuracy    <       0.01177075 Ry

     iteration # 19     ecut=    30.00 Ry     beta=0.70
     Davidson diagonalization with overlap
     ethr =  1.47E-04,  avg # of iterations =  1.0

     total cpu time spent up to now is        5.2 secs

     total energy              =     -31.58683203 Ry
     Harris-Foulkes estimate   =     -31.59406801 Ry
     estimated scf accuracy    <       0.05639952 Ry

     iteration # 20     ecut=    30.00 Ry     beta=0.70
     Davidson diagonalization with overlap
     ethr =  1.47E-04,  avg # of iterations =  1.0

     negative rho (up, down):  1.942E-07 0.000E+00

     total cpu time spent up to now is        5.2 secs

     total energy              =     -31.56134303 Ry
     Harris-Foulkes estimate   =     -31.59730214 Ry
     estimated scf accuracy    <       0.33817301 Ry

     iteration # 21     ecut=    30.00 Ry     beta=0.70
     Davidson diagonalization with overlap
     ethr =  1.47E-04,  avg # of iterations =  1.0

     total cpu time spent up to now is        5.3 secs

     total energy              =     -31.59797887 Ry
     Harris-Foulkes estimate   =     -31.60057824 Ry
     estimated scf accuracy    <       0.02117708 Ry

     iteration # 22     ecut=    30.00 Ry     beta=0.70
     Davidson diagonalization with overlap
     ethr =  1.47E-04,  avg # of iterations =  1.0

     total cpu time spent up to now is        5.3 secs

     total energy              =     -31.59249583 Ry
     Harris-Foulkes estimate   =     -31.59743884 Ry
     estimated scf accuracy    <       0.04801289 Ry

     iteration # 23     ecut=    30.00 Ry     beta=0.70
     Davidson diagonalization with overlap
     ethr =  1.47E-04,  avg # of iterations =  1.0

     total cpu time spent up to now is        5.3 secs

     total energy              =     -31.59183432 Ry
     Harris-Foulkes estimate   =     -31.59224076 Ry
     estimated scf accuracy    <       0.01491065 Ry

     iteration # 24     ecut=    30.00 Ry     beta=0.70
     Davidson diagonalization with overlap
     ethr =  1.47E-04,  avg # of iterations =  1.0

     total cpu time spent up to now is        5.4 secs

     total energy              =     -31.59161153 Ry
     Harris-Foulkes estimate   =     -31.59195768 Ry
     estimated scf accuracy    <       0.00218754 Ry

     iteration # 25     ecut=    30.00 Ry     beta=0.70
     Davidson diagonalization with overlap
     ethr =  2.73E-05,  avg # of iterations =  1.0

     total cpu time spent up to now is        5.4 secs

     total energy              =     -31.59002849 Ry
     Harris-Foulkes estimate   =     -31.59242843 Ry
     estimated scf accuracy    <       0.03242004 Ry

     iteration # 26     ecut=    30.00 Ry     beta=0.70
     Davidson diagonalization with overlap
     ethr =  2.73E-05,  avg # of iterations =  1.0

     total cpu time spent up to now is        5.4 secs

     total energy              =     -31.59146891 Ry
     Harris-Foulkes estimate   =     -31.59262393 Ry
     estimated scf accuracy    <       0.02872890 Ry

     iteration # 27     ecut=    30.00 Ry     beta=0.70
     Davidson diagonalization with overlap
     ethr =  2.73E-05,  avg # of iterations =  1.0

     total cpu time spent up to now is        5.4 secs

     total energy              =     -31.59188858 Ry
     Harris-Foulkes estimate   =     -31.59192187 Ry
     estimated scf accuracy    <       0.00051113 Ry

     iteration # 28     ecut=    30.00 Ry     beta=0.70
     Davidson diagonalization with overlap
     ethr =  6.39E-06,  avg # of iterations =  1.0

     total cpu time spent up to now is        5.5 secs

     total energy              =     -31.59190281 Ry
     Harris-Foulkes estimate   =     -31.59191872 Ry
     estimated scf accuracy    <       0.00033642 Ry

     iteration # 29     ecut=    30.00 Ry     beta=0.70
     Davidson diagonalization with overlap
     ethr =  4.21E-06,  avg # of iterations =  1.0

     total cpu time spent up to now is        5.5 secs

     total energy              =     -31.59191102 Ry
     Harris-Foulkes estimate   =     -31.59191318 Ry
     estimated scf accuracy    <       0.00003156 Ry

     iteration # 30     ecut=    30.00 Ry     beta=0.70
     Davidson diagonalization with overlap
     ethr =  3.94E-07,  avg # of iterations =  3.0

     total cpu time spent up to now is        5.6 secs

     total energy              =     -31.59191268 Ry
     Harris-Foulkes estimate   =     -31.59191274 Ry
     estimated scf accuracy    <       0.00001702 Ry

     iteration # 31     ecut=    30.00 Ry     beta=0.70
     Davidson diagonalization with overlap
     ethr =  2.13E-07,  avg # of iterations =  1.0

     total cpu time spent up to now is        5.6 secs

     total energy              =     -31.59191207 Ry
     Harris-Foulkes estimate   =     -31.59191268 Ry
     estimated scf accuracy    <       0.00001769 Ry

     iteration # 32     ecut=    30.00 Ry     beta=0.70
     Davidson diagonalization with overlap
     ethr =  2.13E-07,  avg # of iterations =  1.0

     total cpu time spent up to now is        5.6 secs

     total energy              =     -31.59191221 Ry
     Harris-Foulkes estimate   =     -31.59191232 Ry
     estimated scf accuracy    <       0.00000027 Ry

     iteration # 33     ecut=    30.00 Ry     beta=0.70
     Davidson diagonalization with overlap
     ethr =  3.38E-09,  avg # of iterations =  1.0

     total cpu time spent up to now is        5.6 secs

     total energy              =     -31.59191222 Ry
     Harris-Foulkes estimate   =     -31.59191222 Ry
     estimated scf accuracy    <       0.00000004 Ry

     iteration # 34     ecut=    30.00 Ry     beta=0.70
     Davidson diagonalization with overlap
     ethr =  4.78E-10,  avg # of iterations =  1.0

     total cpu time spent up to now is        5.7 secs

     total energy              =     -31.59191217 Ry
     Harris-Foulkes estimate   =     -31.59191222 Ry
     estimated scf accuracy    <       0.00000007 Ry

     iteration # 35     ecut=    30.00 Ry     beta=0.70
     Davidson diagonalization with overlap
     ethr =  4.78E-10,  avg # of iterations =  1.0

     total cpu time spent up to now is        5.7 secs

     End of self-consistent calculation

          k = 0.0000 0.0000 0.0000 ( 22119 PWs)   bands (ev):

   -24.1483  -7.6631  -7.5181  -7.5178  -7.5172  -5.6892  -0.2889   0.5629

     the Fermi energy is    -7.3875 ev

!    total energy              =     -31.59191216 Ry
     Harris-Foulkes estimate   =     -31.59191217 Ry
     estimated scf accuracy    <          3.1E-09 Ry

     convergence has been achieved in  35 iterations

     Forces acting on atoms (Ry/au):

     atom    1 type  1   force =     0.02179398    0.03402073    0.06890965
     atom    2 type  1   force =    -0.02141592   -0.03436148   -0.06721258
     atom    3 type  2   force =    -0.00037806    0.00034075   -0.00169706

     Total force =     0.111986     Total SCF correction =     0.000014

     Entering Dynamics:    iteration =     3
                           time      =   0.0145 pico-seconds


     Andersen thermostat:    3 collisions

ATOMIC_POSITIONS (bohr)
H        2.435009601  14.634433734   2.960467390
H        3.105528892  15.632098917  24.656536315
O        6.347190483   4.736890674  16.589413062


     kinetic energy (Ekin) =     0.03842691 Ry
     temperature           =  2022.37380804 K 
     Ekin + Etot (const)   =   -31.55348525 Ry
     Message from routine dynamics:
     Total linear momentum <> 0

     Linear momentum :   -0.0707416965    0.1112508152    0.0379155910

     Writing output data file pwscf.save

     second order wave-functions extrapolation
     Check: negative starting charge=   -0.359042
     second order charge density extrapolation
     Check: negative starting charge=   -0.363930

     negative rho (up, down):  8.199E-02 0.000E+00

     total cpu time spent up to now is        6.0 secs

     per-process dynamical memory:    20.4 Mb

     Self-consistent Calculation

     iteration #  1     ecut=    30.00 Ry     beta=0.70
     Davidson diagonalization with overlap
     ethr =  1.00E-06,  avg # of iterations =  9.0

     negative rho (up, down):  1.180E-02 0.000E+00

     total cpu time spent up to now is        6.2 secs

     total energy              =      16.67110708 Ry
     Harris-Foulkes estimate   =     -94.82281483 Ry
     estimated scf accuracy    <      11.39279301 Ry

     iteration #  2     ecut=    30.00 Ry     beta=0.70
     Davidson diagonalization with overlap
     ethr =  1.00E-02,  avg # of iterations =  4.0

     negative rho (up, down):  7.870E-03 0.000E+00

     total cpu time spent up to now is        6.2 secs

     total energy              =     -32.94907581 Ry
     Harris-Foulkes estimate   =     -41.25781562 Ry
     estimated scf accuracy    <      17.53310368 Ry

     iteration #  3     ecut=    30.00 Ry     beta=0.70
     Davidson diagonalization with overlap
     ethr =  1.00E-02,  avg # of iterations =  2.0

     negative rho (up, down):  5.126E-03 0.000E+00

     total cpu time spent up to now is        6.3 secs

     total energy              =     -31.08850696 Ry
     Harris-Foulkes estimate   =     -33.45045035 Ry
     estimated scf accuracy    <       6.08538378 Ry

     iteration #  4     ecut=    30.00 Ry     beta=0.70
     Davidson diagonalization with overlap
     ethr =  1.00E-02,  avg # of iterations =  5.0

     negative rho (up, down):  3.891E-03 0.000E+00

     total cpu time spent up to now is        6.3 secs

     total energy              =     -31.85057247 Ry
     Harris-Foulkes estimate   =     -32.64090706 Ry
     estimated scf accuracy    <       1.18484846 Ry

     iteration #  5     ecut=    30.00 Ry     beta=0.70
     Davidson diagonalization with overlap
     ethr =  1.00E-02,  avg # of iterations =  3.0

     negative rho (up, down):  3.769E-03 0.000E+00

     total cpu time spent up to now is        6.3 secs

     total energy              =     -32.17533702 Ry
     Harris-Foulkes estimate   =     -32.24018550 Ry
     estimated scf accuracy    <       0.90896321 Ry

     iteration #  6     ecut=    30.00 Ry     beta=0.70
     Davidson diagonalization with overlap
     ethr =  1.00E-02,  avg # of iterations =  1.0

     negative rho (up, down):  3.256E-03 0.000E+00

     total cpu time spent up to now is        6.4 secs

     total energy              =     -32.04519573 Ry
     Harris-Foulkes estimate   =     -32.17472266 Ry
     estimated scf accuracy    <       0.75673609 Ry

     iteration #  7     ecut=    30.00 Ry     beta=0.70
     Davidson diagonalization with overlap
     ethr =  9.46E-03,  avg # of iterations =  3.0

     negative rho (up, down):  2.947E-03 0.000E+00

     total cpu time spent up to now is        6.4 secs

     total energy              =     -25.67522377 Ry
     Harris-Foulkes estimate   =     -33.84951991 Ry
     estimated scf accuracy    <       2.74520065 Ry

     iteration #  8     ecut=    30.00 Ry     beta=0.70
     Davidson diagonalization with overlap
     ethr =  9.46E-03,  avg # of iterations =  3.0

     negative rho (up, down):  3.556E-04 0.000E+00

     total cpu time spent up to now is        6.4 secs

     total energy              =     -31.28737277 Ry
     Harris-Foulkes estimate   =     -32.20694291 Ry
     estimated scf accuracy    <       4.65437149 Ry

     iteration #  9     ecut=    30.00 Ry     beta=0.70
     Davidson diagonalization with overlap
     ethr =  9.46E-03,  avg # of iterations =  1.0

     negative rho (up, down):  3.465E-04 0.000E+00

     total cpu time spent up to now is        6.5 secs

     total energy              =     -31.87839568 Ry
     Harris-Foulkes estimate   =     -31.87769330 Ry
     estimated scf accuracy    <       0.05182829 Ry

     iteration # 10     ecut=    30.00 Ry     beta=0.70
     Davidson diagonalization with overlap
     ethr =  6.48E-04,  avg # of iterations =  4.0

     negative rho (up, down):  3.461E-05 0.000E+00

     total cpu time spent up to now is        6.5 secs

     total energy              =     -31.91348763 Ry
     Harris-Foulkes estimate   =     -31.87903828 Ry
     estimated scf accuracy    <       0.05414155 Ry

     iteration # 11     ecut=    30.00 Ry     beta=0.70
     Davidson diagonalization with overlap
     ethr =  6.48E-04,  avg # of iterations =  1.0

     negative rho (up, down):  4.054E-03 0.000E+00

     total cpu time spent up to now is        6.5 secs

     total energy              =     -31.85411406 Ry
     Harris-Foulkes estimate   =     -31.91543921 Ry
     estimated scf accuracy    <       0.09373337 Ry

     iteration # 12     ecut=    30.00 Ry     beta=0.70
     Davidson diagonalization with overlap
     ethr =  6.48E-04,  avg # of iterations =  3.0

     negative rho (up, down):  2.239E-03 0.000E+00

     total cpu time spent up to now is        6.6 secs

     total energy              =     -31.87345048 Ry
     Harris-Foulkes estimate   =     -31.86357332 Ry
     estimated scf accuracy    <       0.02495813 Ry

     iteration # 13     ecut=    30.00 Ry     beta=0.70
     Davidson diagonalization with overlap
     ethr =  3.12E-04,  avg # of iterations =  1.0

     negative rho (up, down):  2.202E-03 0.000E+00

     total cpu time spent up to now is        6.6 secs

     total energy              =     -31.86382692 Ry
     Harris-Foulkes estimate   =     -31.86657478 Ry
     estimated scf accuracy    <       0.00530603 Ry

     iteration # 14     ecut=    30.00 Ry     beta=0.70
     Davidson diagonalization with overlap
     ethr =  6.63E-05,  avg # of iterations =  9.0

     negative rho (up, down):  2.186E-03 0.000E+00

     total cpu time spent up to now is        6.7 secs

     total energy              =     -31.85322938 Ry
     Harris-Foulkes estimate   =     -31.86254256 Ry
     estimated scf accuracy    <       0.02559050 Ry

     iteration # 15     ecut=    30.00 Ry     beta=0.70
     Davidson diagonalization with overlap
     ethr =  6.63E-05,  avg # of iterations =  3.0

     negative rho (up, down):  1.277E-03 0.000E+00

     total cpu time spent up to now is        6.7 secs

     total energy              =     -31.72665140 Ry
     Harris-Foulkes estimate   =     -31.91434576 Ry
     estimated scf accuracy    <       3.51421354 Ry

     iteration # 16     ecut=    30.00 Ry     beta=0.70
     Davidson diagonalization with overlap
     ethr =  6.63E-05,  avg # of iterations =  4.0

     negative rho (up, down):  8.421E-04 0.000E+00

     total cpu time spent up to now is        6.7 secs

     total energy              =     -31.86503035 Ry
     Harris-Foulkes estimate   =     -31.86486360 Ry
     estimated scf accuracy    <       0.00165854 Ry

     iteration # 17     ecut=    30.00 Ry     beta=0.70
     Davidson diagonalization with overlap
     ethr =  2.07E-05,  avg # of iterations =  1.0

     negative rho (up, down):  9.504E-04 0.000E+00

     total cpu time spent up to now is        6.8 secs

     total energy              =     -31.86414532 Ry
     Harris-Foulkes estimate   =     -31.86504253 Ry
     estimated scf accuracy    <       0.00219251 Ry

     iteration # 18     ecut=    30.00 Ry     beta=0.70
     Davidson diagonalization with overlap
     ethr =  2.07E-05,  avg # of iterations =  1.0

     negative rho (up, down):  3.903E-05 0.000E+00

     total cpu time spent up to now is        6.8 secs

     total energy              =     -31.86254942 Ry
     Harris-Foulkes estimate   =     -31.86150034 Ry
     estimated scf accuracy    <       0.02094236 Ry

     iteration # 19     ecut=    30.00 Ry     beta=0.70
     Davidson diagonalization with overlap
     ethr =  2.07E-05,  avg # of iterations =  1.0

     negative rho (up, down):  1.436E-07 0.000E+00

     total cpu time spent up to now is        6.8 secs

     total energy              =     -31.86455540 Ry
     Harris-Foulkes estimate   =     -31.86280179 Ry
     estimated scf accuracy    <       0.02591158 Ry

     iteration # 20     ecut=    30.00 Ry     beta=0.70
     Davidson diagonalization with overlap
     ethr =  2.07E-05,  avg # of iterations =  1.0

     negative rho (up, down):  2.585E-08 0.000E+00

     total cpu time spent up to now is        6.9 secs

     total energy              =     -31.86275292 Ry
     Harris-Foulkes estimate   =     -31.86425365 Ry
     estimated scf accuracy    <       0.00975012 Ry

     iteration # 21     ecut=    30.00 Ry     beta=0.70
     Davidson diagonalization with overlap
     ethr =  2.07E-05,  avg # of iterations =  1.0

     total cpu time spent up to now is        6.9 secs

     total energy              =     -31.86139451 Ry
     Harris-Foulkes estimate   =     -31.86195195 Ry
     estimated scf accuracy    <       0.02473345 Ry

     iteration # 22     ecut=    30.00 Ry     beta=0.70
     Davidson diagonalization with overlap
     ethr =  2.07E-05,  avg # of iterations =  1.0

     total cpu time spent up to now is        6.9 secs

     total energy              =     -31.86136002 Ry
     Harris-Foulkes estimate   =     -31.86144343 Ry
     estimated scf accuracy    <       0.01559631 Ry

     iteration # 23     ecut=    30.00 Ry     beta=0.70
     Davidson diagonalization with overlap
     ethr =  2.07E-05,  avg # of iterations =  1.0

     total cpu time spent up to now is        7.0 secs

     total energy              =     -31.86091781 Ry
     Harris-Foulkes estimate   =     -31.86136356 Ry
     estimated scf accuracy    <       0.01336500 Ry

     iteration # 24     ecut=    30.00 Ry     beta=0.70
     Davidson diagonalization with overlap
     ethr =  2.07E-05,  avg # of iterations =  1.0

     total cpu time spent up to now is        7.0 secs

     total energy              =     -31.86092848 Ry
     Harris-Foulkes estimate   =     -31.86103876 Ry
     estimated scf accuracy    <       0.00213274 Ry

     iteration # 25     ecut=    30.00 Ry     beta=0.70
     Davidson diagonalization with overlap
     ethr =  2.07E-05,  avg # of iterations =  1.0

     total cpu time spent up to now is        7.0 secs

     total energy              =     -31.86099174 Ry
     Harris-Foulkes estimate   =     -31.86099637 Ry
     estimated scf accuracy    <       0.00015839 Ry

     iteration # 26     ecut=    30.00 Ry     beta=0.70
     Davidson diagonalization with overlap
     ethr =  1.98E-06,  avg # of iterations =  3.0

     total cpu time spent up to now is        7.1 secs

     total energy              =     -31.86099408 Ry
     Harris-Foulkes estimate   =     -31.86099411 Ry
     estimated scf accuracy    <       0.00000220 Ry

     iteration # 27     ecut=    30.00 Ry     beta=0.70
     Davidson diagonalization with overlap
     ethr =  2.74E-08,  avg # of iterations =  1.0

     total cpu time spent up to now is        7.1 secs

     total energy              =     -31.86099417 Ry
     Harris-Foulkes estimate   =     -31.86099412 Ry
     estimated scf accuracy    <       0.00000007 Ry

     iteration # 28     ecut=    30.00 Ry     beta=0.70
     Davidson diagonalization with overlap
     ethr =  9.09E-10,  avg # of iterations =  1.0

     total cpu time spent up to now is        7.1 secs

     total energy              =     -31.86099416 Ry
     Harris-Foulkes estimate   =     -31.86099429 Ry
     estimated scf accuracy    <       0.00000507 Ry

     iteration # 29     ecut=    30.00 Ry     beta=0.70
     Davidson diagonalization with overlap
     ethr =  9.09E-10,  avg # of iterations =  1.0

     total cpu time spent up to now is        7.2 secs

     total energy              =     -31.86099425 Ry
     Harris-Foulkes estimate   =     -31.86099423 Ry
     estimated scf accuracy    <       0.00000017 Ry

     iteration # 30     ecut=    30.00 Ry     beta=0.70
     Davidson diagonalization with overlap
     ethr =  9.09E-10,  avg # of iterations =  1.0

     total cpu time spent up to now is        7.2 secs

     total energy              =     -31.86099427 Ry
     Harris-Foulkes estimate   =     -31.86099427 Ry
     estimated scf accuracy    <       0.00000020 Ry

     iteration # 31     ecut=    30.00 Ry     beta=0.70
     Davidson diagonalization with overlap
     ethr =  9.09E-10,  avg # of iterations =  1.0

     total cpu time spent up to now is        7.2 secs

     End of self-consistent calculation

          k = 0.0000 0.0000 0.0000 ( 22119 PWs)   bands (ev):

   -25.1985  -8.6897  -8.4945  -8.4940  -8.4937  -1.0788  -0.3683   0.7061

     the Fermi energy is    -8.3718 ev

!    total energy              =     -31.86099427 Ry
     Harris-Foulkes estimate   =     -31.86099427 Ry
     estimated scf accuracy    <          9.9E-10 Ry

     convergence has been achieved in  31 iterations

     Forces acting on atoms (Ry/au):

     atom    1 type  1   force =     0.05698876    0.08399772    0.14386894
     atom    2 type  1   force =    -0.05609339   -0.08432695   -0.14250665
     atom    3 type  2   force =    -0.00089537    0.00032923   -0.00136229

     Total force =     0.248133     Total SCF correction =     0.000006

     Entering Dynamics:    iteration =     4
                           time      =   0.0194 pico-seconds


     Andersen thermostat:    3 collisions

ATOMIC_POSITIONS (bohr)
H        3.172865414  15.361974006   4.552676914
H        2.695896558  15.059028372  22.908941431
O        6.326471376   4.727139772  16.599221763


     kinetic energy (Ekin) =     0.08965570 Ry
     temperature           =  4718.49929531 K 
     Ekin + Etot (const)   =   -31.77133858 Ry
     Message from routine dynamics:
     Total linear momentum <> 0

     Linear momentum :   -0.1858340441   -0.0815514764   -0.3917554931

     Writing output data file pwscf.save

     second order wave-functions extrapolation
     Check: negative starting charge=   -0.363930
     second order charge density extrapolation
     Check: negative starting charge=   -0.364407

     negative rho (up, down):  1.382E-01 0.000E+00

     total cpu time spent up to now is        7.5 secs

     per-process dynamical memory:    20.4 Mb

     Self-consistent Calculation

     iteration #  1     ecut=    30.00 Ry     beta=0.70
     Davidson diagonalization with overlap
     c_bands:  1 eigenvalues not converged
     ethr =  1.00E-06,  avg # of iterations = 20.0

     negative rho (up, down):  3.787E-02 0.000E+00

     total cpu time spent up to now is        7.9 secs

     total energy              =     -28.22066106 Ry
     Harris-Foulkes estimate   =     -32.41731466 Ry
     estimated scf accuracy    <       5.18420450 Ry

     iteration #  2     ecut=    30.00 Ry     beta=0.70
     Davidson diagonalization with overlap
     ethr =  1.00E-02,  avg # of iterations =  5.0

     negative rho (up, down):  1.295E-02 0.000E+00

     total cpu time spent up to now is        7.9 secs

     total energy              =     -27.98765784 Ry
     Harris-Foulkes estimate   =     -39.62563411 Ry
     estimated scf accuracy    <      37.60936055 Ry

     iteration #  3     ecut=    30.00 Ry     beta=0.70
     Davidson diagonalization with overlap
     ethr =  1.00E-02,  avg # of iterations =  2.0

     negative rho (up, down):  1.469E-03 0.000E+00

     total cpu time spent up to now is        8.0 secs

     total energy              =     -30.39110474 Ry
     Harris-Foulkes estimate   =     -30.71071982 Ry
     estimated scf accuracy    <      11.17160894 Ry

     iteration #  4     ecut=    30.00 Ry     beta=0.70
     Davidson diagonalization with overlap
     ethr =  1.00E-02,  avg # of iterations =  1.0

     negative rho (up, down):  1.866E-01 0.000E+00

     total cpu time spent up to now is        8.0 secs

     total energy              =     -28.18740351 Ry
     Harris-Foulkes estimate   =     -30.39712067 Ry
     estimated scf accuracy    <      10.81011520 Ry

     iteration #  5     ecut=    30.00 Ry     beta=0.70
     Davidson diagonalization with overlap
     ethr =  1.00E-02,  avg # of iterations =  5.0

     negative rho (up, down):  6.973E-02 0.000E+00

     total cpu time spent up to now is        8.0 secs

     total energy              =     -31.94642439 Ry
     Harris-Foulkes estimate   =     -32.06816973 Ry
     estimated scf accuracy    <       0.60633384 Ry

     iteration #  6     ecut=    30.00 Ry     beta=0.70
     Davidson diagonalization with overlap
     ethr =  7.58E-03,  avg # of iterations =  1.0

     negative rho (up, down):  3.249E-06 0.000E+00

     total cpu time spent up to now is        8.1 secs

     total energy              =     -31.83513518 Ry
     Harris-Foulkes estimate   =     -31.95317790 Ry
     estimated scf accuracy    <       0.31146221 Ry

     iteration #  7     ecut=    30.00 Ry     beta=0.70
     Davidson diagonalization with overlap
     ethr =  3.89E-03,  avg # of iterations =  1.0

     negative rho (up, down):  5.250E-02 0.000E+00

     total cpu time spent up to now is        8.1 secs

     total energy              =     -31.83547282 Ry
     Harris-Foulkes estimate   =     -31.85413396 Ry
     estimated scf accuracy    <       0.03000750 Ry

[...]

     total cpu time spent up to now is       15.0 secs

     total energy              =     -73.58486949 Ry
     Harris-Foulkes estimate   =     -74.46611024 Ry
     estimated scf accuracy    <      56.96560804 Ry

     iteration # 59     ecut=    30.00 Ry     beta=0.70
     Davidson diagonalization with overlap
     ethr =  1.00E-02,  avg # of iterations =  5.0

     negative rho (up, down):  2.238E-02 0.000E+00

     total cpu time spent up to now is       15.0 secs

     total energy              =      45.72384036 Ry
     Harris-Foulkes estimate   =    -994.72294355 Ry
     estimated scf accuracy    <      17.27192198 Ry

     iteration # 60     ecut=    30.00 Ry     beta=0.70
     Davidson diagonalization with overlap
     ethr =  1.00E-02,  avg # of iterations =  5.0

     total cpu time spent up to now is       15.1 secs

     total energy              =      34.79990145 Ry
     Harris-Foulkes estimate   =    -318.66532620 Ry
     estimated scf accuracy    <      18.57722888 Ry

     iteration # 61     ecut=    30.00 Ry     beta=0.70
     Davidson diagonalization with overlap
     ethr =  1.00E-02,  avg # of iterations =  8.0

     negative rho (up, down):  1.694E-02 0.000E+00

     total cpu time spent up to now is       15.1 secs

     total energy              =     -69.62193667 Ry
     Harris-Foulkes estimate   =     -72.70435470 Ry
     estimated scf accuracy    <      54.39137746 Ry

     iteration # 62     ecut=    30.00 Ry     beta=0.70
     Davidson diagonalization with overlap
     ethr =  1.00E-02,  avg # of iterations =  1.0

     negative rho (up, down):  1.137E-01 0.000E+00

     total cpu time spent up to now is       15.1 secs

     total energy              =     -64.72780938 Ry
     Harris-Foulkes estimate   =     -69.63209729 Ry
     estimated scf accuracy    <      50.31410020 Ry

     iteration # 63     ecut=    30.00 Ry     beta=0.70
     Davidson diagonalization with overlap
     ethr =  1.00E-02,  avg # of iterations = 15.0

     negative rho (up, down):  2.305E-01 0.000E+00

     total cpu time spent up to now is       15.2 secs

     total energy              =      37.17838989 Ry
     Harris-Foulkes estimate   =    -356.46760165 Ry
     estimated scf accuracy    <      31.74376761 Ry

     iteration # 64     ecut=    30.00 Ry     beta=0.70
     Davidson diagonalization with overlap
     ethr =  1.00E-02,  avg # of iterations =  5.0

     negative rho (up, down):  2.232E-01 0.000E+00

     total cpu time spent up to now is       15.2 secs

     total energy              =     -64.20258121 Ry
     Harris-Foulkes estimate   =   -1444.12535371 Ry
     estimated scf accuracy    <      15.29477253 Ry

     iteration # 65     ecut=    30.00 Ry     beta=0.70
     Davidson diagonalization with overlap
     ethr =  1.00E-02,  avg # of iterations =  7.0

     negative rho (up, down):  9.506E-05 0.000E+00

     total cpu time spent up to now is       15.3 secs

     total energy              =     152.78516199 Ry
     Harris-Foulkes estimate   =   -1834.62137447 Ry
     estimated scf accuracy    <      28.22638626 Ry

     iteration # 66     ecut=    30.00 Ry     beta=0.70
     Davidson diagonalization with overlap
     ethr =  1.00E-02,  avg # of iterations =  9.0

     negative rho (up, down):  1.534E-03 0.000E+00

     total cpu time spent up to now is       15.3 secs

     total energy              =     -64.60039466 Ry
     Harris-Foulkes estimate   =     -66.84341998 Ry
     estimated scf accuracy    <      47.22866149 Ry

     iteration # 67     ecut=    30.00 Ry     beta=0.70
     Davidson diagonalization with overlap
     ethr =  1.00E-02,  avg # of iterations =  1.0

     negative rho (up, down):  3.822E-03 0.000E+00

     total cpu time spent up to now is       15.4 secs

     total energy              =     -60.85889818 Ry
     Harris-Foulkes estimate   =     -64.60484346 Ry
     estimated scf accuracy    <      44.41341926 Ry

     iteration # 68     ecut=    30.00 Ry     beta=0.70
     Davidson diagonalization with overlap
     ethr =  1.00E-02,  avg # of iterations =  1.0

     negative rho (up, down):  7.604E-01 0.000E+00

     total cpu time spent up to now is       15.4 secs

     total energy              =     -55.92927102 Ry
     Harris-Foulkes estimate   =     -60.86994046 Ry
     estimated scf accuracy    <      39.78735293 Ry

     iteration # 69     ecut=    30.00 Ry     beta=0.70
     Davidson diagonalization with overlap
     ethr =  1.00E-02,  avg # of iterations =  2.0

     negative rho (up, down):  1.257E-01 0.000E+00

     total cpu time spent up to now is       15.5 secs

     total energy              =     -59.35096747 Ry
     Harris-Foulkes estimate   =     -55.97293474 Ry
     estimated scf accuracy    <      33.27902168 Ry

     iteration # 70     ecut=    30.00 Ry     beta=0.70
     Davidson diagonalization with overlap
     ethr =  1.00E-02,  avg # of iterations =  5.0

     negative rho (up, down):  2.863E-01 0.000E+00

     total cpu time spent up to now is       15.5 secs

     total energy              =     -13.63787079 Ry
     Harris-Foulkes estimate   =   -1714.85602055 Ry
     estimated scf accuracy    <      44.47536687 Ry

     iteration # 71     ecut=    30.00 Ry     beta=0.70
     Davidson diagonalization with overlap
     ethr =  1.00E-02,  avg # of iterations =  6.0

     negative rho (up, down):  2.622E-01 0.000E+00

     total cpu time spent up to now is       15.5 secs

     total energy              =      81.75250591 Ry
     Harris-Foulkes estimate   =    -354.51628747 Ry
     estimated scf accuracy    <      34.27033047 Ry

     iteration # 72     ecut=    30.00 Ry     beta=0.70
     Davidson diagonalization with overlap
     ethr =  1.00E-02,  avg # of iterations =  9.0

     negative rho (up, down):  4.721E-01 0.000E+00

     total cpu time spent up to now is       15.6 secs

     total energy              =       9.26875803 Ry
     Harris-Foulkes estimate   =    -474.56852012 Ry
     estimated scf accuracy    <      12.68594538 Ry

     iteration # 73     ecut=    30.00 Ry     beta=0.70
     Davidson diagonalization with overlap
     ethr =  1.00E-02,  avg # of iterations =  9.0

     negative rho (up, down):  3.968E-02 0.000E+00

     total cpu time spent up to now is       15.7 secs

     total energy              =      62.24950215 Ry
     Harris-Foulkes estimate   =    -723.65741777 Ry
     estimated scf accuracy    <      21.95474986 Ry

     iteration # 74     ecut=    30.00 Ry     beta=0.70
     Davidson diagonalization with overlap
     ethr =  1.00E-02,  avg # of iterations =  6.0

     negative rho (up, down):  3.654E-03 0.000E+00

     total cpu time spent up to now is       15.7 secs

     total energy              =      36.19843781 Ry
     Harris-Foulkes estimate   =    -280.02845653 Ry
     estimated scf accuracy    <      13.66299057 Ry

     iteration # 75     ecut=    30.00 Ry     beta=0.70
     Davidson diagonalization with overlap
     ethr =  1.00E-02,  avg # of iterations =  8.0

     negative rho (up, down):  2.697E-03 0.000E+00

     total cpu time spent up to now is       15.7 secs

     total energy              =      33.24215104 Ry
     Harris-Foulkes estimate   =    -169.79061316 Ry
     estimated scf accuracy    <      11.35961570 Ry

     iteration # 76     ecut=    30.00 Ry     beta=0.70
     Davidson diagonalization with overlap
     ethr =  1.00E-02,  avg # of iterations =  6.0

     negative rho (up, down):  6.454E-02 0.000E+00

     total cpu time spent up to now is       15.8 secs

     total energy              =     -12.26887404 Ry
     Harris-Foulkes estimate   =    -105.85452185 Ry
     estimated scf accuracy    <      17.73822685 Ry

     iteration # 77     ecut=    30.00 Ry     beta=0.70
     Davidson diagonalization with overlap
     ethr =  1.00E-02,  avg # of iterations = 10.0

     negative rho (up, down):  8.567E-02 0.000E+00

     total cpu time spent up to now is       15.8 secs

     total energy              =      84.92219583 Ry
     Harris-Foulkes estimate   =    -179.89837444 Ry
     estimated scf accuracy    <      35.78064105 Ry

     iteration # 78     ecut=    30.00 Ry     beta=0.70
     Davidson diagonalization with overlap
     ethr =  1.00E-02,  avg # of iterations =  9.0

     negative rho (up, down):  2.970E-02 0.000E+00

     total cpu time spent up to now is       15.9 secs

     total energy              =      69.08399106 Ry
     Harris-Foulkes estimate   =    -144.44486099 Ry
     estimated scf accuracy    <      13.23089757 Ry

     iteration # 79     ecut=    30.00 Ry     beta=0.70
     Davidson diagonalization with overlap
     ethr =  1.00E-02,  avg # of iterations =  4.0

     negative rho (up, down):  2.655E-02 0.000E+00

     total cpu time spent up to now is       15.9 secs

     total energy              =     -51.60926318 Ry
     Harris-Foulkes estimate   =     -52.23783127 Ry
     estimated scf accuracy    <      29.19772633 Ry

     iteration # 80     ecut=    30.00 Ry     beta=0.70
     Davidson diagonalization with overlap
     ethr =  1.00E-02,  avg # of iterations =  1.0

     negative rho (up, down):  7.477E-02 0.000E+00

     total cpu time spent up to now is       16.0 secs

     total energy              =     -50.06285458 Ry
     Harris-Foulkes estimate   =     -51.61018177 Ry
     estimated scf accuracy    <      28.27939174 Ry

     iteration # 81     ecut=    30.00 Ry     beta=0.70
     Davidson diagonalization with overlap
     ethr =  1.00E-02,  avg # of iterations =  1.0

     negative rho (up, down):  1.924E-01 0.000E+00

     total cpu time spent up to now is       16.0 secs

     total energy              =     -47.93904656 Ry
     Harris-Foulkes estimate   =     -50.06371160 Ry
     estimated scf accuracy    <      26.52579319 Ry

     iteration # 82     ecut=    30.00 Ry     beta=0.70
     Davidson diagonalization with overlap
     ethr =  1.00E-02,  avg # of iterations =  1.0

     negative rho (up, down):  2.699E-01 0.000E+00

     total cpu time spent up to now is       16.0 secs

     total energy              =     -46.54416782 Ry
     Harris-Foulkes estimate   =     -47.94347920 Ry
     estimated scf accuracy    <      23.84167035 Ry

     iteration # 83     ecut=    30.00 Ry     beta=0.70
     Davidson diagonalization with overlap
     ethr =  1.00E-02,  avg # of iterations =  8.0

     negative rho (up, down):  2.589E-01 0.000E+00

     total cpu time spent up to now is       16.1 secs

     total energy              =     138.86278734 Ry
     Harris-Foulkes estimate   =   -3066.20763448 Ry
     estimated scf accuracy    <      50.10511599 Ry

     iteration # 84     ecut=    30.00 Ry     beta=0.70
     Davidson diagonalization with overlap
     ethr =  1.00E-02,  avg # of iterations =  9.0

     negative rho (up, down):  2.815E-01 0.000E+00

     total cpu time spent up to now is       16.1 secs

     total energy              =     -60.99432819 Ry
     Harris-Foulkes estimate   =     -69.41969774 Ry
     estimated scf accuracy    <      13.42662031 Ry

     iteration # 85     ecut=    30.00 Ry     beta=0.70
     Davidson diagonalization with overlap
     ethr =  1.00E-02,  avg # of iterations =  8.0

     negative rho (up, down):  1.669E-01 0.000E+00

     total cpu time spent up to now is       16.2 secs

     total energy              =    -165.32351646 Ry
     Harris-Foulkes estimate   =   -6348.06089189 Ry
     estimated scf accuracy    <      27.54179383 Ry

     iteration # 86     ecut=    30.00 Ry     beta=0.70
     Davidson diagonalization with overlap
     ethr =  1.00E-02,  avg # of iterations =  6.0

     total cpu time spent up to now is       16.3 secs

     total energy              =     124.26403834 Ry
     Harris-Foulkes estimate   =    -713.40974562 Ry
     estimated scf accuracy    <      47.93914733 Ry

     iteration # 87     ecut=    30.00 Ry     beta=0.70
     Davidson diagonalization with overlap
     ethr =  1.00E-02,  avg # of iterations =  8.0

     negative rho (up, down):  1.757E-01 0.000E+00

     total cpu time spent up to now is       16.3 secs

     total energy              =     -44.45826356 Ry
     Harris-Foulkes estimate   =     -46.87847552 Ry
     estimated scf accuracy    <      22.66750482 Ry

     iteration # 88     ecut=    30.00 Ry     beta=0.70
     Davidson diagonalization with overlap
     ethr =  1.00E-02,  avg # of iterations =  4.0

     negative rho (up, down):  1.925E-02 0.000E+00

     total cpu time spent up to now is       16.4 secs

     total energy              =       1.96838835 Ry
     Harris-Foulkes estimate   =    -699.87652539 Ry
     estimated scf accuracy    <      12.26286863 Ry

     iteration # 89     ecut=    30.00 Ry     beta=0.70
     Davidson diagonalization with overlap
     ethr =  1.00E-02,  avg # of iterations =  5.0

     negative rho (up, down):  4.240E-02 0.000E+00

     total cpu time spent up to now is       16.4 secs

     total energy              =     -43.22080212 Ry
     Harris-Foulkes estimate   =     -43.32819865 Ry
     estimated scf accuracy    <      17.76950662 Ry

     iteration # 90     ecut=    30.00 Ry     beta=0.70
     Davidson diagonalization with overlap
     ethr =  1.00E-02,  avg # of iterations = 10.0

     negative rho (up, down):  6.461E-02 0.000E+00

     total cpu time spent up to now is       16.5 secs

     total energy              =      19.44805242 Ry
     Harris-Foulkes estimate   =    -115.40411961 Ry
     estimated scf accuracy    <      13.00099051 Ry

     iteration # 91     ecut=    30.00 Ry     beta=0.70
     Davidson diagonalization with overlap
     ethr =  1.00E-02,  avg # of iterations =  6.0

     negative rho (up, down):  7.269E-02 0.000E+00

     total cpu time spent up to now is       16.5 secs

     total energy              =      -3.06800385 Ry
     Harris-Foulkes estimate   =    -166.98396089 Ry
     estimated scf accuracy    <      22.09429547 Ry

     iteration # 92     ecut=    30.00 Ry     beta=0.70
     Davidson diagonalization with overlap
     ethr =  1.00E-02,  avg # of iterations =  6.0

     negative rho (up, down):  9.445E-02 0.000E+00

     total cpu time spent up to now is       16.6 secs

     total energy              =    -100.93984458 Ry
     Harris-Foulkes estimate   =    -362.47350161 Ry
     estimated scf accuracy    <      25.67721228 Ry

     iteration # 93     ecut=    30.00 Ry     beta=0.70
     Davidson diagonalization with overlap
     ethr =  1.00E-02,  avg # of iterations =  7.0

     negative rho (up, down):  6.711E-02 0.000E+00

     total cpu time spent up to now is       16.6 secs

     total energy              =     -34.56501461 Ry
     Harris-Foulkes estimate   =    -336.89987641 Ry
     estimated scf accuracy    <      39.98984548 Ry

     iteration # 94     ecut=    30.00 Ry     beta=0.70
     Davidson diagonalization with overlap
     ethr =  1.00E-02,  avg # of iterations =  8.0

     negative rho (up, down):  4.208E-02 0.000E+00

     total cpu time spent up to now is       16.7 secs

     total energy              =     -65.34308071 Ry
     Harris-Foulkes estimate   =    -141.56838541 Ry
     estimated scf accuracy    <      18.26817100 Ry

     iteration # 95     ecut=    30.00 Ry     beta=0.70
     Davidson diagonalization with overlap
     ethr =  1.00E-02,  avg # of iterations =  6.0

     negative rho (up, down):  1.606E-01 0.000E+00

     total cpu time spent up to now is       16.7 secs

     total energy              =    -318.00358121 Ry
     Harris-Foulkes estimate   =    -199.81398624 Ry
     estimated scf accuracy    <      66.70179512 Ry

     iteration # 96     ecut=    30.00 Ry     beta=0.70
     Davidson diagonalization with overlap
     ethr =  1.00E-02,  avg # of iterations =  5.0

     negative rho (up, down):  3.360E-01 0.000E+00

     total cpu time spent up to now is       16.8 secs

     total energy              =      74.79383007 Ry
     Harris-Foulkes estimate   =   -1160.58762784 Ry
     estimated scf accuracy    <      29.59054813 Ry

     iteration # 97     ecut=    30.00 Ry     beta=0.70
     Davidson diagonalization with overlap
     ethr =  1.00E-02,  avg # of iterations = 11.0

     negative rho (up, down):  5.082E-01 0.000E+00

     total cpu time spent up to now is       16.8 secs

     total energy              =      -8.84294362 Ry
     Harris-Foulkes estimate   =    -543.38553235 Ry
     estimated scf accuracy    <      16.60012378 Ry

     iteration # 98     ecut=    30.00 Ry     beta=0.70
     Davidson diagonalization with overlap
     ethr =  1.00E-02,  avg # of iterations =  8.0

     negative rho (up, down):  4.870E-01 0.000E+00

     total cpu time spent up to now is       16.9 secs

     total energy              =    -282.57954020 Ry
     Harris-Foulkes estimate   =    -131.79385341 Ry
     estimated scf accuracy    <      55.87422799 Ry

     iteration # 99     ecut=    30.00 Ry     beta=0.70
     Davidson diagonalization with overlap
     ethr =  1.00E-02,  avg # of iterations = 13.0

     negative rho (up, down):  7.236E-01 0.000E+00

     total cpu time spent up to now is       16.9 secs

     total energy              =      94.24771593 Ry
     Harris-Foulkes estimate   =   -1477.60176557 Ry
     estimated scf accuracy    <      63.44176107 Ry

     iteration #100     ecut=    30.00 Ry     beta=0.70
     Davidson diagonalization with overlap
     ethr =  1.00E-02,  avg # of iterations = 12.0

     negative rho (up, down):  9.686E-01 0.000E+00

     total cpu time spent up to now is       17.0 secs

     total energy              =    -155.91860061 Ry
     Harris-Foulkes estimate   =     -93.50924645 Ry
     estimated scf accuracy    <      39.60587470 Ry

     End of self-consistent calculation

     convergence NOT achieved after 100 iterations: stopping

     Writing output data file pwscf.save
 
     init_run     :      0.09s CPU      0.11s WALL (       1 calls)
     electrons    :     11.53s CPU     14.54s WALL (       9 calls)
     update_pot   :      0.97s CPU      1.43s WALL (       8 calls)
     forces       :      0.21s CPU      0.22s WALL (       8 calls)

     Called by init_run:
     wfcinit      :      0.01s CPU      0.03s WALL (       1 calls)
     potinit      :      0.02s CPU      0.03s WALL (       1 calls)

     Called by electrons:
     c_bands      :      5.39s CPU      5.68s WALL (     326 calls)
     sum_band     :      0.96s CPU      0.99s WALL (     326 calls)
     v_of_rho     :      2.46s CPU      2.60s WALL (     335 calls)
     mix_rho      :      2.07s CPU      3.74s WALL (     326 calls)

     Called by c_bands:
     init_us_2    :      0.03s CPU      0.04s WALL (     653 calls)
     cegterg      :      5.32s CPU      5.51s WALL (     326 calls)

     Called by sum_band:

     Called by *egterg:
     h_psi        :      4.42s CPU      4.58s WALL (    1715 calls)
     g_psi        :      0.04s CPU      0.05s WALL (    1388 calls)
     cdiaghg      :      0.34s CPU      0.34s WALL (    1706 calls)

     Called by h_psi:
     h_psi:pot    :      4.39s CPU      4.55s WALL (    1715 calls)
     h_psi:calbec :      0.08s CPU      0.08s WALL (    1715 calls)
     vloc_psi     :      4.29s CPU      4.45s WALL (    1715 calls)
     add_vuspsi   :      0.01s CPU      0.01s WALL (    1715 calls)

     General routines
     calbec       :      0.13s CPU      0.16s WALL (    1754 calls)
     fft          :      1.54s CPU      1.62s WALL (    3701 calls)
     fftw         :      4.47s CPU      4.64s WALL (   20206 calls)
     davcio       :      0.32s CPU      1.42s WALL (    5740 calls)
 
     Parallel routines
     fft_scatter  :      2.35s CPU      2.51s WALL (   23907 calls)
 
     PWSCF        :    13.13s CPU        17.08s WALL

 
   This run was terminated on:   7:42:57  14Feb2018            

=------------------------------------------------------------------------------=
   JOB DONE.
=------------------------------------------------------------------------------=
