
     Program PWSCF v.6.0 (svn rev. 13079) starts on 14Feb2018 at  7:42:57 

     This program is part of the open-source Quantum ESPRESSO suite
     for quantum simulation of materials; please cite
         "P. Giannozzi et al., J. Phys.:Condens. Matter 21 395502 (2009);
          URL http://www.quantum-espresso.org", 
     in publications or presentations arising from this work. More details at
     http://www.quantum-espresso.org/quote

     Parallel version (MPI), running on    28 processors
     R & G space division:  proc/nbgrp/npool/nimage =      28
     Reading input from inputs/MD-H2O-2/180.in

     Current dimensions of program PWSCF are:
     Max number of different atomic species (ntypx) = 10
     Max number of k-points (npk) =  40000
     Max angular momentum in pseudopotentials (lmaxx) =  3

     Subspace diagonalization in iterative solution of the eigenvalue problem:
     a serial algorithm will be used

 
     Parallelization info
     --------------------
     sticks:   dense  smooth     PW     G-vecs:    dense   smooth      PW
     Min         136     136     33                 6338     6338     787
     Max         137     137     34                 6341     6341     792
     Sum        3809    3809    949               177509   177509   22119
 


     bravais-lattice index     =            1
     lattice parameter (alat)  =      20.0000  a.u.
     unit-cell volume          =    8000.0000 (a.u.)^3
     number of atoms/cell      =            3
     number of atomic types    =            2
     number of electrons       =         8.00
     number of Kohn-Sham states=            8
     kinetic-energy cutoff     =      30.0000  Ry
     charge density cutoff     =     120.0000  Ry
     convergence threshold     =      1.0E-08
     mixing beta               =       0.7000
     number of iterations used =            8  plain     mixing
     Exchange-correlation      = BLYP ( 1  3  1  3 0 0)
     nstep                     =         5000


     celldm(1)=  20.000000  celldm(2)=   0.000000  celldm(3)=   0.000000
     celldm(4)=   0.000000  celldm(5)=   0.000000  celldm(6)=   0.000000

     crystal axes: (cart. coord. in units of alat)
               a(1) = (   1.000000   0.000000   0.000000 )  
               a(2) = (   0.000000   1.000000   0.000000 )  
               a(3) = (   0.000000   0.000000   1.000000 )  

     reciprocal axes: (cart. coord. in units 2 pi/alat)
               b(1) = (  1.000000  0.000000  0.000000 )  
               b(2) = (  0.000000  1.000000  0.000000 )  
               b(3) = (  0.000000  0.000000  1.000000 )  


     PseudoPot. # 1 for  H read from file:
     ./H.blyp-hgh.UPF
     MD5 check sum: c576e69559cde411e611be972c763230
     Pseudo is Norm-conserving, Zval =  1.0
     Generated in analytical, separable form
     Using radial grid of  929 points,  0 beta functions with: 

     PseudoPot. # 2 for  O read from file:
     ./O.blyp-hgh.UPF
     MD5 check sum: d0b7156309aa9befef28faac7bc56342
     Pseudo is Norm-conserving, Zval =  6.0
     Generated in analytical, separable form
     Using radial grid of 1095 points,  1 beta functions with: 
                l(1) =   0

     atomic species   valence    mass     pseudopotential
        H              1.00     1.01000      H( 1.00)
        O              6.00    16.00000      O( 1.00)

     No symmetry found



   Cartesian axes

     site n.     atom                  positions (alat units)
         1           H   tau(   1) = (   0.8002820   0.8670896   1.0906778  )
         2           H   tau(   2) = (   0.8016808   0.8662923   0.0895164  )
         3           O   tau(   3) = (   0.8062326   0.7701546   0.1610213  )

     number of k points=     1  Marzari-Vanderbilt smearing, width (Ry)=  0.0250
                       cart. coord. in units 2pi/alat
        k(    1) = (   0.0000000   0.0000000   0.0000000), wk =   2.0000000

     Dense  grid:   177509 G-vectors     FFT dimensions: (  72,  72,  72)

     Estimated max dynamical RAM per process >       6.09Mb

     Estimated total allocated dynamical RAM >     170.64Mb

     Initial potential from superposition of free atoms
     Check: negative starting charge=   -0.359386

     starting charge    7.99998, renormalised to    8.00000

     negative rho (up, down):  3.594E-01 0.000E+00
     Starting wfc are    6 randomized atomic wfcs +    2 random wfc

     total cpu time spent up to now is        0.2 secs

     per-process dynamical memory:    18.8 Mb

     Self-consistent Calculation

     iteration #  1     ecut=    30.00 Ry     beta=0.70
     Davidson diagonalization with overlap
     ethr =  1.00E-02,  avg # of iterations =  9.0

     negative rho (up, down):  9.857E-02 0.000E+00

     total cpu time spent up to now is        0.3 secs

     total energy              =      15.77922327 Ry
     Harris-Foulkes estimate   =      14.85439093 Ry
     estimated scf accuracy    <       1.24300440 Ry

     iteration #  2     ecut=    30.00 Ry     beta=0.70
     Davidson diagonalization with overlap
     ethr =  1.00E-02,  avg # of iterations =  2.0

     negative rho (up, down):  5.303E-02 0.000E+00

     total cpu time spent up to now is        0.3 secs

     total energy              =      15.55266100 Ry
     Harris-Foulkes estimate   =      15.30604610 Ry
     estimated scf accuracy    <       0.47824190 Ry

     iteration #  3     ecut=    30.00 Ry     beta=0.70
     Davidson diagonalization with overlap
     ethr =  5.98E-03,  avg # of iterations =  2.0

     negative rho (up, down):  2.382E-03 0.000E+00

     total cpu time spent up to now is        0.4 secs

     total energy              =      15.38398100 Ry
     Harris-Foulkes estimate   =      15.41762708 Ry
     estimated scf accuracy    <       0.03028196 Ry

     iteration #  4     ecut=    30.00 Ry     beta=0.70
     Davidson diagonalization with overlap
     ethr =  3.79E-04,  avg # of iterations =  4.0

     negative rho (up, down):  1.199E-03 0.000E+00

     total cpu time spent up to now is        0.4 secs

     total energy              =      15.37838942 Ry
     Harris-Foulkes estimate   =      15.37882942 Ry
     estimated scf accuracy    <       0.00048379 Ry

     iteration #  5     ecut=    30.00 Ry     beta=0.70
     Davidson diagonalization with overlap
     ethr =  6.05E-06,  avg # of iterations = 16.0

     negative rho (up, down):  2.263E-05 0.000E+00

     total cpu time spent up to now is        0.5 secs

     total energy              =      15.37806568 Ry
     Harris-Foulkes estimate   =      15.37815829 Ry
     estimated scf accuracy    <       0.00005524 Ry

     iteration #  6     ecut=    30.00 Ry     beta=0.70
     Davidson diagonalization with overlap
     ethr =  6.90E-07,  avg # of iterations =  9.0

     negative rho (up, down):  1.838E-06 0.000E+00

     total cpu time spent up to now is        0.5 secs

     total energy              =      15.37805137 Ry
     Harris-Foulkes estimate   =      15.37805254 Ry
     estimated scf accuracy    <       0.00000306 Ry

     iteration #  7     ecut=    30.00 Ry     beta=0.70
     Davidson diagonalization with overlap
     ethr =  3.83E-08,  avg # of iterations =  1.0

     negative rho (up, down):  1.030E-08 0.000E+00

     total cpu time spent up to now is        0.5 secs

     total energy              =      15.37805030 Ry
     Harris-Foulkes estimate   =      15.37805093 Ry
     estimated scf accuracy    <       0.00000031 Ry

     iteration #  8     ecut=    30.00 Ry     beta=0.70
     Davidson diagonalization with overlap
     ethr =  3.93E-09,  avg # of iterations =  2.0

     total cpu time spent up to now is        0.6 secs

     total energy              =      15.37805030 Ry
     Harris-Foulkes estimate   =      15.37805025 Ry
     estimated scf accuracy    <       0.00000001 Ry

     iteration #  9     ecut=    30.00 Ry     beta=0.70
     Davidson diagonalization with overlap
     ethr =  1.47E-10,  avg # of iterations =  3.0

     total cpu time spent up to now is        0.6 secs

     End of self-consistent calculation

          k = 0.0000 0.0000 0.0000 ( 22119 PWs)   bands (ev):

   -26.4627 -18.1831  -7.3843  -7.3825  -5.3337  -0.2642   0.9043   1.0364

     the Fermi energy is    -7.0701 ev

!    total energy              =      15.37805033 Ry
     Harris-Foulkes estimate   =      15.37805029 Ry
     estimated scf accuracy    <          1.5E-09 Ry

     convergence has been achieved in   9 iterations

     Forces acting on atoms (Ry/au):

     atom    1 type  1   force =  -893.79189759  509.46875682  742.07849308
     atom    2 type  1   force =   893.79212681 -509.49751749 -742.05849017
     atom    3 type  2   force =    -0.00022923    0.02876067   -0.02000290

     Total force =  1793.935827     Total SCF correction =     0.000142

     Molecular Dynamics Calculation

     Starting temperature  =  1000.00 K

     temperature is controlled by Andersen thermostat
     Collision frequency = 1.0000/timestep
     mass H                =     1.01
     mass O                =    16.00
     Time step             =   100.00 a.u.,  4.8378 femto-seconds

     Entering Dynamics:    iteration =     1
                           time      =   0.0048 pico-seconds


     Andersen thermostat:    3 collisions

ATOMIC_POSITIONS (bohr)
H     **************2784.4036409434052.585666046
H     4870.491952926****************************
O       16.134476849  15.406699722   3.221380528


     kinetic energy (Ekin) =     0.00981497 Ry
     temperature           =   516.55300710 K 
     Ekin + Etot (const)   =    15.38786530 Ry

     Linear momentum :   -0.0000000000    0.0000000000    0.0000000000

     Writing output data file pwscf.save
     Check: negative starting charge=   -0.359386
     NEW-OLD atomic charge density approx. for the potential
     Check: negative starting charge=   -0.352852

     negative rho (up, down):  4.509E-01 0.000E+00

     total cpu time spent up to now is        0.9 secs

     per-process dynamical memory:    20.4 Mb

     Self-consistent Calculation

     iteration #  1     ecut=    30.00 Ry     beta=0.70
     Davidson diagonalization with overlap
     ethr =  1.00E-06,  avg # of iterations = 14.0

     negative rho (up, down):  2.214E-02 0.000E+00

     total cpu time spent up to now is        1.0 secs

     total energy              =     101.00671678 Ry
     Harris-Foulkes estimate   =    -110.49198774 Ry
     estimated scf accuracy    <      60.39727080 Ry

     iteration #  2     ecut=    30.00 Ry     beta=0.70
     Davidson diagonalization with overlap
     ethr =  1.00E-02,  avg # of iterations = 11.0

     negative rho (up, down):  1.355E-02 0.000E+00

     total cpu time spent up to now is        1.0 secs

     total energy              =     -39.67237672 Ry
     Harris-Foulkes estimate   =     -65.76617915 Ry
     estimated scf accuracy    <      49.06088390 Ry

     iteration #  3     ecut=    30.00 Ry     beta=0.70
     Davidson diagonalization with overlap
     ethr =  1.00E-02,  avg # of iterations =  4.0

     negative rho (up, down):  1.127E-02 0.000E+00

     total cpu time spent up to now is        1.1 secs

     total energy              =     -37.28828083 Ry
     Harris-Foulkes estimate   =     -41.76217439 Ry
     estimated scf accuracy    <      16.52363664 Ry

     iteration #  4     ecut=    30.00 Ry     beta=0.70
     Davidson diagonalization with overlap
     ethr =  1.00E-02,  avg # of iterations =  2.0

     negative rho (up, down):  7.400E-03 0.000E+00

     total cpu time spent up to now is        1.1 secs

     total energy              =     -34.69166408 Ry
     Harris-Foulkes estimate   =     -39.75850109 Ry
     estimated scf accuracy    <      15.32865665 Ry

     iteration #  5     ecut=    30.00 Ry     beta=0.70
     Davidson diagonalization with overlap
     ethr =  1.00E-02,  avg # of iterations =  2.0

     negative rho (up, down):  7.196E-03 0.000E+00

     total cpu time spent up to now is        1.1 secs

     total energy              =     -34.68394164 Ry
     Harris-Foulkes estimate   =     -34.84609162 Ry
     estimated scf accuracy    <       5.36309310 Ry

     iteration #  6     ecut=    30.00 Ry     beta=0.70
     Davidson diagonalization with overlap
     ethr =  1.00E-02,  avg # of iterations =  1.0

     negative rho (up, down):  6.166E-03 0.000E+00

     total cpu time spent up to now is        1.2 secs

     total energy              =     -34.03951900 Ry
     Harris-Foulkes estimate   =     -34.70823768 Ry
     estimated scf accuracy    <       4.89395558 Ry

     iteration #  7     ecut=    30.00 Ry     beta=0.70
     Davidson diagonalization with overlap
     ethr =  1.00E-02,  avg # of iterations =  1.0

     negative rho (up, down):  2.311E-03 0.000E+00

     total cpu time spent up to now is        1.2 secs

     total energy              =     -31.63363707 Ry
     Harris-Foulkes estimate   =     -34.05731045 Ry
     estimated scf accuracy    <       3.97328739 Ry

     iteration #  8     ecut=    30.00 Ry     beta=0.70
     Davidson diagonalization with overlap
     ethr =  1.00E-02,  avg # of iterations =  2.0

     negative rho (up, down):  8.369E-04 0.000E+00

     total cpu time spent up to now is        1.2 secs

     total energy              =     -31.64412758 Ry
     Harris-Foulkes estimate   =     -31.78156131 Ry
     estimated scf accuracy    <       1.55224210 Ry

     iteration #  9     ecut=    30.00 Ry     beta=0.70
     Davidson diagonalization with overlap
     ethr =  1.00E-02,  avg # of iterations =  1.0

     negative rho (up, down):  8.096E-04 0.000E+00

     total cpu time spent up to now is        1.3 secs

     total energy              =     -31.67009266 Ry
     Harris-Foulkes estimate   =     -31.67701586 Ry
     estimated scf accuracy    <       2.01096850 Ry

     iteration # 10     ecut=    30.00 Ry     beta=0.70
     Davidson diagonalization with overlap
     ethr =  1.00E-02,  avg # of iterations =  1.0

     negative rho (up, down):  2.257E-04 0.000E+00

     total cpu time spent up to now is        1.3 secs

     total energy              =     -31.65013819 Ry
     Harris-Foulkes estimate   =     -31.67169620 Ry
     estimated scf accuracy    <       2.49745953 Ry

     iteration # 11     ecut=    30.00 Ry     beta=0.70
     Davidson diagonalization with overlap
     ethr =  1.00E-02,  avg # of iterations =  1.0

     negative rho (up, down):  4.166E-03 0.000E+00

     total cpu time spent up to now is        1.3 secs

     total energy              =     -31.75377982 Ry
     Harris-Foulkes estimate   =     -31.76689503 Ry
     estimated scf accuracy    <       4.39164084 Ry

     iteration # 12     ecut=    30.00 Ry     beta=0.70
     Davidson diagonalization with overlap
     ethr =  1.00E-02,  avg # of iterations =  1.0

     negative rho (up, down):  6.951E-03 0.000E+00

     total cpu time spent up to now is        1.4 secs

     total energy              =     -32.14966968 Ry
     Harris-Foulkes estimate   =     -31.99177340 Ry
     estimated scf accuracy    <       4.58729641 Ry

     iteration # 13     ecut=    30.00 Ry     beta=0.70
     Davidson diagonalization with overlap
     ethr =  1.00E-02,  avg # of iterations =  1.0

     negative rho (up, down):  5.824E-03 0.000E+00

     total cpu time spent up to now is        1.4 secs

     total energy              =     -32.07375687 Ry
     Harris-Foulkes estimate   =     -32.15327229 Ry
     estimated scf accuracy    <       5.40403113 Ry

     iteration # 14     ecut=    30.00 Ry     beta=0.70
     Davidson diagonalization with overlap
     ethr =  1.00E-02,  avg # of iterations =  1.0

     negative rho (up, down):  2.216E-05 0.000E+00

     total cpu time spent up to now is        1.5 secs

     total energy              =     -31.47149924 Ry
     Harris-Foulkes estimate   =     -32.29248668 Ry
     estimated scf accuracy    <       3.21616017 Ry

     iteration # 15     ecut=    30.00 Ry     beta=0.70
     Davidson diagonalization with overlap
     ethr =  1.00E-02,  avg # of iterations =  1.0

     total cpu time spent up to now is        1.5 secs

     total energy              =     -31.49055842 Ry
     Harris-Foulkes estimate   =     -31.51541315 Ry
     estimated scf accuracy    <       0.96763235 Ry

     iteration # 16     ecut=    30.00 Ry     beta=0.70
     Davidson diagonalization with overlap
     ethr =  1.00E-02,  avg # of iterations =  1.0

     total cpu time spent up to now is        1.5 secs

     total energy              =     -31.42649450 Ry
     Harris-Foulkes estimate   =     -31.56667978 Ry
     estimated scf accuracy    <       2.61215693 Ry

     iteration # 17     ecut=    30.00 Ry     beta=0.70
     Davidson diagonalization with overlap
     ethr =  1.00E-02,  avg # of iterations =  1.0

     total cpu time spent up to now is        1.6 secs

     total energy              =     -31.49416776 Ry
     Harris-Foulkes estimate   =     -31.52164676 Ry
     estimated scf accuracy    <       1.42374508 Ry

     iteration # 18     ecut=    30.00 Ry     beta=0.70
     Davidson diagonalization with overlap
     ethr =  1.00E-02,  avg # of iterations =  1.0

     total cpu time spent up to now is        1.6 secs

     total energy              =     -31.50590502 Ry
     Harris-Foulkes estimate   =     -31.50124105 Ry
     estimated scf accuracy    <       0.55236042 Ry

     iteration # 19     ecut=    30.00 Ry     beta=0.70
     Davidson diagonalization with overlap
     ethr =  6.90E-03,  avg # of iterations =  1.0

     total cpu time spent up to now is        1.6 secs

     total energy              =     -31.52310969 Ry
     Harris-Foulkes estimate   =     -31.55909325 Ry
     estimated scf accuracy    <       4.36307404 Ry

     iteration # 20     ecut=    30.00 Ry     beta=0.70
     Davidson diagonalization with overlap
     ethr =  6.90E-03,  avg # of iterations =  1.0

     total cpu time spent up to now is        1.7 secs

     total energy              =     -31.51442410 Ry
     Harris-Foulkes estimate   =     -31.52545674 Ry
     estimated scf accuracy    <       3.00158023 Ry

     iteration # 21     ecut=    30.00 Ry     beta=0.70
     Davidson diagonalization with overlap
     ethr =  6.90E-03,  avg # of iterations =  1.0

     total cpu time spent up to now is        1.7 secs

     total energy              =     -31.53083870 Ry
     Harris-Foulkes estimate   =     -31.51524529 Ry
     estimated scf accuracy    <       2.21932751 Ry

     iteration # 22     ecut=    30.00 Ry     beta=0.70
     Davidson diagonalization with overlap
     ethr =  6.90E-03,  avg # of iterations =  1.0

     negative rho (up, down):  1.198E-06 0.000E+00

     total cpu time spent up to now is        1.7 secs

     total energy              =     -31.47121197 Ry
     Harris-Foulkes estimate   =     -31.53200375 Ry
     estimated scf accuracy    <       2.80801550 Ry

     iteration # 23     ecut=    30.00 Ry     beta=0.70
     Davidson diagonalization with overlap
     ethr =  6.90E-03,  avg # of iterations =  1.0

     total cpu time spent up to now is        1.8 secs

     total energy              =     -31.49312262 Ry
     Harris-Foulkes estimate   =     -31.49251143 Ry
     estimated scf accuracy    <       0.13893848 Ry

     iteration # 24     ecut=    30.00 Ry     beta=0.70
     Davidson diagonalization with overlap
     ethr =  1.74E-03,  avg # of iterations =  1.0

     total cpu time spent up to now is        1.8 secs

     total energy              =     -31.48851137 Ry
     Harris-Foulkes estimate   =     -31.49589518 Ry
     estimated scf accuracy    <       0.52818459 Ry

     iteration # 25     ecut=    30.00 Ry     beta=0.70
     Davidson diagonalization with overlap
     ethr =  1.74E-03,  avg # of iterations =  1.0

     total cpu time spent up to now is        1.8 secs

     total energy              =     -31.48996833 Ry
     Harris-Foulkes estimate   =     -31.49092122 Ry
     estimated scf accuracy    <       0.07144280 Ry

     iteration # 26     ecut=    30.00 Ry     beta=0.70
     Davidson diagonalization with overlap
     ethr =  8.93E-04,  avg # of iterations =  1.0

     total cpu time spent up to now is        1.8 secs

     total energy              =     -31.48992622 Ry
     Harris-Foulkes estimate   =     -31.49035181 Ry
     estimated scf accuracy    <       0.01824062 Ry

     iteration # 27     ecut=    30.00 Ry     beta=0.70
     Davidson diagonalization with overlap
     ethr =  2.28E-04,  avg # of iterations =  1.0

     total cpu time spent up to now is        1.9 secs

     total energy              =     -31.49005997 Ry
     Harris-Foulkes estimate   =     -31.49017770 Ry
     estimated scf accuracy    <       0.00213788 Ry

     iteration # 28     ecut=    30.00 Ry     beta=0.70
     Davidson diagonalization with overlap
     ethr =  2.67E-05,  avg # of iterations = 12.0

     total cpu time spent up to now is        1.9 secs

     total energy              =     -31.49012788 Ry
     Harris-Foulkes estimate   =     -31.49018020 Ry
     estimated scf accuracy    <       0.00278218 Ry

     iteration # 29     ecut=    30.00 Ry     beta=0.70
     Davidson diagonalization with overlap
     ethr =  2.67E-05,  avg # of iterations =  1.0

     total cpu time spent up to now is        2.0 secs

     total energy              =     -31.49014680 Ry
     Harris-Foulkes estimate   =     -31.49014818 Ry
     estimated scf accuracy    <       0.00012020 Ry

     iteration # 30     ecut=    30.00 Ry     beta=0.70
     Davidson diagonalization with overlap
     ethr =  1.50E-06,  avg # of iterations =  8.0

     total cpu time spent up to now is        2.0 secs

     total energy              =     -31.49014588 Ry
     Harris-Foulkes estimate   =     -31.49014708 Ry
     estimated scf accuracy    <       0.00004331 Ry

     iteration # 31     ecut=    30.00 Ry     beta=0.70
     Davidson diagonalization with overlap
     ethr =  5.41E-07,  avg # of iterations =  1.0

     total cpu time spent up to now is        2.0 secs

     total energy              =     -31.49014636 Ry
     Harris-Foulkes estimate   =     -31.49014637 Ry
     estimated scf accuracy    <       0.00000028 Ry

     iteration # 32     ecut=    30.00 Ry     beta=0.70
     Davidson diagonalization with overlap
     ethr =  3.48E-09,  avg # of iterations =  1.0

     total cpu time spent up to now is        2.1 secs

     End of self-consistent calculation

          k = 0.0000 0.0000 0.0000 ( 22119 PWs)   bands (ev):

   -23.6238  -7.0325  -7.0317  -7.0309  -6.9356  -6.9189  -0.2450   0.5522

     the Fermi energy is    -6.8973 ev

!    total energy              =     -31.49014632 Ry
     Harris-Foulkes estimate   =     -31.49014637 Ry
     estimated scf accuracy    <          5.4E-09 Ry

     convergence has been achieved in  32 iterations

     Forces acting on atoms (Ry/au):

     atom    1 type  1   force =    -0.00016685   -0.00013252    0.00020145
     atom    2 type  1   force =    -0.00002507    0.00000207    0.00012569
     atom    3 type  2   force =     0.00019192    0.00013045   -0.00032714

     Total force =     0.000513     Total SCF correction =     0.000025

     Entering Dynamics:    iteration =     2
                           time      =   0.0097 pico-seconds


     Andersen thermostat:    3 collisions

ATOMIC_POSITIONS (bohr)
H     **************2784.3602437444052.526651371
H     4870.370632594****************************
O       16.126334538  15.415565134   3.192901210


     kinetic energy (Ekin) =     0.01826409 Ry
     temperature           =   961.22273378 K 
     Ekin + Etot (const)   =   -31.47188223 Ry
     Message from routine dynamics:
     Total linear momentum <> 0

     Linear momentum :   -0.3031129596    0.0221218969    0.1387419842

     Writing output data file pwscf.save

     first order wave-functions extrapolation
     Message from extrapolate_wfcs: 
     the matrix <psi(t-dt)|psi(t)> has  2 small (< 0.1) eigenvalues
     Check: negative starting charge=   -0.352852
     first order charge density extrapolation
     Check: negative starting charge=   -0.353206

     negative rho (up, down):  5.113E-01 0.000E+00

     total cpu time spent up to now is        2.5 secs

     per-process dynamical memory:    20.4 Mb

     Self-consistent Calculation

     iteration #  1     ecut=    30.00 Ry     beta=0.70
     Davidson diagonalization with overlap
     ethr =  1.00E-06,  avg # of iterations = 17.0

     negative rho (up, down):  2.295E-02 0.000E+00

     total cpu time spent up to now is        2.7 secs

     total energy              =      68.63944784 Ry
     Harris-Foulkes estimate   =    -226.91991196 Ry
     estimated scf accuracy    <      33.73135726 Ry

     iteration #  2     ecut=    30.00 Ry     beta=0.70
     Davidson diagonalization with overlap
     ethr =  1.00E-02,  avg # of iterations =  9.0

     negative rho (up, down):  1.422E-02 0.000E+00

     total cpu time spent up to now is        2.7 secs

     total energy              =     -34.98799361 Ry
     Harris-Foulkes estimate   =     -50.99276861 Ry
     estimated scf accuracy    <      31.27983318 Ry

     iteration #  3     ecut=    30.00 Ry     beta=0.70
     Davidson diagonalization with overlap
     ethr =  1.00E-02,  avg # of iterations =  3.0

     negative rho (up, down):  1.096E-02 0.000E+00

     total cpu time spent up to now is        2.8 secs

     total energy              =     -34.52480056 Ry
     Harris-Foulkes estimate   =     -36.93363713 Ry
     estimated scf accuracy    <       8.89097766 Ry

     iteration #  4     ecut=    30.00 Ry     beta=0.70
     Davidson diagonalization with overlap
     ethr =  1.00E-02,  avg # of iterations =  4.0

     negative rho (up, down):  8.617E-03 0.000E+00

     total cpu time spent up to now is        2.8 secs

     total energy              =     -25.26928932 Ry
     Harris-Foulkes estimate   =     -41.55437542 Ry
     estimated scf accuracy    <       8.16852740 Ry

     iteration #  5     ecut=    30.00 Ry     beta=0.70
     Davidson diagonalization with overlap
     ethr =  1.00E-02,  avg # of iterations =  4.0

     negative rho (up, down):  1.509E-02 0.000E+00

     total cpu time spent up to now is        2.9 secs

     total energy              =     -28.04719391 Ry
     Harris-Foulkes estimate   =     -35.98683087 Ry
     estimated scf accuracy    <       6.02615112 Ry

     iteration #  6     ecut=    30.00 Ry     beta=0.70
     Davidson diagonalization with overlap
     ethr =  1.00E-02,  avg # of iterations =  3.0

     negative rho (up, down):  4.383E-02 0.000E+00

     total cpu time spent up to now is        2.9 secs

     total energy              =     -40.35056470 Ry
     Harris-Foulkes estimate   =     -43.70822053 Ry
     estimated scf accuracy    <       8.97224328 Ry

     iteration #  7     ecut=    30.00 Ry     beta=0.70
     Davidson diagonalization with overlap
     ethr =  1.00E-02,  avg # of iterations =  4.0

     negative rho (up, down):  4.436E-02 0.000E+00

     total cpu time spent up to now is        2.9 secs

     total energy              =     -12.86673268 Ry
     Harris-Foulkes estimate   =    -135.47682170 Ry
     estimated scf accuracy    <      11.96387003 Ry

     iteration #  8     ecut=    30.00 Ry     beta=0.70
     Davidson diagonalization with overlap
     ethr =  1.00E-02,  avg # of iterations =  4.0

     negative rho (up, down):  6.467E-02 0.000E+00

     total cpu time spent up to now is        3.0 secs

     total energy              =     -77.46600540 Ry
     Harris-Foulkes estimate   =     -80.20754747 Ry
     estimated scf accuracy    <      16.37048557 Ry

     iteration #  9     ecut=    30.00 Ry     beta=0.70
     Davidson diagonalization with overlap
     ethr =  1.00E-02,  avg # of iterations =  6.0

     negative rho (up, down):  8.698E-02 0.000E+00

     total cpu time spent up to now is        3.0 secs

     total energy              =      44.04540509 Ry
     Harris-Foulkes estimate   =    -427.51418076 Ry
     estimated scf accuracy    <      45.71214486 Ry

     iteration # 10     ecut=    30.00 Ry     beta=0.70
     Davidson diagonalization with overlap
     ethr =  1.00E-02,  avg # of iterations =  6.0

     negative rho (up, down):  2.700E-01 0.000E+00

     total cpu time spent up to now is        3.1 secs

     total energy              =     -72.60541427 Ry
     Harris-Foulkes estimate   =     -34.69450888 Ry
     estimated scf accuracy    <       4.89644136 Ry

     iteration # 11     ecut=    30.00 Ry     beta=0.70
     Davidson diagonalization with overlap
     ethr =  1.00E-02,  avg # of iterations =  7.0

     negative rho (up, down):  2.824E-01 0.000E+00

     total cpu time spent up to now is        3.1 secs

     total energy              =     -14.96772498 Ry
     Harris-Foulkes estimate   =   -2156.33137648 Ry
     estimated scf accuracy    <      57.09661077 Ry

     iteration # 12     ecut=    30.00 Ry     beta=0.70
     Davidson diagonalization with overlap
     ethr =  1.00E-02,  avg # of iterations =  5.0

     negative rho (up, down):  4.907E-01 0.000E+00

     total cpu time spent up to now is        3.2 secs

     total energy              =       8.91301375 Ry
     Harris-Foulkes estimate   =   -5068.60385093 Ry
     estimated scf accuracy    <      50.20629879 Ry

     iteration # 13     ecut=    30.00 Ry     beta=0.70
     Davidson diagonalization with overlap
     ethr =  1.00E-02,  avg # of iterations =  9.0

     negative rho (up, down):  7.261E-01 0.000E+00

     total cpu time spent up to now is        3.2 secs

     total energy              =       6.49563681 Ry
     Harris-Foulkes estimate   =   -5885.56661737 Ry
     estimated scf accuracy    <      45.22909854 Ry

     iteration # 14     ecut=    30.00 Ry     beta=0.70
     Davidson diagonalization with overlap
     ethr =  1.00E-02,  avg # of iterations =  8.0

     negative rho (up, down):  7.796E-01 0.000E+00

     total cpu time spent up to now is        3.3 secs

     total energy              =     -89.00465911 Ry
     Harris-Foulkes estimate   =    -590.97836933 Ry
     estimated scf accuracy    <      47.47649037 Ry

     iteration # 15     ecut=    30.00 Ry     beta=0.70
     Davidson diagonalization with overlap
     ethr =  1.00E-02,  avg # of iterations =  6.0

     negative rho (up, down):  8.140E-01 0.000E+00

     total cpu time spent up to now is        3.3 secs

     total energy              =      45.69724922 Ry
     Harris-Foulkes estimate   =   -1259.98913479 Ry
     estimated scf accuracy    <      45.17618334 Ry

     iteration # 16     ecut=    30.00 Ry     beta=0.70
     Davidson diagonalization with overlap
     ethr =  1.00E-02,  avg # of iterations = 12.0

     negative rho (up, down):  7.681E-01 0.000E+00

     total cpu time spent up to now is        3.4 secs

     total energy              =    -518.47720246 Ry
     Harris-Foulkes estimate   =    -275.47446254 Ry
     estimated scf accuracy    <      48.86908542 Ry

     iteration # 17     ecut=    30.00 Ry     beta=0.70
     Davidson diagonalization with overlap
     ethr =  1.00E-02,  avg # of iterations =  6.0

     negative rho (up, down):  9.050E-01 0.000E+00

     total cpu time spent up to now is        3.5 secs

     total energy              =     -18.10320963 Ry
     Harris-Foulkes estimate   =   -4318.85068377 Ry
     estimated scf accuracy    <      50.70107005 Ry

     iteration # 18     ecut=    30.00 Ry     beta=0.70
     Davidson diagonalization with overlap
     ethr =  1.00E-02,  avg # of iterations =  8.0

     negative rho (up, down):  4.090E-02 0.000E+00

     total cpu time spent up to now is        3.5 secs

     total energy              =      30.34161406 Ry
     Harris-Foulkes estimate   =    -580.76149863 Ry
     estimated scf accuracy    <      45.47127606 Ry

     iteration # 19     ecut=    30.00 Ry     beta=0.70
     Davidson diagonalization with overlap
     ethr =  1.00E-02,  avg # of iterations =  8.0

     negative rho (up, down):  3.897E-01 0.000E+00

     total cpu time spent up to now is        3.6 secs

     total energy              =      83.76133740 Ry
     Harris-Foulkes estimate   =    -118.14276281 Ry
     estimated scf accuracy    <      43.09593753 Ry

     iteration # 20     ecut=    30.00 Ry     beta=0.70
     Davidson diagonalization with overlap
     ethr =  1.00E-02,  avg # of iterations = 10.0

     negative rho (up, down):  5.225E-01 0.000E+00

     total cpu time spent up to now is        3.6 secs

     total energy              =      59.30450721 Ry
     Harris-Foulkes estimate   =    -157.96980276 Ry
     estimated scf accuracy    <      15.02659853 Ry

     iteration # 21     ecut=    30.00 Ry     beta=0.70
     Davidson diagonalization with overlap
     ethr =  1.00E-02,  avg # of iterations = 11.0

     negative rho (up, down):  7.555E-01 0.000E+00

     total cpu time spent up to now is        3.7 secs

     total energy              =      80.54904548 Ry
     Harris-Foulkes estimate   =    -374.69966021 Ry
     estimated scf accuracy    <      33.24728545 Ry

     iteration # 22     ecut=    30.00 Ry     beta=0.70
     Davidson diagonalization with overlap
     ethr =  1.00E-02,  avg # of iterations =  8.0

     negative rho (up, down):  5.073E-01 0.000E+00

     total cpu time spent up to now is        3.7 secs

     total energy              =       1.48991330 Ry
     Harris-Foulkes estimate   =    -377.55483553 Ry
     estimated scf accuracy    <      35.34088313 Ry

     iteration # 23     ecut=    30.00 Ry     beta=0.70
     Davidson diagonalization with overlap
     ethr =  1.00E-02,  avg # of iterations = 10.0

     negative rho (up, down):  4.560E-01 0.000E+00

     total cpu time spent up to now is        3.8 secs

     total energy              =      49.13799374 Ry
     Harris-Foulkes estimate   =   -1206.19579058 Ry
     estimated scf accuracy    <      24.87185992 Ry

     iteration # 24     ecut=    30.00 Ry     beta=0.70
     Davidson diagonalization with overlap
     ethr =  1.00E-02,  avg # of iterations = 12.0

     negative rho (up, down):  4.346E-01 0.000E+00

     total cpu time spent up to now is        3.9 secs

     total energy              =       7.25930877 Ry
     Harris-Foulkes estimate   =    -808.99673452 Ry
     estimated scf accuracy    <      31.41016538 Ry

     iteration # 25     ecut=    30.00 Ry     beta=0.70
     Davidson diagonalization with overlap
     ethr =  1.00E-02,  avg # of iterations =  9.0

     negative rho (up, down):  1.460E-01 0.000E+00

     total cpu time spent up to now is        3.9 secs

     total energy              =      72.32218725 Ry
     Harris-Foulkes estimate   =    -274.41092071 Ry
     estimated scf accuracy    <      31.53775446 Ry

     iteration # 26     ecut=    30.00 Ry     beta=0.70
     Davidson diagonalization with overlap
     ethr =  1.00E-02,  avg # of iterations =  9.0

     negative rho (up, down):  6.609E-02 0.000E+00

     total cpu time spent up to now is        4.0 secs

     total energy              =     380.38214179 Ry
     Harris-Foulkes estimate   =   -1410.09782919 Ry
     estimated scf accuracy    <      18.36005736 Ry

     iteration # 27     ecut=    30.00 Ry     beta=0.70
     Davidson diagonalization with overlap
     ethr =  1.00E-02,  avg # of iterations =  6.0

     negative rho (up, down):  4.605E-02 0.000E+00

     total cpu time spent up to now is        4.0 secs

     total energy              =      -6.22322977 Ry
     Harris-Foulkes estimate   =   -3560.02866582 Ry
     estimated scf accuracy    <      27.46910466 Ry

     iteration # 28     ecut=    30.00 Ry     beta=0.70
     Davidson diagonalization with overlap
     ethr =  1.00E-02,  avg # of iterations = 12.0

     negative rho (up, down):  3.009E-04 0.000E+00

     total cpu time spent up to now is        4.1 secs

     total energy              =       6.09389494 Ry
     Harris-Foulkes estimate   =     -62.75810605 Ry
     estimated scf accuracy    <      15.67220803 Ry

     iteration # 29     ecut=    30.00 Ry     beta=0.70
     Davidson diagonalization with overlap
     ethr =  1.00E-02,  avg # of iterations =  5.0

     negative rho (up, down):  6.512E-04 0.000E+00

     total cpu time spent up to now is        4.1 secs

     total energy              =     -50.20077319 Ry
     Harris-Foulkes estimate   =     -53.02893774 Ry
     estimated scf accuracy    <      34.37495156 Ry

     iteration # 30     ecut=    30.00 Ry     beta=0.70
     Davidson diagonalization with overlap
     ethr =  1.00E-02,  avg # of iterations =  1.0

     negative rho (up, down):  7.840E-02 0.000E+00

     total cpu time spent up to now is        4.2 secs

     total energy              =     -50.02652324 Ry
     Harris-Foulkes estimate   =     -50.21504079 Ry
     estimated scf accuracy    <      30.49262749 Ry

     iteration # 31     ecut=    30.00 Ry     beta=0.70
     Davidson diagonalization with overlap
     ethr =  1.00E-02,  avg # of iterations =  5.0

     negative rho (up, down):  5.571E-05 0.000E+00

     total cpu time spent up to now is        4.2 secs

     total energy              =     125.04507355 Ry
     Harris-Foulkes estimate   =   -3377.47213218 Ry
     estimated scf accuracy    <      27.55559378 Ry

     iteration # 32     ecut=    30.00 Ry     beta=0.70
     Davidson diagonalization with overlap
     ethr =  1.00E-02,  avg # of iterations = 12.0

     negative rho (up, down):  1.164E-02 0.000E+00

     total cpu time spent up to now is        4.3 secs

     total energy              =     -48.10721514 Ry
     Harris-Foulkes estimate   =     -49.22592742 Ry
     estimated scf accuracy    <      29.04852142 Ry

     iteration # 33     ecut=    30.00 Ry     beta=0.70
     Davidson diagonalization with overlap
     ethr =  1.00E-02,  avg # of iterations =  6.0

     negative rho (up, down):  9.323E-02 0.000E+00

     total cpu time spent up to now is        4.3 secs

     total energy              =     -20.91744663 Ry
     Harris-Foulkes estimate   =     -59.41273338 Ry
     estimated scf accuracy    <      19.01095006 Ry

     iteration # 34     ecut=    30.00 Ry     beta=0.70
     Davidson diagonalization with overlap
     ethr =  1.00E-02,  avg # of iterations =  5.0

     negative rho (up, down):  1.484E-01 0.000E+00

     total cpu time spent up to now is        4.4 secs

     total energy              =      13.80617409 Ry
     Harris-Foulkes estimate   =    -306.00807218 Ry
     estimated scf accuracy    <      22.19152547 Ry

     iteration # 35     ecut=    30.00 Ry     beta=0.70
     Davidson diagonalization with overlap
     ethr =  1.00E-02,  avg # of iterations =  6.0

     negative rho (up, down):  2.684E-01 0.000E+00

     total cpu time spent up to now is        4.4 secs

     total energy              =     -20.82631719 Ry
     Harris-Foulkes estimate   =     -69.12582927 Ry
     estimated scf accuracy    <      22.17660357 Ry

     iteration # 36     ecut=    30.00 Ry     beta=0.70
     Davidson diagonalization with overlap
     ethr =  1.00E-02,  avg # of iterations =  8.0

     negative rho (up, down):  1.392E-01 0.000E+00

     total cpu time spent up to now is        4.5 secs

     total energy              =     153.37155426 Ry
     Harris-Foulkes estimate   =    -325.79556457 Ry
     estimated scf accuracy    <      28.31638122 Ry

     iteration # 37     ecut=    30.00 Ry     beta=0.70
     Davidson diagonalization with overlap
     ethr =  1.00E-02,  avg # of iterations =  9.0

     negative rho (up, down):  1.601E-01 0.000E+00

     total cpu time spent up to now is        4.5 secs

     total energy              =     -43.14864124 Ry
     Harris-Foulkes estimate   =    -209.69184228 Ry
     estimated scf accuracy    <      25.18302819 Ry

     iteration # 38     ecut=    30.00 Ry     beta=0.70
     Davidson diagonalization with overlap
     ethr =  1.00E-02,  avg # of iterations =  5.0

     negative rho (up, down):  3.161E-01 0.000E+00

     total cpu time spent up to now is        4.6 secs

     total energy              =     551.52803474 Ry
     Harris-Foulkes estimate   =   -2319.17123734 Ry
     estimated scf accuracy    <      29.19355532 Ry

     iteration # 39     ecut=    30.00 Ry     beta=0.70
     Davidson diagonalization with overlap
     ethr =  1.00E-02,  avg # of iterations =  6.0

     negative rho (up, down):  3.516E-01 0.000E+00

     total cpu time spent up to now is        4.6 secs

     total energy              =   -1985.73676647 Ry
     Harris-Foulkes estimate   =   -1205.15183214 Ry
     estimated scf accuracy    <      32.91561016 Ry

     iteration # 40     ecut=    30.00 Ry     beta=0.70
     Davidson diagonalization with overlap
     ethr =  1.00E-02,  avg # of iterations =  8.0

     negative rho (up, down):  6.587E-01 0.000E+00

     total cpu time spent up to now is        4.7 secs

     total energy              =     -60.82748691 Ry
     Harris-Foulkes estimate   =   -6782.88479117 Ry
     estimated scf accuracy    <      23.49854361 Ry

     iteration # 41     ecut=    30.00 Ry     beta=0.70
     Davidson diagonalization with overlap
     ethr =  1.00E-02,  avg # of iterations =  6.0

     negative rho (up, down):  5.373E-01 0.000E+00

     total cpu time spent up to now is        4.8 secs

     total energy              =      -0.41582453 Ry
     Harris-Foulkes estimate   =    -368.75046657 Ry
     estimated scf accuracy    <      29.27428301 Ry

     iteration # 42     ecut=    30.00 Ry     beta=0.70
     Davidson diagonalization with overlap
     ethr =  1.00E-02,  avg # of iterations =  6.0

     negative rho (up, down):  5.900E-01 0.000E+00

     total cpu time spent up to now is        4.8 secs

     total energy              =      47.07025575 Ry
     Harris-Foulkes estimate   =   -2192.23311749 Ry
     estimated scf accuracy    <      15.59425237 Ry

     iteration # 43     ecut=    30.00 Ry     beta=0.70
     Davidson diagonalization with overlap
     ethr =  1.00E-02,  avg # of iterations =  5.0

     negative rho (up, down):  3.413E-01 0.000E+00

     total cpu time spent up to now is        4.9 secs

     total energy              =      44.40860285 Ry
     Harris-Foulkes estimate   =    -119.96956079 Ry
     estimated scf accuracy    <      16.17796680 Ry

     iteration # 44     ecut=    30.00 Ry     beta=0.70
     Davidson diagonalization with overlap
     ethr =  1.00E-02,  avg # of iterations =  6.0

     negative rho (up, down):  5.087E-01 0.000E+00

     total cpu time spent up to now is        4.9 secs

     total energy              =    -615.16487978 Ry
     Harris-Foulkes estimate   =   -3341.17650498 Ry
     estimated scf accuracy    <      28.29246183 Ry

     iteration # 45     ecut=    30.00 Ry     beta=0.70
     Davidson diagonalization with overlap
     ethr =  1.00E-02,  avg # of iterations =  8.0

     negative rho (up, down):  5.123E-01 0.000E+00

     total cpu time spent up to now is        5.0 secs

     total energy              =     -19.49949099 Ry
     Harris-Foulkes estimate   =   -3551.83524316 Ry
     estimated scf accuracy    <      24.50170457 Ry

     iteration # 46     ecut=    30.00 Ry     beta=0.70
     Davidson diagonalization with overlap
     ethr =  1.00E-02,  avg # of iterations =  9.0

     negative rho (up, down):  6.026E-01 0.000E+00

     total cpu time spent up to now is        5.0 secs

     total energy              =      72.06659393 Ry
     Harris-Foulkes estimate   =   -1323.66371787 Ry
     estimated scf accuracy    <      27.65770622 Ry

     iteration # 47     ecut=    30.00 Ry     beta=0.70
     Davidson diagonalization with overlap
     ethr =  1.00E-02,  avg # of iterations =  6.0

     negative rho (up, down):  5.968E-01 0.000E+00

     total cpu time spent up to now is        5.1 secs

     total energy              =    -285.52253269 Ry
     Harris-Foulkes estimate   =    -650.20162942 Ry
     estimated scf accuracy    <      29.47817138 Ry

     iteration # 48     ecut=    30.00 Ry     beta=0.70
     Davidson diagonalization with overlap
     ethr =  1.00E-02,  avg # of iterations =  8.0

     negative rho (up, down):  9.437E-02 0.000E+00

     total cpu time spent up to now is        5.1 secs

     total energy              =      89.23051156 Ry
     Harris-Foulkes estimate   =   -1696.94151825 Ry
     estimated scf accuracy    <      23.65684592 Ry

     iteration # 49     ecut=    30.00 Ry     beta=0.70
     Davidson diagonalization with overlap
     ethr =  1.00E-02,  avg # of iterations =  9.0

     negative rho (up, down):  2.152E-01 0.000E+00

     total cpu time spent up to now is        5.2 secs

     total energy              =     100.85397295 Ry
     Harris-Foulkes estimate   =   -3558.10333047 Ry
     estimated scf accuracy    <      24.26208325 Ry

     iteration # 50     ecut=    30.00 Ry     beta=0.70
     Davidson diagonalization with overlap
     ethr =  1.00E-02,  avg # of iterations =  9.0

     negative rho (up, down):  2.952E-01 0.000E+00

     total cpu time spent up to now is        5.2 secs

     total energy              =      84.00260728 Ry
     Harris-Foulkes estimate   =   -5230.18067275 Ry
     estimated scf accuracy    <      28.49912491 Ry

     iteration # 51     ecut=    30.00 Ry     beta=0.70
     Davidson diagonalization with overlap
     ethr =  1.00E-02,  avg # of iterations =  9.0

     negative rho (up, down):  4.969E-01 0.000E+00

     total cpu time spent up to now is        5.3 secs

     total energy              =     101.86949401 Ry
     Harris-Foulkes estimate   =   -7222.73717923 Ry
     estimated scf accuracy    <      33.77178978 Ry

     iteration # 52     ecut=    30.00 Ry     beta=0.70
     Davidson diagonalization with overlap
     ethr =  1.00E-02,  avg # of iterations =  7.0

     negative rho (up, down):  4.175E-01 0.000E+00

     total cpu time spent up to now is        5.3 secs

     total energy              =    -570.61031362 Ry
     Harris-Foulkes estimate   =    -462.26485759 Ry
     estimated scf accuracy    <      24.71748492 Ry

     iteration # 53     ecut=    30.00 Ry     beta=0.70
     Davidson diagonalization with overlap
     ethr =  1.00E-02,  avg # of iterations =  6.0

     negative rho (up, down):  4.731E-01 0.000E+00

     total cpu time spent up to now is        5.4 secs

     total energy              =      50.01641164 Ry
     Harris-Foulkes estimate   =   -5060.86549421 Ry
     estimated scf accuracy    <      20.68737526 Ry

     iteration # 54     ecut=    30.00 Ry     beta=0.70
     Davidson diagonalization with overlap
     ethr =  1.00E-02,  avg # of iterations =  5.0

     negative rho (up, down):  5.921E-01 0.000E+00

     total cpu time spent up to now is        5.4 secs

     total energy              =      97.48920323 Ry
     Harris-Foulkes estimate   =   -2154.15355910 Ry
     estimated scf accuracy    <      24.57344140 Ry

     iteration # 55     ecut=    30.00 Ry     beta=0.70
     Davidson diagonalization with overlap
     ethr =  1.00E-02,  avg # of iterations =  9.0

     negative rho (up, down):  4.248E-01 0.000E+00

     total cpu time spent up to now is        5.5 secs

     total energy              =    -104.61153424 Ry
     Harris-Foulkes estimate   =   -2680.64610819 Ry
     estimated scf accuracy    <      20.31518825 Ry

     iteration # 56     ecut=    30.00 Ry     beta=0.70
     Davidson diagonalization with overlap
     ethr =  1.00E-02,  avg # of iterations =  8.0

     negative rho (up, down):  9.101E-02 0.000E+00

     total cpu time spent up to now is        5.5 secs

     total energy              =     120.43554439 Ry
     Harris-Foulkes estimate   =  -11286.07399163 Ry
     estimated scf accuracy    <      18.60697907 Ry

     iteration # 57     ecut=    30.00 Ry     beta=0.70
     Davidson diagonalization with overlap
     ethr =  1.00E-02,  avg # of iterations =  7.0

     negative rho (up, down):  1.346E-01 0.000E+00

     total cpu time spent up to now is        5.6 secs

     total energy              =    -576.56828056 Ry
     Harris-Foulkes estimate   =    -282.31665985 Ry
     estimated scf accuracy    <      26.24887868 Ry

     iteration # 58     ecut=    30.00 Ry     beta=0.70
     Davidson diagonalization with overlap
     ethr =  1.00E-02,  avg # of iterations =  6.0

     negative rho (up, down):  1.113E-01 0.000E+00

     total cpu time spent up to now is        5.6 secs

     total energy              =      68.48611024 Ry
     Harris-Foulkes estimate   =   -3169.65263819 Ry
     estimated scf accuracy    <      15.41029775 Ry

     iteration # 59     ecut=    30.00 Ry     beta=0.70
     Davidson diagonalization with overlap
     ethr =  1.00E-02,  avg # of iterations =  5.0

     negative rho (up, down):  8.910E-02 0.000E+00

     total cpu time spent up to now is        5.7 secs

     total energy              =     -13.31564060 Ry
     Harris-Foulkes estimate   =    -274.91404042 Ry
     estimated scf accuracy    <      27.95765281 Ry

     iteration # 60     ecut=    30.00 Ry     beta=0.70
     Davidson diagonalization with overlap
     ethr =  1.00E-02,  avg # of iterations =  7.0

     negative rho (up, down):  1.294E-02 0.000E+00

     total cpu time spent up to now is        5.7 secs

     total energy              =     -15.59195680 Ry
     Harris-Foulkes estimate   =     -75.13384447 Ry
     estimated scf accuracy    <      21.94028593 Ry

     iteration # 61     ecut=    30.00 Ry     beta=0.70
     Davidson diagonalization with overlap
     ethr =  1.00E-02,  avg # of iterations =  6.0

     negative rho (up, down):  4.227E-02 0.000E+00

     total cpu time spent up to now is        5.8 secs

     total energy              =      81.78645806 Ry
     Harris-Foulkes estimate   =    -195.87962395 Ry
     estimated scf accuracy    <      30.92704167 Ry

     iteration # 62     ecut=    30.00 Ry     beta=0.70
     Davidson diagonalization with overlap
     ethr =  1.00E-02,  avg # of iterations = 13.0

     negative rho (up, down):  5.178E-02 0.000E+00

     total cpu time spent up to now is        5.8 secs

     total energy              =     -26.61686026 Ry
     Harris-Foulkes estimate   =    -128.45091328 Ry
     estimated scf accuracy    <      25.53762535 Ry

     iteration # 63     ecut=    30.00 Ry     beta=0.70
     Davidson diagonalization with overlap
     ethr =  1.00E-02,  avg # of iterations =  6.0

     negative rho (up, down):  1.490E-01 0.000E+00

     total cpu time spent up to now is        5.9 secs

     total energy              =    -515.13144898 Ry
     Harris-Foulkes estimate   =    -239.45498995 Ry
     estimated scf accuracy    <      21.50673121 Ry

     iteration # 64     ecut=    30.00 Ry     beta=0.70
     Davidson diagonalization with overlap
     ethr =  1.00E-02,  avg # of iterations =  4.0

     negative rho (up, down):  1.827E-01 0.000E+00

     total cpu time spent up to now is        5.9 secs

     total energy              =     -35.70108941 Ry
     Harris-Foulkes estimate   =   -1320.51553288 Ry
     estimated scf accuracy    <      21.59768249 Ry

     iteration # 65     ecut=    30.00 Ry     beta=0.70
     Davidson diagonalization with overlap
     ethr =  1.00E-02,  avg # of iterations =  4.0

     negative rho (up, down):  2.225E-01 0.000E+00

     total cpu time spent up to now is        6.0 secs

     total energy              =      75.00694975 Ry
     Harris-Foulkes estimate   =    -686.32761619 Ry
     estimated scf accuracy    <      31.38417069 Ry

     iteration # 66     ecut=    30.00 Ry     beta=0.70
     Davidson diagonalization with overlap
     ethr =  1.00E-02,  avg # of iterations =  9.0

     negative rho (up, down):  4.449E-01 0.000E+00

     total cpu time spent up to now is        6.0 secs

     total energy              =     -15.06898496 Ry
     Harris-Foulkes estimate   =    -105.44855560 Ry
     estimated scf accuracy    <      20.82775450 Ry

     iteration # 67     ecut=    30.00 Ry     beta=0.70
     Davidson diagonalization with overlap
     ethr =  1.00E-02,  avg # of iterations =  7.0

     negative rho (up, down):  3.129E-01 0.000E+00

     total cpu time spent up to now is        6.1 secs

     total energy              =      97.61486493 Ry
     Harris-Foulkes estimate   =    -544.94962639 Ry
     estimated scf accuracy    <      29.50639816 Ry

     iteration # 68     ecut=    30.00 Ry     beta=0.70
     Davidson diagonalization with overlap
     ethr =  1.00E-02,  avg # of iterations =  9.0

     negative rho (up, down):  1.323E-01 0.000E+00

     total cpu time spent up to now is        6.1 secs

     total energy              =     -13.62217856 Ry
     Harris-Foulkes estimate   =     -64.24266087 Ry
     estimated scf accuracy    <      18.62283221 Ry

     iteration # 69     ecut=    30.00 Ry     beta=0.70
     Davidson diagonalization with overlap
     ethr =  1.00E-02,  avg # of iterations =  9.0

     negative rho (up, down):  2.679E-01 0.000E+00

     total cpu time spent up to now is        6.2 secs

     total energy              =     -16.37964253 Ry
     Harris-Foulkes estimate   =     -86.29755656 Ry
     estimated scf accuracy    <      22.09182635 Ry

     iteration # 70     ecut=    30.00 Ry     beta=0.70
     Davidson diagonalization with overlap
     ethr =  1.00E-02,  avg # of iterations =  8.0

     negative rho (up, down):  1.393E-01 0.000E+00

     total cpu time spent up to now is        6.2 secs

     total energy              =      32.13201460 Ry
     Harris-Foulkes estimate   =    -171.55856607 Ry
     estimated scf accuracy    <      17.66831690 Ry

     iteration # 71     ecut=    30.00 Ry     beta=0.70
     Davidson diagonalization with overlap
     ethr =  1.00E-02,  avg # of iterations =  6.0

     negative rho (up, down):  2.907E-02 0.000E+00

     total cpu time spent up to now is        6.3 secs

     total energy              =      79.07968955 Ry
     Harris-Foulkes estimate   =    -306.04293238 Ry
     estimated scf accuracy    <      18.69536507 Ry

     iteration # 72     ecut=    30.00 Ry     beta=0.70
     Davidson diagonalization with overlap
     ethr =  1.00E-02,  avg # of iterations =  6.0

     negative rho (up, down):  6.238E-02 0.000E+00

     total cpu time spent up to now is        6.3 secs

     total energy              =     -12.78367426 Ry
     Harris-Foulkes estimate   =     -73.09051133 Ry
     estimated scf accuracy    <      14.51194379 Ry

     iteration # 73     ecut=    30.00 Ry     beta=0.70
     Davidson diagonalization with overlap
     ethr =  1.00E-02,  avg # of iterations =  7.0

     negative rho (up, down):  1.987E-02 0.000E+00

     total cpu time spent up to now is        6.4 secs

     total energy              =      46.64118637 Ry
     Harris-Foulkes estimate   =    -577.72584985 Ry
     estimated scf accuracy    <      10.70692778 Ry

     iteration # 74     ecut=    30.00 Ry     beta=0.70
     Davidson diagonalization with overlap
     ethr =  1.00E-02,  avg # of iterations =  6.0

     negative rho (up, down):  5.316E-02 0.000E+00

     total cpu time spent up to now is        6.4 secs

     total energy              =    -154.71871765 Ry
     Harris-Foulkes estimate   =     -74.66658972 Ry
     estimated scf accuracy    <      10.38060370 Ry

     iteration # 75     ecut=    30.00 Ry     beta=0.70
     Davidson diagonalization with overlap
     ethr =  1.00E-02,  avg # of iterations =  6.0

     negative rho (up, down):  8.423E-03 0.000E+00

     total cpu time spent up to now is        6.5 secs

     total energy              =      84.25074693 Ry
     Harris-Foulkes estimate   =    -967.32052008 Ry
     estimated scf accuracy    <      12.87244459 Ry

     iteration # 76     ecut=    30.00 Ry     beta=0.70
     Davidson diagonalization with overlap
     ethr =  1.00E-02,  avg # of iterations =  9.0

     negative rho (up, down):  1.111E-01 0.000E+00

     total cpu time spent up to now is        6.5 secs

     total energy              =     -10.96483289 Ry
     Harris-Foulkes estimate   =     -85.28789103 Ry
     estimated scf accuracy    <      11.78336750 Ry

     iteration # 77     ecut=    30.00 Ry     beta=0.70
     Davidson diagonalization with overlap
     ethr =  1.00E-02,  avg # of iterations =  5.0

     negative rho (up, down):  1.143E-01 0.000E+00

     total cpu time spent up to now is        6.6 secs

     total energy              =   -8572.66504679 Ry
     Harris-Foulkes estimate   =    -118.12937486 Ry
     estimated scf accuracy    <      14.28052859 Ry

     iteration # 78     ecut=    30.00 Ry     beta=0.70
     Davidson diagonalization with overlap
     ethr =  1.00E-02,  avg # of iterations =  5.0

     total cpu time spent up to now is        6.6 secs

     total energy              =      83.13361025 Ry
     Harris-Foulkes estimate   =  -14741.55409991 Ry
     estimated scf accuracy    <      23.18284074 Ry

     iteration # 79     ecut=    30.00 Ry     beta=0.70
     Davidson diagonalization with overlap
     ethr =  1.00E-02,  avg # of iterations =  6.0

     negative rho (up, down):  4.127E-03 0.000E+00

     total cpu time spent up to now is        6.7 secs

     total energy              =     -40.79680722 Ry
     Harris-Foulkes estimate   =     -42.70013196 Ry
     estimated scf accuracy    <      18.71048959 Ry

     iteration # 80     ecut=    30.00 Ry     beta=0.70
     Davidson diagonalization with overlap
     ethr =  1.00E-02,  avg # of iterations =  5.0

     negative rho (up, down):  2.245E-02 0.000E+00

     total cpu time spent up to now is        6.7 secs

     total energy              =      -2.89166923 Ry
     Harris-Foulkes estimate   =    -115.12575895 Ry
     estimated scf accuracy    <       9.41939492 Ry

     iteration # 81     ecut=    30.00 Ry     beta=0.70
     Davidson diagonalization with overlap
     ethr =  1.00E-02,  avg # of iterations =  4.0

     negative rho (up, down):  7.923E-02 0.000E+00

     total cpu time spent up to now is        6.8 secs

     total energy              =      -0.37748130 Ry
     Harris-Foulkes estimate   =    -524.16395912 Ry
     estimated scf accuracy    <       8.11160879 Ry

     iteration # 82     ecut=    30.00 Ry     beta=0.70
     Davidson diagonalization with overlap
     ethr =  1.00E-02,  avg # of iterations =  4.0

     negative rho (up, down):  5.679E-02 0.000E+00

     total cpu time spent up to now is        6.8 secs

     total energy              =      39.83575028 Ry
     Harris-Foulkes estimate   =    -289.59774749 Ry
     estimated scf accuracy    <       8.97053509 Ry

     iteration # 83     ecut=    30.00 Ry     beta=0.70
     Davidson diagonalization with overlap
     ethr =  1.00E-02,  avg # of iterations =  7.0

     negative rho (up, down):  9.804E-02 0.000E+00

     total cpu time spent up to now is        6.9 secs

     total energy              =     -38.14318021 Ry
     Harris-Foulkes estimate   =     -39.81547812 Ry
     estimated scf accuracy    <      14.87131547 Ry

     iteration # 84     ecut=    30.00 Ry     beta=0.70
     Davidson diagonalization with overlap
     ethr =  1.00E-02,  avg # of iterations =  7.0

     negative rho (up, down):  2.438E-01 0.000E+00

     total cpu time spent up to now is        6.9 secs

     total energy              =      65.78416712 Ry
     Harris-Foulkes estimate   =    -215.56121611 Ry
     estimated scf accuracy    <      25.42576896 Ry

     iteration # 85     ecut=    30.00 Ry     beta=0.70
     Davidson diagonalization with overlap
     ethr =  1.00E-02,  avg # of iterations = 14.0

     negative rho (up, down):  5.059E-03 0.000E+00

     total cpu time spent up to now is        7.0 secs

     total energy              =      39.00029892 Ry
     Harris-Foulkes estimate   =     -56.50283799 Ry
     estimated scf accuracy    <      20.79977285 Ry

     iteration # 86     ecut=    30.00 Ry     beta=0.70
     Davidson diagonalization with overlap
     ethr =  1.00E-02,  avg # of iterations =  9.0

     negative rho (up, down):  7.272E-03 0.000E+00

     total cpu time spent up to now is        7.0 secs

     total energy              =     -37.27438272 Ry
     Harris-Foulkes estimate   =     -38.22989842 Ry
     estimated scf accuracy    <      12.27437676 Ry

     iteration # 87     ecut=    30.00 Ry     beta=0.70
     Davidson diagonalization with overlap
     ethr =  1.00E-02,  avg # of iterations =  4.0

     negative rho (up, down):  2.502E-02 0.000E+00

     total cpu time spent up to now is        7.1 secs

     total energy              =       2.92522807 Ry
     Harris-Foulkes estimate   =    -121.92579450 Ry
     estimated scf accuracy    <       4.25289954 Ry

     iteration # 88     ecut=    30.00 Ry     beta=0.70
     Davidson diagonalization with overlap
     ethr =  1.00E-02,  avg # of iterations =  7.0

     total cpu time spent up to now is        7.1 secs

     total energy              =     -14.33911551 Ry
     Harris-Foulkes estimate   =     -41.70979918 Ry
     estimated scf accuracy    <       6.60226842 Ry

     iteration # 89     ecut=    30.00 Ry     beta=0.70
     Davidson diagonalization with overlap
     ethr =  1.00E-02,  avg # of iterations =  4.0

     negative rho (up, down):  1.268E-03 0.000E+00

     total cpu time spent up to now is        7.1 secs

     total energy              =     -36.28321263 Ry
     Harris-Foulkes estimate   =     -37.18922995 Ry
     estimated scf accuracy    <      10.79729018 Ry

     iteration # 90     ecut=    30.00 Ry     beta=0.70
     Davidson diagonalization with overlap
     ethr =  1.00E-02,  avg # of iterations =  1.0

     negative rho (up, down):  5.856E-03 0.000E+00

     total cpu time spent up to now is        7.2 secs

     total energy              =     -36.28104076 Ry
     Harris-Foulkes estimate   =     -36.33104562 Ry
     estimated scf accuracy    <       7.79444732 Ry

     iteration # 91     ecut=    30.00 Ry     beta=0.70
     Davidson diagonalization with overlap
     ethr =  1.00E-02,  avg # of iterations =  1.0

     negative rho (up, down):  1.104E-02 0.000E+00

     total cpu time spent up to now is        7.2 secs

     total energy              =     -36.61741871 Ry
     Harris-Foulkes estimate   =     -36.28605399 Ry
     estimated scf accuracy    <       7.70392282 Ry

     iteration # 92     ecut=    30.00 Ry     beta=0.70
     Davidson diagonalization with overlap
     ethr =  1.00E-02,  avg # of iterations =  4.0

     negative rho (up, down):  2.041E-02 0.000E+00

     total cpu time spent up to now is        7.2 secs

     total energy              =     -62.42189644 Ry
     Harris-Foulkes estimate   =    -269.63223756 Ry
     estimated scf accuracy    <       8.08082283 Ry

     iteration # 93     ecut=    30.00 Ry     beta=0.70
     Davidson diagonalization with overlap
     ethr =  1.00E-02,  avg # of iterations =  4.0

     negative rho (up, down):  1.481E-02 0.000E+00

     total cpu time spent up to now is        7.3 secs

     total energy              =      39.88613652 Ry
     Harris-Foulkes estimate   =    -209.74308922 Ry
     estimated scf accuracy    <      23.02238477 Ry

     iteration # 94     ecut=    30.00 Ry     beta=0.70
     Davidson diagonalization with overlap
     ethr =  1.00E-02,  avg # of iterations =  7.0

     negative rho (up, down):  1.017E-01 0.000E+00

     total cpu time spent up to now is        7.3 secs

     total energy              =     -35.65144137 Ry
     Harris-Foulkes estimate   =     -36.40775916 Ry
     estimated scf accuracy    <       7.53968824 Ry

     iteration # 95     ecut=    30.00 Ry     beta=0.70
     Davidson diagonalization with overlap
     ethr =  1.00E-02,  avg # of iterations =  7.0

     negative rho (up, down):  1.476E-02 0.000E+00

     total cpu time spent up to now is        7.4 secs

     total energy              =      36.03506542 Ry
     Harris-Foulkes estimate   =    -564.80641272 Ry
     estimated scf accuracy    <      22.05460365 Ry

     iteration # 96     ecut=    30.00 Ry     beta=0.70
     Davidson diagonalization with overlap
     ethr =  1.00E-02,  avg # of iterations =  5.0

     negative rho (up, down):  5.911E-02 0.000E+00

     total cpu time spent up to now is        7.4 secs

     total energy              =     -35.71403206 Ry
     Harris-Foulkes estimate   =     -36.42716870 Ry
     estimated scf accuracy    <      10.42642396 Ry

     iteration # 97     ecut=    30.00 Ry     beta=0.70
     Davidson diagonalization with overlap
     ethr =  1.00E-02,  avg # of iterations =  1.0

     negative rho (up, down):  2.544E-01 0.000E+00

     total cpu time spent up to now is        7.5 secs

     total energy              =     -35.84427931 Ry
     Harris-Foulkes estimate   =     -35.72046206 Ry
     estimated scf accuracy    <       8.17930443 Ry

     iteration # 98     ecut=    30.00 Ry     beta=0.70
     Davidson diagonalization with overlap
     ethr =  1.00E-02,  avg # of iterations =  4.0

     negative rho (up, down):  1.675E-01 0.000E+00

     total cpu time spent up to now is        7.5 secs

     total energy              =      44.56650667 Ry
     Harris-Foulkes estimate   =    -295.45750344 Ry
     estimated scf accuracy    <      20.24351518 Ry

     iteration # 99     ecut=    30.00 Ry     beta=0.70
     Davidson diagonalization with overlap
     ethr =  1.00E-02,  avg # of iterations =  5.0

     negative rho (up, down):  1.586E-01 0.000E+00

     total cpu time spent up to now is        7.5 secs

     total energy              =      -3.47981262 Ry
     Harris-Foulkes estimate   =    -149.40709869 Ry
     estimated scf accuracy    <       7.56887423 Ry

     iteration #100     ecut=    30.00 Ry     beta=0.70
     Davidson diagonalization with overlap
     ethr =  1.00E-02,  avg # of iterations =  7.0

     negative rho (up, down):  1.526E-01 0.000E+00

     total cpu time spent up to now is        7.6 secs

     total energy              =      31.06990214 Ry
     Harris-Foulkes estimate   =    -146.15754634 Ry
     estimated scf accuracy    <      10.45393803 Ry

     End of self-consistent calculation

     convergence NOT achieved after 100 iterations: stopping

     Writing output data file pwscf.save
 
     init_run     :      0.09s CPU      0.11s WALL (       1 calls)
     electrons    :      5.67s CPU      6.88s WALL (       3 calls)
     update_pot   :      0.18s CPU      0.26s WALL (       2 calls)
     forces       :      0.05s CPU      0.05s WALL (       2 calls)

     Called by init_run:
     wfcinit      :      0.01s CPU      0.02s WALL (       1 calls)
     potinit      :      0.02s CPU      0.03s WALL (       1 calls)

     Called by electrons:
     c_bands      :      2.95s CPU      3.05s WALL (     141 calls)
     sum_band     :      0.41s CPU      0.44s WALL (     141 calls)
     v_of_rho     :      1.06s CPU      1.12s WALL (     144 calls)
     mix_rho      :      1.02s CPU      1.70s WALL (     141 calls)

     Called by c_bands:
     init_us_2    :      0.01s CPU      0.02s WALL (     283 calls)
     cegterg      :      2.92s CPU      2.98s WALL (     141 calls)

     Called by sum_band:

     Called by *egterg:
     h_psi        :      2.41s CPU      2.45s WALL (     944 calls)
     g_psi        :      0.03s CPU      0.03s WALL (     802 calls)
     cdiaghg      :      0.20s CPU      0.20s WALL (     941 calls)

     Called by h_psi:
     h_psi:pot    :      2.39s CPU      2.44s WALL (     944 calls)
     h_psi:calbec :      0.05s CPU      0.05s WALL (     944 calls)
     vloc_psi     :      2.34s CPU      2.38s WALL (     944 calls)
     add_vuspsi   :      0.01s CPU      0.01s WALL (     944 calls)

     General routines
     calbec       :      0.05s CPU      0.06s WALL (     953 calls)
     fft          :      0.65s CPU      0.69s WALL (    1588 calls)
     fftw         :      2.37s CPU      2.44s WALL (   10572 calls)
     davcio       :      0.16s CPU      0.62s WALL (    2566 calls)
 
     Parallel routines
     fft_scatter  :      1.15s CPU      1.23s WALL (   12160 calls)
 
     PWSCF        :     6.14s CPU         7.71s WALL

 
   This run was terminated on:   7:43: 5  14Feb2018            

=------------------------------------------------------------------------------=
   JOB DONE.
=------------------------------------------------------------------------------=
