
     Program PWSCF v.6.0 (svn rev. 13079) starts on 14Feb2018 at  7:43:28 

     This program is part of the open-source Quantum ESPRESSO suite
     for quantum simulation of materials; please cite
         "P. Giannozzi et al., J. Phys.:Condens. Matter 21 395502 (2009);
          URL http://www.quantum-espresso.org", 
     in publications or presentations arising from this work. More details at
     http://www.quantum-espresso.org/quote

     Parallel version (MPI), running on    28 processors
     R & G space division:  proc/nbgrp/npool/nimage =      28
     Reading input from inputs/MD-H2O-2/183.in

     Current dimensions of program PWSCF are:
     Max number of different atomic species (ntypx) = 10
     Max number of k-points (npk) =  40000
     Max angular momentum in pseudopotentials (lmaxx) =  3

     Subspace diagonalization in iterative solution of the eigenvalue problem:
     a serial algorithm will be used

 
     Parallelization info
     --------------------
     sticks:   dense  smooth     PW     G-vecs:    dense   smooth      PW
     Min         136     136     33                 6338     6338     787
     Max         137     137     34                 6341     6341     792
     Sum        3809    3809    949               177509   177509   22119
 


     bravais-lattice index     =            1
     lattice parameter (alat)  =      20.0000  a.u.
     unit-cell volume          =    8000.0000 (a.u.)^3
     number of atoms/cell      =            3
     number of atomic types    =            2
     number of electrons       =         8.00
     number of Kohn-Sham states=            8
     kinetic-energy cutoff     =      30.0000  Ry
     charge density cutoff     =     120.0000  Ry
     convergence threshold     =      1.0E-08
     mixing beta               =       0.7000
     number of iterations used =            8  plain     mixing
     Exchange-correlation      = BLYP ( 1  3  1  3 0 0)
     nstep                     =         5000


     celldm(1)=  20.000000  celldm(2)=   0.000000  celldm(3)=   0.000000
     celldm(4)=   0.000000  celldm(5)=   0.000000  celldm(6)=   0.000000

     crystal axes: (cart. coord. in units of alat)
               a(1) = (   1.000000   0.000000   0.000000 )  
               a(2) = (   0.000000   1.000000   0.000000 )  
               a(3) = (   0.000000   0.000000   1.000000 )  

     reciprocal axes: (cart. coord. in units 2 pi/alat)
               b(1) = (  1.000000  0.000000  0.000000 )  
               b(2) = (  0.000000  1.000000  0.000000 )  
               b(3) = (  0.000000  0.000000  1.000000 )  


     PseudoPot. # 1 for  H read from file:
     ./H.blyp-hgh.UPF
     MD5 check sum: c576e69559cde411e611be972c763230
     Pseudo is Norm-conserving, Zval =  1.0
     Generated in analytical, separable form
     Using radial grid of  929 points,  0 beta functions with: 

     PseudoPot. # 2 for  O read from file:
     ./O.blyp-hgh.UPF
     MD5 check sum: d0b7156309aa9befef28faac7bc56342
     Pseudo is Norm-conserving, Zval =  6.0
     Generated in analytical, separable form
     Using radial grid of 1095 points,  1 beta functions with: 
                l(1) =   0

     atomic species   valence    mass     pseudopotential
        H              1.00     1.01000      H( 1.00)
        O              6.00    16.00000      O( 1.00)

     No symmetry found



   Cartesian axes

     site n.     atom                  positions (alat units)
         1           H   tau(   1) = (   1.2215008   0.3005455  -0.0030840  )
         2           H   tau(   2) = (   0.5387283  -0.0229806   0.5375409  )
         3           O   tau(   3) = (   0.1563338   0.3315055   0.0653677  )

     number of k points=     1  Marzari-Vanderbilt smearing, width (Ry)=  0.0250
                       cart. coord. in units 2pi/alat
        k(    1) = (   0.0000000   0.0000000   0.0000000), wk =   2.0000000

     Dense  grid:   177509 G-vectors     FFT dimensions: (  72,  72,  72)

     Estimated max dynamical RAM per process >       6.09Mb

     Estimated total allocated dynamical RAM >     170.64Mb

     Initial potential from superposition of free atoms
     Check: negative starting charge=   -0.350914

     starting charge    7.99998, renormalised to    8.00000

     negative rho (up, down):  3.509E-01 0.000E+00
     Starting wfc are    6 randomized atomic wfcs +    2 random wfc

     total cpu time spent up to now is        0.2 secs

     per-process dynamical memory:    18.8 Mb

     Self-consistent Calculation

     iteration #  1     ecut=    30.00 Ry     beta=0.70
     Davidson diagonalization with overlap
     ethr =  1.00E-02,  avg # of iterations =  9.0

     negative rho (up, down):  9.188E-02 0.000E+00

     total cpu time spent up to now is        0.3 secs

     total energy              =     -30.31378541 Ry
     Harris-Foulkes estimate   =     -32.23771581 Ry
     estimated scf accuracy    <       2.21091220 Ry

     iteration #  2     ecut=    30.00 Ry     beta=0.70
     Davidson diagonalization with overlap
     ethr =  1.00E-02,  avg # of iterations =  3.0

     negative rho (up, down):  6.681E-02 0.000E+00

     total cpu time spent up to now is        0.3 secs

     total energy              =     -32.31392847 Ry
     Harris-Foulkes estimate   =     -34.64867720 Ry
     estimated scf accuracy    <       5.67050377 Ry

     iteration #  3     ecut=    30.00 Ry     beta=0.70
     Davidson diagonalization with overlap
     ethr =  1.00E-02,  avg # of iterations =  2.0

     negative rho (up, down):  6.421E-02 0.000E+00

     total cpu time spent up to now is        0.4 secs

     total energy              =     -32.45874647 Ry
     Harris-Foulkes estimate   =     -32.54913025 Ry
     estimated scf accuracy    <       1.85931498 Ry

     iteration #  4     ecut=    30.00 Ry     beta=0.70
     Davidson diagonalization with overlap
     ethr =  1.00E-02,  avg # of iterations =  1.0

     negative rho (up, down):  1.164E-02 0.000E+00

     total cpu time spent up to now is        0.4 secs

     total energy              =     -31.27234952 Ry
     Harris-Foulkes estimate   =     -32.45906627 Ry
     estimated scf accuracy    <       1.73580691 Ry

     iteration #  5     ecut=    30.00 Ry     beta=0.70
     Davidson diagonalization with overlap
     ethr =  1.00E-02,  avg # of iterations =  4.0

     negative rho (up, down):  2.419E-02 0.000E+00

     total cpu time spent up to now is        0.4 secs

     total energy              =     -33.50919248 Ry
     Harris-Foulkes estimate   =     -33.33264973 Ry
     estimated scf accuracy    <       9.36727392 Ry

     iteration #  6     ecut=    30.00 Ry     beta=0.70
     Davidson diagonalization with overlap
     ethr =  1.00E-02,  avg # of iterations =  1.0

     negative rho (up, down):  3.718E-02 0.000E+00

     total cpu time spent up to now is        0.4 secs

     total energy              =     -33.59585775 Ry
     Harris-Foulkes estimate   =     -33.51120463 Ry
     estimated scf accuracy    <       9.71036879 Ry

     iteration #  7     ecut=    30.00 Ry     beta=0.70
     Davidson diagonalization with overlap
     ethr =  1.00E-02,  avg # of iterations =  1.0

     negative rho (up, down):  3.893E-02 0.000E+00

     total cpu time spent up to now is        0.5 secs

     total energy              =     -33.53090476 Ry
     Harris-Foulkes estimate   =     -33.59741976 Ry
     estimated scf accuracy    <       9.89760553 Ry

     iteration #  8     ecut=    30.00 Ry     beta=0.70
     Davidson diagonalization with overlap
     ethr =  1.00E-02,  avg # of iterations =  1.0

     negative rho (up, down):  4.163E-02 0.000E+00

     total cpu time spent up to now is        0.5 secs

     total energy              =     -33.58844926 Ry
     Harris-Foulkes estimate   =     -33.53184744 Ry
     estimated scf accuracy    <       9.81940381 Ry

     iteration #  9     ecut=    30.00 Ry     beta=0.70
     Davidson diagonalization with overlap
     ethr =  1.00E-02,  avg # of iterations =  1.0

     negative rho (up, down):  4.873E-02 0.000E+00

     total cpu time spent up to now is        0.5 secs

     total energy              =     -33.54204207 Ry
     Harris-Foulkes estimate   =     -33.58934660 Ry
     estimated scf accuracy    <       9.93541633 Ry

     iteration # 10     ecut=    30.00 Ry     beta=0.70
     Davidson diagonalization with overlap
     ethr =  1.00E-02,  avg # of iterations =  1.0

     negative rho (up, down):  3.471E-02 0.000E+00

     total cpu time spent up to now is        0.6 secs

     total energy              =     -33.31222421 Ry
     Harris-Foulkes estimate   =     -33.54275854 Ry
     estimated scf accuracy    <       9.89076257 Ry

     iteration # 11     ecut=    30.00 Ry     beta=0.70
     Davidson diagonalization with overlap
     ethr =  1.00E-02,  avg # of iterations =  1.0

     negative rho (up, down):  3.747E-02 0.000E+00

     total cpu time spent up to now is        0.6 secs

     total energy              =     -31.12226624 Ry
     Harris-Foulkes estimate   =     -33.32029152 Ry
     estimated scf accuracy    <       8.94963503 Ry

     iteration # 12     ecut=    30.00 Ry     beta=0.70
     Davidson diagonalization with overlap
     ethr =  1.00E-02,  avg # of iterations =  3.0

     negative rho (up, down):  3.542E-02 0.000E+00

     total cpu time spent up to now is        0.6 secs

     total energy              =     -31.80590662 Ry
     Harris-Foulkes estimate   =     -32.04285104 Ry
     estimated scf accuracy    <       1.39843548 Ry

     iteration # 13     ecut=    30.00 Ry     beta=0.70
     Davidson diagonalization with overlap
     ethr =  1.00E-02,  avg # of iterations =  1.0

     negative rho (up, down):  8.239E-02 0.000E+00

     total cpu time spent up to now is        0.7 secs

     total energy              =     -31.84702735 Ry
     Harris-Foulkes estimate   =     -32.03348538 Ry
     estimated scf accuracy    <       1.06769008 Ry

     iteration # 14     ecut=    30.00 Ry     beta=0.70
     Davidson diagonalization with overlap
     ethr =  1.00E-02,  avg # of iterations =  1.0

     negative rho (up, down):  1.127E-01 0.000E+00

     total cpu time spent up to now is        0.7 secs

     total energy              =     -31.95783388 Ry
     Harris-Foulkes estimate   =     -32.02850091 Ry
     estimated scf accuracy    <       1.35317848 Ry

     iteration # 15     ecut=    30.00 Ry     beta=0.70
     Davidson diagonalization with overlap
     ethr =  1.00E-02,  avg # of iterations =  1.0

     negative rho (up, down):  2.002E-01 0.000E+00

     total cpu time spent up to now is        0.7 secs

     total energy              =     -31.86150808 Ry
     Harris-Foulkes estimate   =     -31.95464199 Ry
     estimated scf accuracy    <       0.97793209 Ry

     iteration # 16     ecut=    30.00 Ry     beta=0.70
     Davidson diagonalization with overlap
     ethr =  1.00E-02,  avg # of iterations =  1.0

     negative rho (up, down):  3.526E-02 0.000E+00

     total cpu time spent up to now is        0.8 secs

     total energy              =     -31.85767792 Ry
     Harris-Foulkes estimate   =     -31.99184618 Ry
     estimated scf accuracy    <       1.04426617 Ry

     iteration # 17     ecut=    30.00 Ry     beta=0.70
     Davidson diagonalization with overlap
     ethr =  1.00E-02,  avg # of iterations =  1.0

     negative rho (up, down):  4.572E-02 0.000E+00

     total cpu time spent up to now is        0.8 secs

     total energy              =     -32.00842656 Ry
     Harris-Foulkes estimate   =     -32.01368459 Ry
     estimated scf accuracy    <       1.33147200 Ry

     iteration # 18     ecut=    30.00 Ry     beta=0.70
     Davidson diagonalization with overlap
     ethr =  1.00E-02,  avg # of iterations =  1.0

     negative rho (up, down):  1.976E-05 0.000E+00

     total cpu time spent up to now is        0.8 secs

     total energy              =     -31.96574283 Ry
     Harris-Foulkes estimate   =     -32.00864666 Ry
     estimated scf accuracy    <       1.34310372 Ry

     iteration # 19     ecut=    30.00 Ry     beta=0.70
     Davidson diagonalization with overlap
     ethr =  1.00E-02,  avg # of iterations =  1.0

     total cpu time spent up to now is        0.9 secs

     total energy              =     -31.95484525 Ry
     Harris-Foulkes estimate   =     -31.96280843 Ry
     estimated scf accuracy    <       1.19579054 Ry

     iteration # 20     ecut=    30.00 Ry     beta=0.70
     Davidson diagonalization with overlap
     ethr =  1.00E-02,  avg # of iterations =  1.0

     negative rho (up, down):  4.393E-03 0.000E+00

     total cpu time spent up to now is        0.9 secs

     total energy              =     -31.91489265 Ry
     Harris-Foulkes estimate   =     -31.95576695 Ry
     estimated scf accuracy    <       0.74287590 Ry

     iteration # 21     ecut=    30.00 Ry     beta=0.70
     Davidson diagonalization with overlap
     ethr =  9.29E-03,  avg # of iterations =  1.0

     negative rho (up, down):  4.473E-03 0.000E+00

     total cpu time spent up to now is        0.9 secs

     total energy              =     -31.95174475 Ry
     Harris-Foulkes estimate   =     -31.95665216 Ry
     estimated scf accuracy    <       0.58676896 Ry

     iteration # 22     ecut=    30.00 Ry     beta=0.70
     Davidson diagonalization with overlap
     ethr =  7.33E-03,  avg # of iterations =  1.0

     negative rho (up, down):  6.297E-05 0.000E+00

     total cpu time spent up to now is        1.0 secs

     total energy              =     -31.92814400 Ry
     Harris-Foulkes estimate   =     -31.95214778 Ry
     estimated scf accuracy    <       0.39753862 Ry

     iteration # 23     ecut=    30.00 Ry     beta=0.70
     Davidson diagonalization with overlap
     ethr =  4.97E-03,  avg # of iterations =  1.0

     negative rho (up, down):  2.380E-04 0.000E+00

     total cpu time spent up to now is        1.0 secs

     total energy              =     -31.93868770 Ry
     Harris-Foulkes estimate   =     -31.95492909 Ry
     estimated scf accuracy    <       0.68230292 Ry

     iteration # 24     ecut=    30.00 Ry     beta=0.70
     Davidson diagonalization with overlap
     ethr =  4.97E-03,  avg # of iterations =  1.0

     negative rho (up, down):  8.151E-05 0.000E+00

     total cpu time spent up to now is        1.0 secs

     total energy              =     -31.94631035 Ry
     Harris-Foulkes estimate   =     -31.94624446 Ry
     estimated scf accuracy    <       0.00139606 Ry

     iteration # 25     ecut=    30.00 Ry     beta=0.70
     Davidson diagonalization with overlap
     ethr =  1.75E-05,  avg # of iterations =  7.0

     negative rho (up, down):  4.761E-06 0.000E+00

     total cpu time spent up to now is        1.1 secs

     total energy              =     -31.94606377 Ry
     Harris-Foulkes estimate   =     -31.94636303 Ry
     estimated scf accuracy    <       0.01015476 Ry

     iteration # 26     ecut=    30.00 Ry     beta=0.70
     Davidson diagonalization with overlap
     ethr =  1.75E-05,  avg # of iterations =  1.0

     negative rho (up, down):  1.701E-07 0.000E+00

     total cpu time spent up to now is        1.1 secs

     total energy              =     -31.94623643 Ry
     Harris-Foulkes estimate   =     -31.94624688 Ry
     estimated scf accuracy    <       0.00042444 Ry

     iteration # 27     ecut=    30.00 Ry     beta=0.70
     Davidson diagonalization with overlap
     ethr =  5.31E-06,  avg # of iterations =  1.0

     total cpu time spent up to now is        1.1 secs

     total energy              =     -31.94624219 Ry
     Harris-Foulkes estimate   =     -31.94624230 Ry
     estimated scf accuracy    <       0.00000084 Ry

     iteration # 28     ecut=    30.00 Ry     beta=0.70
     Davidson diagonalization with overlap
     ethr =  1.06E-08,  avg # of iterations =  1.0

     total cpu time spent up to now is        1.2 secs

     total energy              =     -31.94624217 Ry
     Harris-Foulkes estimate   =     -31.94624225 Ry
     estimated scf accuracy    <       0.00000142 Ry

     iteration # 29     ecut=    30.00 Ry     beta=0.70
     Davidson diagonalization with overlap
     ethr =  1.06E-08,  avg # of iterations =  1.0

     total cpu time spent up to now is        1.2 secs

     total energy              =     -31.94624221 Ry
     Harris-Foulkes estimate   =     -31.94624221 Ry
     estimated scf accuracy    <       0.00000039 Ry

     iteration # 30     ecut=    30.00 Ry     beta=0.70
     Davidson diagonalization with overlap
     ethr =  4.90E-09,  avg # of iterations =  1.0

     total cpu time spent up to now is        1.2 secs

     total energy              =     -31.94624221 Ry
     Harris-Foulkes estimate   =     -31.94624221 Ry
     estimated scf accuracy    <       0.00000007 Ry

     iteration # 31     ecut=    30.00 Ry     beta=0.70
     Davidson diagonalization with overlap
     ethr =  9.27E-10,  avg # of iterations =  1.0

     total cpu time spent up to now is        1.2 secs

     End of self-consistent calculation

          k = 0.0000 0.0000 0.0000 ( 22119 PWs)   bands (ev):

   -24.7930 -10.6397  -7.0489  -7.0483  -6.9100  -0.6977   0.3503   0.8040

     the Fermi energy is    -6.8785 ev

!    total energy              =     -31.94624221 Ry
     Harris-Foulkes estimate   =     -31.94624221 Ry
     estimated scf accuracy    <          7.2E-10 Ry

     convergence has been achieved in  31 iterations

     Forces acting on atoms (Ry/au):

     atom    1 type  1   force =     0.01090260   -0.00435820   -0.01140945
     atom    2 type  1   force =    -0.00033830    0.00026276    0.00026765
     atom    3 type  2   force =    -0.01056430    0.00409544    0.01114179

     Total force =     0.022821     Total SCF correction =     0.000006

     Molecular Dynamics Calculation

     Starting temperature  =  1000.00 K

     temperature is controlled by Andersen thermostat
     Collision frequency = 1.0000/timestep
     mass H                =     1.01
     mass O                =    16.00
     Time step             =   100.00 a.u.,  4.8378 femto-seconds

     Entering Dynamics:    iteration =     1
                           time      =   0.0048 pico-seconds


     Andersen thermostat:    3 collisions

ATOMIC_POSITIONS (bohr)
H       24.720790357   6.263778657  -0.321778083
H       10.779259937  -0.229170790  10.563375628
O        3.108024501   6.599601065   1.335604991


     kinetic energy (Ekin) =     0.01319564 Ry
     temperature           =   694.47456190 K 
     Ekin + Etot (const)   =   -31.93304657 Ry

     Linear momentum :    0.0000000000    0.0000000000    0.0000000000

     Writing output data file pwscf.save
     Check: negative starting charge=   -0.350914
     NEW-OLD atomic charge density approx. for the potential
     Check: negative starting charge=   -0.349306

     negative rho (up, down):  9.032E-02 0.000E+00

     total cpu time spent up to now is        1.8 secs

     per-process dynamical memory:    20.4 Mb

     Self-consistent Calculation

     iteration #  1     ecut=    30.00 Ry     beta=0.70
     Davidson diagonalization with overlap
     c_bands:  1 eigenvalues not converged
     ethr =  1.00E-06,  avg # of iterations = 20.0

     negative rho (up, down):  2.181E-02 0.000E+00

     total cpu time spent up to now is        1.9 secs

     total energy              =     -30.87768568 Ry
     Harris-Foulkes estimate   =     -31.86082415 Ry
     estimated scf accuracy    <       1.27415885 Ry

     iteration #  2     ecut=    30.00 Ry     beta=0.70
     Davidson diagonalization with overlap
     ethr =  1.00E-02,  avg # of iterations =  3.0

     negative rho (up, down):  1.640E-02 0.000E+00

     total cpu time spent up to now is        1.9 secs

     total energy              =     -32.24176478 Ry
     Harris-Foulkes estimate   =     -34.02454338 Ry
     estimated scf accuracy    <       4.75991869 Ry

     iteration #  3     ecut=    30.00 Ry     beta=0.70
     Davidson diagonalization with overlap
     ethr =  1.00E-02,  avg # of iterations =  2.0

     negative rho (up, down):  1.406E-02 0.000E+00

     total cpu time spent up to now is        2.0 secs

     total energy              =     -32.16794458 Ry
     Harris-Foulkes estimate   =     -32.43021949 Ry
     estimated scf accuracy    <       1.65933959 Ry

     iteration #  4     ecut=    30.00 Ry     beta=0.70
     Davidson diagonalization with overlap
     ethr =  1.00E-02,  avg # of iterations =  3.0

     negative rho (up, down):  1.090E-02 0.000E+00

     total cpu time spent up to now is        2.0 secs

     total energy              =     -31.85071284 Ry
     Harris-Foulkes estimate   =     -32.16918771 Ry
     estimated scf accuracy    <       1.32329203 Ry

     iteration #  5     ecut=    30.00 Ry     beta=0.70
     Davidson diagonalization with overlap
     ethr =  1.00E-02,  avg # of iterations =  2.0

     negative rho (up, down):  7.899E-04 0.000E+00

     total cpu time spent up to now is        2.1 secs

     total energy              =     -31.81412714 Ry
     Harris-Foulkes estimate   =     -31.92939473 Ry
     estimated scf accuracy    <       1.59191637 Ry

     iteration #  6     ecut=    30.00 Ry     beta=0.70
     Davidson diagonalization with overlap
     ethr =  1.00E-02,  avg # of iterations =  1.0

     negative rho (up, down):  1.019E-04 0.000E+00

     total cpu time spent up to now is        2.1 secs

     total energy              =     -31.94419813 Ry
     Harris-Foulkes estimate   =     -31.95491173 Ry
     estimated scf accuracy    <       0.97168474 Ry

     iteration #  7     ecut=    30.00 Ry     beta=0.70
     Davidson diagonalization with overlap
     ethr =  1.00E-02,  avg # of iterations =  1.0

     negative rho (up, down):  5.426E-06 0.000E+00

     total cpu time spent up to now is        2.1 secs

     total energy              =     -31.81748657 Ry
     Harris-Foulkes estimate   =     -31.94428223 Ry
     estimated scf accuracy    <       0.95639718 Ry

     iteration #  8     ecut=    30.00 Ry     beta=0.70
     Davidson diagonalization with overlap
     ethr =  1.00E-02,  avg # of iterations =  1.0

     negative rho (up, down):  2.074E-06 0.000E+00

     total cpu time spent up to now is        2.2 secs

     total energy              =     -31.99339758 Ry
     Harris-Foulkes estimate   =     -31.99255162 Ry
     estimated scf accuracy    <       1.30580329 Ry

     iteration #  9     ecut=    30.00 Ry     beta=0.70
     Davidson diagonalization with overlap
     ethr =  1.00E-02,  avg # of iterations =  1.0

     negative rho (up, down):  2.362E-06 0.000E+00

     total cpu time spent up to now is        2.2 secs

     total energy              =     -31.99445622 Ry
     Harris-Foulkes estimate   =     -31.99344877 Ry
     estimated scf accuracy    <       1.30707046 Ry

     iteration # 10     ecut=    30.00 Ry     beta=0.70
     Davidson diagonalization with overlap
     ethr =  1.00E-02,  avg # of iterations =  1.0

     negative rho (up, down):  1.552E-06 0.000E+00

     total cpu time spent up to now is        2.2 secs

     total energy              =     -31.96925445 Ry
     Harris-Foulkes estimate   =     -31.99445991 Ry
     estimated scf accuracy    <       1.30988854 Ry

     iteration # 11     ecut=    30.00 Ry     beta=0.70
     Davidson diagonalization with overlap
     ethr =  1.00E-02,  avg # of iterations =  1.0

     negative rho (up, down):  1.528E-06 0.000E+00

     total cpu time spent up to now is        2.3 secs

     total energy              =     -31.88826322 Ry
     Harris-Foulkes estimate   =     -31.96906155 Ry
     estimated scf accuracy    <       1.35496280 Ry

     iteration # 12     ecut=    30.00 Ry     beta=0.70
     Davidson diagonalization with overlap
     ethr =  1.00E-02,  avg # of iterations =  1.0

     negative rho (up, down):  8.920E-08 0.000E+00

     total cpu time spent up to now is        2.3 secs

     total energy              =     -31.90609612 Ry
     Harris-Foulkes estimate   =     -31.91078789 Ry
     estimated scf accuracy    <       0.06788685 Ry

     iteration # 13     ecut=    30.00 Ry     beta=0.70
     Davidson diagonalization with overlap
     ethr =  8.49E-04,  avg # of iterations =  1.0

     negative rho (up, down):  5.437E-08 0.000E+00

     total cpu time spent up to now is        2.3 secs

     total energy              =     -31.91272074 Ry
     Harris-Foulkes estimate   =     -31.91251490 Ry
     estimated scf accuracy    <       0.21774405 Ry

     iteration # 14     ecut=    30.00 Ry     beta=0.70
     Davidson diagonalization with overlap
     ethr =  8.49E-04,  avg # of iterations =  1.0

     total cpu time spent up to now is        2.4 secs

     total energy              =     -31.90947813 Ry
     Harris-Foulkes estimate   =     -31.91272721 Ry
     estimated scf accuracy    <       0.23456731 Ry

     iteration # 15     ecut=    30.00 Ry     beta=0.70
     Davidson diagonalization with overlap
     ethr =  8.49E-04,  avg # of iterations =  1.0

     negative rho (up, down):  1.147E-08 0.000E+00

     total cpu time spent up to now is        2.4 secs

     total energy              =     -31.90909818 Ry
     Harris-Foulkes estimate   =     -31.91040031 Ry
     estimated scf accuracy    <       0.04251051 Ry

     iteration # 16     ecut=    30.00 Ry     beta=0.70
     Davidson diagonalization with overlap
     ethr =  5.31E-04,  avg # of iterations =  1.0

     negative rho (up, down):  1.924E-08 0.000E+00

     total cpu time spent up to now is        2.4 secs

     total energy              =     -31.91003567 Ry
     Harris-Foulkes estimate   =     -31.90991389 Ry
     estimated scf accuracy    <       0.00260525 Ry

     iteration # 17     ecut=    30.00 Ry     beta=0.70
     Davidson diagonalization with overlap
     ethr =  3.26E-05,  avg # of iterations =  7.0

     total cpu time spent up to now is        2.5 secs

     total energy              =     -31.90886236 Ry
     Harris-Foulkes estimate   =     -31.91014205 Ry
     estimated scf accuracy    <       0.02009487 Ry

     iteration # 18     ecut=    30.00 Ry     beta=0.70
     Davidson diagonalization with overlap
     ethr =  3.26E-05,  avg # of iterations =  1.0

     negative rho (up, down):  1.234E-08 0.000E+00

     total cpu time spent up to now is        2.5 secs

     total energy              =     -31.90989018 Ry
     Harris-Foulkes estimate   =     -31.91051526 Ry
     estimated scf accuracy    <       0.05113333 Ry

     iteration # 19     ecut=    30.00 Ry     beta=0.70
     Davidson diagonalization with overlap
     ethr =  3.26E-05,  avg # of iterations =  1.0

     total cpu time spent up to now is        2.5 secs

     total energy              =     -31.91015082 Ry
     Harris-Foulkes estimate   =     -31.91004309 Ry
     estimated scf accuracy    <       0.01319073 Ry

     iteration # 20     ecut=    30.00 Ry     beta=0.70
     Davidson diagonalization with overlap
     ethr =  3.26E-05,  avg # of iterations =  1.0

     total cpu time spent up to now is        2.6 secs

     total energy              =     -31.90961661 Ry
     Harris-Foulkes estimate   =     -31.91016837 Ry
     estimated scf accuracy    <       0.02336527 Ry

     iteration # 21     ecut=    30.00 Ry     beta=0.70
     Davidson diagonalization with overlap
     ethr =  3.26E-05,  avg # of iterations =  1.0

     total cpu time spent up to now is        2.6 secs

     total energy              =     -31.90988067 Ry
     Harris-Foulkes estimate   =     -31.90988209 Ry
     estimated scf accuracy    <       0.00003377 Ry

     iteration # 22     ecut=    30.00 Ry     beta=0.70
     Davidson diagonalization with overlap
     ethr =  4.22E-07,  avg # of iterations =  1.0

     total cpu time spent up to now is        2.6 secs

     total energy              =     -31.90988189 Ry
     Harris-Foulkes estimate   =     -31.90988165 Ry
     estimated scf accuracy    <       0.00000747 Ry

     iteration # 23     ecut=    30.00 Ry     beta=0.70
     Davidson diagonalization with overlap
     ethr =  9.33E-08,  avg # of iterations =  1.0

     total cpu time spent up to now is        2.7 secs

     total energy              =     -31.90988156 Ry
     Harris-Foulkes estimate   =     -31.90988192 Ry
     estimated scf accuracy    <       0.00001727 Ry

     iteration # 24     ecut=    30.00 Ry     beta=0.70
     Davidson diagonalization with overlap
     ethr =  9.33E-08,  avg # of iterations =  1.0

     total cpu time spent up to now is        2.7 secs

     total energy              =     -31.90988197 Ry
     Harris-Foulkes estimate   =     -31.90988182 Ry
     estimated scf accuracy    <       0.00000013 Ry

     iteration # 25     ecut=    30.00 Ry     beta=0.70
     Davidson diagonalization with overlap
     ethr =  1.62E-09,  avg # of iterations =  1.0

     total cpu time spent up to now is        2.7 secs

     End of self-consistent calculation

          k = 0.0000 0.0000 0.0000 ( 22119 PWs)   bands (ev):

   -24.1443 -10.0728  -6.9802  -6.9800  -6.8440  -1.3834   0.1117   0.8029

     the Fermi energy is    -6.8108 ev

!    total energy              =     -31.90988196 Ry
     Harris-Foulkes estimate   =     -31.90988197 Ry
     estimated scf accuracy    <          2.3E-10 Ry

     convergence has been achieved in  25 iterations

     Forces acting on atoms (Ry/au):

     atom    1 type  1   force =    -0.12516700    0.02617919    0.12865918
     atom    2 type  1   force =    -0.00035582    0.00047039    0.00031875
     atom    3 type  2   force =     0.12552282   -0.02664958   -0.12897793

     Total force =     0.256919     Total SCF correction =     0.000110

     Entering Dynamics:    iteration =     2
                           time      =   0.0097 pico-seconds


     Andersen thermostat:    3 collisions

ATOMIC_POSITIONS (bohr)
H       23.413518876   6.724312224   1.220973223
H       10.838651097  -0.377911577  10.743079382
O        3.186796946   6.579919145   1.226875016


     kinetic energy (Ekin) =     0.06520399 Ry
     temperature           =  3431.62794431 K 
     Ekin + Etot (const)   =   -31.84467797 Ry
     Message from routine dynamics:
     Total linear momentum <> 0

     Linear momentum :   -0.0482643422    0.4839037204    0.0463385468

     Writing output data file pwscf.save

     first order wave-functions extrapolation
     Check: negative starting charge=   -0.349306
     first order charge density extrapolation
     Check: negative starting charge=   -0.356711

     negative rho (up, down):  4.594E-01 0.000E+00

     total cpu time spent up to now is        3.1 secs

     per-process dynamical memory:    20.4 Mb

     Self-consistent Calculation

     iteration #  1     ecut=    30.00 Ry     beta=0.70
     Davidson diagonalization with overlap
     c_bands:  1 eigenvalues not converged
     ethr =  1.00E-06,  avg # of iterations = 20.0

     negative rho (up, down):  1.234E-01 0.000E+00

     total cpu time spent up to now is        3.2 secs

     total energy              =       1.89973507 Ry
     Harris-Foulkes estimate   =      -1.32641170 Ry
     estimated scf accuracy    <       3.10249438 Ry

     iteration #  2     ecut=    30.00 Ry     beta=0.70
     Davidson diagonalization with overlap
     ethr =  1.00E-02,  avg # of iterations =  4.0

     negative rho (up, down):  4.463E-02 0.000E+00

     total cpu time spent up to now is        3.3 secs

     total energy              =       4.12940508 Ry
     Harris-Foulkes estimate   =      -3.48057625 Ry
     estimated scf accuracy    <      25.62429381 Ry

     iteration #  3     ecut=    30.00 Ry     beta=0.70
     Davidson diagonalization with overlap
     ethr =  1.00E-02,  avg # of iterations =  6.0

     negative rho (up, down):  3.879E-02 0.000E+00

     total cpu time spent up to now is        3.3 secs

     total energy              =       0.52897297 Ry
     Harris-Foulkes estimate   =       0.27005188 Ry
     estimated scf accuracy    <       1.51298740 Ry

     iteration #  4     ecut=    30.00 Ry     beta=0.70
     Davidson diagonalization with overlap
     ethr =  1.00E-02,  avg # of iterations =  1.0

     negative rho (up, down):  2.543E-01 0.000E+00

     total cpu time spent up to now is        3.4 secs

     total energy              =       0.99452269 Ry
     Harris-Foulkes estimate   =       0.51343224 Ry
     estimated scf accuracy    <       1.01135757 Ry

     iteration #  5     ecut=    30.00 Ry     beta=0.70
     Davidson diagonalization with overlap
     ethr =  1.00E-02,  avg # of iterations =  5.0

     negative rho (up, down):  6.451E-03 0.000E+00

     total cpu time spent up to now is        3.4 secs

     total energy              =      -0.75478391 Ry
     Harris-Foulkes estimate   =      -1.27056701 Ry
     estimated scf accuracy    <       2.64790431 Ry

     iteration #  6     ecut=    30.00 Ry     beta=0.70
     Davidson diagonalization with overlap
     ethr =  1.00E-02,  avg # of iterations =  1.0

     negative rho (up, down):  6.049E-02 0.000E+00

     total cpu time spent up to now is        3.5 secs

     total energy              =      -1.01138135 Ry
     Harris-Foulkes estimate   =      -0.75845913 Ry
     estimated scf accuracy    <       1.84130875 Ry

     iteration #  7     ecut=    30.00 Ry     beta=0.70
     Davidson diagonalization with overlap
     ethr =  1.00E-02,  avg # of iterations =  1.0

     negative rho (up, down):  8.875E-02 0.000E+00

     total cpu time spent up to now is        3.5 secs

     total energy              =      -1.17922848 Ry
     Harris-Foulkes estimate   =      -1.01227068 Ry
     estimated scf accuracy    <       2.22027634 Ry

     iteration #  8     ecut=    30.00 Ry     beta=0.70
     Davidson diagonalization with overlap
     ethr =  1.00E-02,  avg # of iterations =  1.0

     negative rho (up, down):  1.027E-01 0.000E+00

     total cpu time spent up to now is        3.5 secs

     total energy              =      -1.49966483 Ry
     Harris-Foulkes estimate   =      -1.17974997 Ry
     estimated scf accuracy    <       2.46815885 Ry

     iteration #  9     ecut=    30.00 Ry     beta=0.70
     Davidson diagonalization with overlap
     ethr =  1.00E-02,  avg # of iterations =  1.0

     negative rho (up, down):  4.645E-01 0.000E+00

     total cpu time spent up to now is        3.6 secs

     total energy              =       0.69654723 Ry
     Harris-Foulkes estimate   =      -1.50075120 Ry
     estimated scf accuracy    <       2.90988200 Ry

     iteration # 10     ecut=    30.00 Ry     beta=0.70
     Davidson diagonalization with overlap
     ethr =  1.00E-02,  avg # of iterations =  6.0

     negative rho (up, down):  4.743E-01 0.000E+00

     total cpu time spent up to now is        3.6 secs

     total energy              =      -6.04859115 Ry
     Harris-Foulkes estimate   =      -5.83161266 Ry
     estimated scf accuracy    <      33.74798731 Ry

     iteration # 11     ecut=    30.00 Ry     beta=0.70
     Davidson diagonalization with overlap
     ethr =  1.00E-02,  avg # of iterations =  1.0

     negative rho (up, down):  1.579E-03 0.000E+00

     total cpu time spent up to now is        3.7 secs

     total energy              =      -0.52526879 Ry
     Harris-Foulkes estimate   =      -6.04998026 Ry
     estimated scf accuracy    <      34.10962426 Ry

     iteration # 12     ecut=    30.00 Ry     beta=0.70
     Davidson diagonalization with overlap
     ethr =  1.00E-02,  avg # of iterations =  2.0

     negative rho (up, down):  1.045E-03 0.000E+00

     total cpu time spent up to now is        3.7 secs

     total energy              =       2.96471468 Ry
     Harris-Foulkes estimate   =      -0.80116964 Ry
     estimated scf accuracy    <      24.44105233 Ry

     iteration # 13     ecut=    30.00 Ry     beta=0.70
     Davidson diagonalization with overlap
     ethr =  1.00E-02,  avg # of iterations =  5.0

     negative rho (up, down):  6.004E-05 0.000E+00

     total cpu time spent up to now is        3.7 secs

     total energy              =      -0.93923044 Ry
     Harris-Foulkes estimate   =       0.05098406 Ry
     estimated scf accuracy    <       1.71480741 Ry

     iteration # 14     ecut=    30.00 Ry     beta=0.70
     Davidson diagonalization with overlap
     ethr =  1.00E-02,  avg # of iterations =  3.0

     negative rho (up, down):  9.167E-05 0.000E+00

     total cpu time spent up to now is        3.8 secs

     total energy              =      -0.93999071 Ry
     Harris-Foulkes estimate   =      -1.01004717 Ry
     estimated scf accuracy    <       3.66960981 Ry

     iteration # 15     ecut=    30.00 Ry     beta=0.70
     Davidson diagonalization with overlap
     ethr =  1.00E-02,  avg # of iterations =  2.0

     negative rho (up, down):  1.027E-02 0.000E+00

     total cpu time spent up to now is        3.8 secs

     total energy              =      -1.13671181 Ry
     Harris-Foulkes estimate   =      -0.96865752 Ry
     estimated scf accuracy    <       3.43237150 Ry

     iteration # 16     ecut=    30.00 Ry     beta=0.70
     Davidson diagonalization with overlap
     ethr =  1.00E-02,  avg # of iterations =  1.0

     negative rho (up, down):  3.044E-03 0.000E+00

     total cpu time spent up to now is        3.8 secs

     total energy              =      -1.19273564 Ry
     Harris-Foulkes estimate   =      -1.17531358 Ry
     estimated scf accuracy    <       7.97975307 Ry

     iteration # 17     ecut=    30.00 Ry     beta=0.70
     Davidson diagonalization with overlap
     ethr =  1.00E-02,  avg # of iterations =  1.0

     negative rho (up, down):  6.209E-03 0.000E+00

     total cpu time spent up to now is        3.9 secs

     total energy              =       1.39215525 Ry
     Harris-Foulkes estimate   =      -1.20544711 Ry
     estimated scf accuracy    <       8.52151266 Ry

     iteration # 18     ecut=    30.00 Ry     beta=0.70
     Davidson diagonalization with overlap
     ethr =  1.00E-02,  avg # of iterations =  4.0

     negative rho (up, down):  1.632E-04 0.000E+00

     total cpu time spent up to now is        3.9 secs

     total energy              =       0.19489927 Ry
     Harris-Foulkes estimate   =      -0.24579139 Ry
     estimated scf accuracy    <       1.09466119 Ry

     iteration # 19     ecut=    30.00 Ry     beta=0.70
     Davidson diagonalization with overlap
     ethr =  1.00E-02,  avg # of iterations =  1.0

     negative rho (up, down):  8.043E-04 0.000E+00

     total cpu time spent up to now is        3.9 secs

     total energy              =      -0.59229270 Ry
     Harris-Foulkes estimate   =      -0.40177882 Ry
     estimated scf accuracy    <       2.35208885 Ry

     iteration # 20     ecut=    30.00 Ry     beta=0.70
     Davidson diagonalization with overlap
     ethr =  1.00E-02,  avg # of iterations =  1.0

     negative rho (up, down):  1.020E-04 0.000E+00

     total cpu time spent up to now is        4.0 secs

     total energy              =      -0.60366024 Ry
     Harris-Foulkes estimate   =      -0.59514733 Ry
     estimated scf accuracy    <       2.68119113 Ry

     iteration # 21     ecut=    30.00 Ry     beta=0.70
     Davidson diagonalization with overlap
     ethr =  1.00E-02,  avg # of iterations =  1.0

     negative rho (up, down):  3.500E-02 0.000E+00

     total cpu time spent up to now is        4.0 secs

     total energy              =      -1.05352636 Ry
     Harris-Foulkes estimate   =      -0.60436164 Ry
     estimated scf accuracy    <       2.64517163 Ry

     iteration # 22     ecut=    30.00 Ry     beta=0.70
     Davidson diagonalization with overlap
     ethr =  1.00E-02,  avg # of iterations =  2.0

     negative rho (up, down):  2.573E-04 0.000E+00

     total cpu time spent up to now is        4.0 secs

     total energy              =      -0.50924667 Ry
     Harris-Foulkes estimate   =      -1.08965875 Ry
     estimated scf accuracy    <       3.69497344 Ry

     iteration # 23     ecut=    30.00 Ry     beta=0.70
     Davidson diagonalization with overlap
     ethr =  1.00E-02,  avg # of iterations =  1.0

     negative rho (up, down):  5.500E-04 0.000E+00

     total cpu time spent up to now is        4.1 secs

     total energy              =      -0.51398061 Ry
     Harris-Foulkes estimate   =      -0.54769643 Ry
     estimated scf accuracy    <       2.52998628 Ry

     iteration # 24     ecut=    30.00 Ry     beta=0.70
     Davidson diagonalization with overlap
     ethr =  1.00E-02,  avg # of iterations =  1.0

     negative rho (up, down):  3.749E-03 0.000E+00

     total cpu time spent up to now is        4.1 secs

     total energy              =      -0.50384733 Ry
     Harris-Foulkes estimate   =      -0.51559122 Ry
     estimated scf accuracy    <       2.45089723 Ry

     iteration # 25     ecut=    30.00 Ry     beta=0.70
     Davidson diagonalization with overlap
     ethr =  1.00E-02,  avg # of iterations =  1.0

     negative rho (up, down):  3.007E-04 0.000E+00

     total cpu time spent up to now is        4.1 secs

     total energy              =      -0.32660100 Ry
     Harris-Foulkes estimate   =      -0.50424180 Ry
     estimated scf accuracy    <       2.42029577 Ry

     iteration # 26     ecut=    30.00 Ry     beta=0.70
     Davidson diagonalization with overlap
     ethr =  1.00E-02,  avg # of iterations =  1.0

     negative rho (up, down):  6.906E-03 0.000E+00

     total cpu time spent up to now is        4.2 secs

     total energy              =      -0.00779454 Ry
     Harris-Foulkes estimate   =      -0.32828684 Ry
     estimated scf accuracy    <       2.11459597 Ry

     iteration # 27     ecut=    30.00 Ry     beta=0.70
     Davidson diagonalization with overlap
     ethr =  1.00E-02,  avg # of iterations =  1.0

     negative rho (up, down):  4.600E-03 0.000E+00

     total cpu time spent up to now is        4.2 secs

     total energy              =      -0.03840468 Ry
     Harris-Foulkes estimate   =      -0.03077827 Ry
     estimated scf accuracy    <       0.01106864 Ry

     iteration # 28     ecut=    30.00 Ry     beta=0.70
     Davidson diagonalization with overlap
     ethr =  1.38E-04,  avg # of iterations =  5.0

     negative rho (up, down):  4.438E-03 0.000E+00

     total cpu time spent up to now is        4.3 secs

     total energy              =      -0.14836603 Ry
     Harris-Foulkes estimate   =      -0.09528092 Ry
     estimated scf accuracy    <       0.83710391 Ry

     iteration # 29     ecut=    30.00 Ry     beta=0.70
     Davidson diagonalization with overlap
     ethr =  1.38E-04,  avg # of iterations =  1.0

     negative rho (up, down):  3.418E-03 0.000E+00

     total cpu time spent up to now is        4.3 secs

     total energy              =      -0.13993173 Ry
     Harris-Foulkes estimate   =      -0.14856986 Ry
     estimated scf accuracy    <       0.91461485 Ry

     iteration # 30     ecut=    30.00 Ry     beta=0.70
     Davidson diagonalization with overlap
     ethr =  1.38E-04,  avg # of iterations =  1.0

     negative rho (up, down):  1.224E-03 0.000E+00

     total cpu time spent up to now is        4.3 secs

     total energy              =      -0.04171060 Ry
     Harris-Foulkes estimate   =      -0.13994208 Ry
     estimated scf accuracy    <       0.90478143 Ry

     iteration # 31     ecut=    30.00 Ry     beta=0.70
     Davidson diagonalization with overlap
     ethr =  1.38E-04,  avg # of iterations =  1.0

     total cpu time spent up to now is        4.4 secs

     total energy              =       0.14874269 Ry
     Harris-Foulkes estimate   =      -0.04309844 Ry
     estimated scf accuracy    <       0.57653771 Ry

     iteration # 32     ecut=    30.00 Ry     beta=0.70
     Davidson diagonalization with overlap
     ethr =  1.38E-04,  avg # of iterations =  4.0

     negative rho (up, down):  4.235E-05 0.000E+00

     total cpu time spent up to now is        4.4 secs

     total energy              =      -0.12531059 Ry
     Harris-Foulkes estimate   =      -0.37021363 Ry
     estimated scf accuracy    <       2.14038067 Ry

     iteration # 33     ecut=    30.00 Ry     beta=0.70
     Davidson diagonalization with overlap
     ethr =  1.38E-04,  avg # of iterations =  3.0

     negative rho (up, down):  4.787E-06 0.000E+00

     total cpu time spent up to now is        4.4 secs

     total energy              =      -0.03706574 Ry
     Harris-Foulkes estimate   =      -0.12810018 Ry
     estimated scf accuracy    <       1.74850688 Ry

     iteration # 34     ecut=    30.00 Ry     beta=0.70
     Davidson diagonalization with overlap
     ethr =  1.38E-04,  avg # of iterations =  1.0

     negative rho (up, down):  3.569E-07 0.000E+00

     total cpu time spent up to now is        4.5 secs

     total energy              =       0.00493131 Ry
     Harris-Foulkes estimate   =      -0.03722252 Ry
     estimated scf accuracy    <       0.52615949 Ry

     iteration # 35     ecut=    30.00 Ry     beta=0.70
     Davidson diagonalization with overlap
     ethr =  1.38E-04,  avg # of iterations =  1.0

     total cpu time spent up to now is        4.5 secs

     total energy              =      -0.02938439 Ry
     Harris-Foulkes estimate   =      -0.05691552 Ry
     estimated scf accuracy    <       0.77213898 Ry

     iteration # 36     ecut=    30.00 Ry     beta=0.70
     Davidson diagonalization with overlap
     ethr =  1.38E-04,  avg # of iterations =  1.0

     total cpu time spent up to now is        4.5 secs

     total energy              =      -0.02651892 Ry
     Harris-Foulkes estimate   =      -0.03388901 Ry
     estimated scf accuracy    <       0.17652117 Ry

     iteration # 37     ecut=    30.00 Ry     beta=0.70
     Davidson diagonalization with overlap
     ethr =  1.38E-04,  avg # of iterations =  1.0

     total cpu time spent up to now is        4.6 secs

     total energy              =      -0.03039433 Ry
     Harris-Foulkes estimate   =      -0.03219092 Ry
     estimated scf accuracy    <       0.07281590 Ry

     iteration # 38     ecut=    30.00 Ry     beta=0.70
     Davidson diagonalization with overlap
     ethr =  1.38E-04,  avg # of iterations =  1.0

     total cpu time spent up to now is        4.6 secs

     total energy              =      -0.03125155 Ry
     Harris-Foulkes estimate   =      -0.03136307 Ry
     estimated scf accuracy    <       0.00034916 Ry

     iteration # 39     ecut=    30.00 Ry     beta=0.70
     Davidson diagonalization with overlap
     ethr =  4.36E-06,  avg # of iterations =  3.0

     total cpu time spent up to now is        4.6 secs

     total energy              =      -0.02931600 Ry
     Harris-Foulkes estimate   =      -0.03218563 Ry
     estimated scf accuracy    <       0.07214269 Ry

     iteration # 40     ecut=    30.00 Ry     beta=0.70
     Davidson diagonalization with overlap
     ethr =  4.36E-06,  avg # of iterations =  1.0

     total cpu time spent up to now is        4.7 secs

     total energy              =      -0.03092489 Ry
     Harris-Foulkes estimate   =      -0.03178279 Ry
     estimated scf accuracy    <       0.03300868 Ry

     iteration # 41     ecut=    30.00 Ry     beta=0.70
     Davidson diagonalization with overlap
     ethr =  4.36E-06,  avg # of iterations =  1.0

     total cpu time spent up to now is        4.7 secs

     total energy              =      -0.03136105 Ry
     Harris-Foulkes estimate   =      -0.03135931 Ry
     estimated scf accuracy    <       0.00004622 Ry

     iteration # 42     ecut=    30.00 Ry     beta=0.70
     Davidson diagonalization with overlap
     ethr =  5.78E-07,  avg # of iterations =  1.0

     total cpu time spent up to now is        4.7 secs

     total energy              =      -0.03135200 Ry
     Harris-Foulkes estimate   =      -0.03136300 Ry
     estimated scf accuracy    <       0.00037393 Ry

     iteration # 43     ecut=    30.00 Ry     beta=0.70
     Davidson diagonalization with overlap
     ethr =  5.78E-07,  avg # of iterations =  1.0

     total cpu time spent up to now is        4.8 secs

     total energy              =      -0.03135822 Ry
     Harris-Foulkes estimate   =      -0.03135821 Ry
     estimated scf accuracy    <       0.00001208 Ry

     iteration # 44     ecut=    30.00 Ry     beta=0.70
     Davidson diagonalization with overlap
     ethr =  1.51E-07,  avg # of iterations =  1.0

     total cpu time spent up to now is        4.8 secs

     total energy              =      -0.03135788 Ry
     Harris-Foulkes estimate   =      -0.03135822 Ry
     estimated scf accuracy    <       0.00001283 Ry

     iteration # 45     ecut=    30.00 Ry     beta=0.70
     Davidson diagonalization with overlap
     ethr =  1.51E-07,  avg # of iterations =  1.0

     total cpu time spent up to now is        4.8 secs

     End of self-consistent calculation

          k = 0.0000 0.0000 0.0000 ( 22119 PWs)   bands (ev):

   -28.3390  -9.2776  -8.1708  -8.1706  -7.9887  -0.2793   0.6104   0.6649

     the Fermi energy is    -7.9859 ev

!    total energy              =      -0.03135791 Ry
     Harris-Foulkes estimate   =      -0.03135803 Ry
     estimated scf accuracy    <          5.4E-10 Ry

     convergence has been achieved in  45 iterations

     Forces acting on atoms (Ry/au):

     atom    1 type  1   force =   140.27339714   89.33850588   -3.65181093
     atom    2 type  1   force =    -0.00063811    0.00041743   -0.00013353
     atom    3 type  2   force =  -140.27275903  -89.33892331    3.65194446

     Total force =   235.249989     Total SCF correction =     0.000042

     Entering Dynamics:    iteration =     3
                           time      =   0.0145 pico-seconds


     Andersen thermostat:    3 collisions

ATOMIC_POSITIONS (bohr)
H     1547.420627081 976.922968964 -38.360086217
H       10.975076420  -0.300819949  11.080578993
O      -93.024763608 -54.668737470   3.704124730


     kinetic energy (Ekin) = 39949.69824168 Ry
     temperature           = ************** K 
     Ekin + Etot (const)   = 39949.66688377 Ry
     Message from routine dynamics:
     Total linear momentum <> 0

     Linear momentum :    0.3047675616   -0.3500624036   -0.1369358232

     Writing output data file pwscf.save

     second order wave-functions extrapolation
     Check: negative starting charge=   -0.356711
     second order charge density extrapolation
     Check: negative starting charge=   -0.345033

     negative rho (up, down):  1.148E+02 0.000E+00

     total cpu time spent up to now is        5.2 secs

     per-process dynamical memory:    20.4 Mb

     Self-consistent Calculation

     iteration #  1     ecut=    30.00 Ry     beta=0.70
     Davidson diagonalization with overlap
     c_bands:  5 eigenvalues not converged
     ethr =  1.00E-06,  avg # of iterations = 20.0

     negative rho (up, down):  3.403E+01 0.000E+00

     total cpu time spent up to now is        5.3 secs

     total energy              =    -315.71607696 Ry
     Harris-Foulkes estimate   =  -20197.81336351 Ry
     estimated scf accuracy    <    3514.26118997 Ry

     iteration #  2     ecut=    30.00 Ry     beta=0.70
     Davidson diagonalization with overlap
     ethr =  1.00E-02,  avg # of iterations = 17.0

     negative rho (up, down):  4.880E-01 0.000E+00

     total cpu time spent up to now is        5.4 secs

     total energy              =     151.47396401 Ry
     Harris-Foulkes estimate   =  -12685.15838602 Ry
     estimated scf accuracy    <     347.83549346 Ry

     iteration #  3     ecut=    30.00 Ry     beta=0.70
     Davidson diagonalization with overlap
     ethr =  1.00E-02,  avg # of iterations = 17.0

     negative rho (up, down):  1.352E-01 0.000E+00

     total cpu time spent up to now is        5.5 secs

     total energy              =     115.80015248 Ry
     Harris-Foulkes estimate   =    -211.38994766 Ry
     estimated scf accuracy    <      48.21738709 Ry

     iteration #  4     ecut=    30.00 Ry     beta=0.70
     Davidson diagonalization with overlap
     ethr =  1.00E-02,  avg # of iterations = 11.0

     negative rho (up, down):  3.133E-04 0.000E+00

     total cpu time spent up to now is        5.6 secs

     total energy              =      61.84897827 Ry
     Harris-Foulkes estimate   =    -110.71769581 Ry
     estimated scf accuracy    <      23.07507359 Ry

     iteration #  5     ecut=    30.00 Ry     beta=0.70
     Davidson diagonalization with overlap
     ethr =  1.00E-02,  avg # of iterations =  7.0

     negative rho (up, down):  7.416E-03 0.000E+00

     total cpu time spent up to now is        5.6 secs

     total energy              =     -69.07585767 Ry
     Harris-Foulkes estimate   =     -71.22695861 Ry
     estimated scf accuracy    <      57.56978339 Ry

     iteration #  6     ecut=    30.00 Ry     beta=0.70
     Davidson diagonalization with overlap
     ethr =  1.00E-02,  avg # of iterations =  1.0

     negative rho (up, down):  1.489E+00 0.000E+00

     total cpu time spent up to now is        5.6 secs

     total energy              =     -23.17944100 Ry
     Harris-Foulkes estimate   =     -69.07914664 Ry
     estimated scf accuracy    <      54.57261149 Ry

     iteration #  7     ecut=    30.00 Ry     beta=0.70
     Davidson diagonalization with overlap
     ethr =  1.00E-02,  avg # of iterations = 11.0

     negative rho (up, down):  9.850E-01 0.000E+00

     total cpu time spent up to now is        5.7 secs

     total energy              =       9.70295456 Ry
     Harris-Foulkes estimate   =    -534.22297518 Ry
     estimated scf accuracy    <      90.71833109 Ry

     iteration #  8     ecut=    30.00 Ry     beta=0.70
     Davidson diagonalization with overlap
     ethr =  1.00E-02,  avg # of iterations =  9.0

     negative rho (up, down):  9.834E-01 0.000E+00

     total cpu time spent up to now is        5.8 secs

     total energy              =     -40.97551538 Ry
     Harris-Foulkes estimate   =    -255.34142423 Ry
     estimated scf accuracy    <      77.40153888 Ry

     iteration #  9     ecut=    30.00 Ry     beta=0.70
     Davidson diagonalization with overlap
     ethr =  1.00E-02,  avg # of iterations = 10.0

     negative rho (up, down):  9.024E-01 0.000E+00

     total cpu time spent up to now is        5.8 secs

     total energy              =     -48.11476202 Ry
     Harris-Foulkes estimate   =    -322.46006148 Ry
     estimated scf accuracy    <      79.36659487 Ry

     iteration # 10     ecut=    30.00 Ry     beta=0.70
     Davidson diagonalization with overlap
     ethr =  1.00E-02,  avg # of iterations = 12.0

     negative rho (up, down):  1.047E+00 0.000E+00

     total cpu time spent up to now is        5.9 secs

     total energy              =   -2138.65268403 Ry
     Harris-Foulkes estimate   =    -691.75655553 Ry
     estimated scf accuracy    <      70.77692667 Ry

     iteration # 11     ecut=    30.00 Ry     beta=0.70
     Davidson diagonalization with overlap
     ethr =  1.00E-02,  avg # of iterations =  8.0

     negative rho (up, down):  8.128E-01 0.000E+00

     total cpu time spent up to now is        5.9 secs

     total energy              =      62.14183008 Ry
     Harris-Foulkes estimate   =   -5318.71072711 Ry
     estimated scf accuracy    <      89.47038833 Ry

     iteration # 12     ecut=    30.00 Ry     beta=0.70
     Davidson diagonalization with overlap
     ethr =  1.00E-02,  avg # of iterations =  7.0

     negative rho (up, down):  1.852E-01 0.000E+00

     total cpu time spent up to now is        6.0 secs

     total energy              =    -451.24430860 Ry
     Harris-Foulkes estimate   =   -1598.09536130 Ry
     estimated scf accuracy    <      81.16813587 Ry

     iteration # 13     ecut=    30.00 Ry     beta=0.70
     Davidson diagonalization with overlap
     ethr =  1.00E-02,  avg # of iterations =  8.0

     negative rho (up, down):  6.851E-02 0.000E+00

     total cpu time spent up to now is        6.1 secs

     total energy              =     216.51523670 Ry
     Harris-Foulkes estimate   =   -1213.78631928 Ry
     estimated scf accuracy    <      50.33041319 Ry

     iteration # 14     ecut=    30.00 Ry     beta=0.70
     Davidson diagonalization with overlap
     ethr =  1.00E-02,  avg # of iterations = 13.0

     negative rho (up, down):  1.005E-03 0.000E+00

     total cpu time spent up to now is        6.1 secs

     total energy              =      -1.74418327 Ry
     Harris-Foulkes estimate   =     -87.08895222 Ry
     estimated scf accuracy    <      20.26780249 Ry

     iteration # 15     ecut=    30.00 Ry     beta=0.70
     Davidson diagonalization with overlap
     ethr =  1.00E-02,  avg # of iterations =  4.0

     negative rho (up, down):  6.051E-03 0.000E+00

     total cpu time spent up to now is        6.2 secs

     total energy              =     -31.83693809 Ry
     Harris-Foulkes estimate   =     -36.96614715 Ry
     estimated scf accuracy    <      10.64096373 Ry

     iteration # 16     ecut=    30.00 Ry     beta=0.70
     Davidson diagonalization with overlap
     ethr =  1.00E-02,  avg # of iterations =  7.0

     negative rho (up, down):  3.240E-03 0.000E+00

     total cpu time spent up to now is        6.2 secs

     total energy              =      17.45476917 Ry
     Harris-Foulkes estimate   =    -118.23083627 Ry
     estimated scf accuracy    <      20.37598769 Ry

     iteration # 17     ecut=    30.00 Ry     beta=0.70
     Davidson diagonalization with overlap
     ethr =  1.00E-02,  avg # of iterations =  6.0

     negative rho (up, down):  2.982E-02 0.000E+00

     total cpu time spent up to now is        6.3 secs

     total energy              =     -12.11616507 Ry
     Harris-Foulkes estimate   =     -55.39136445 Ry
     estimated scf accuracy    <      19.60869353 Ry

     iteration # 18     ecut=    30.00 Ry     beta=0.70
     Davidson diagonalization with overlap
     ethr =  1.00E-02,  avg # of iterations =  5.0

     negative rho (up, down):  8.527E-02 0.000E+00

     total cpu time spent up to now is        6.3 secs

     total energy              =     -33.07361846 Ry
     Harris-Foulkes estimate   =     -38.18631844 Ry
     estimated scf accuracy    <      16.33951091 Ry

     iteration # 19     ecut=    30.00 Ry     beta=0.70
     Davidson diagonalization with overlap
     ethr =  1.00E-02,  avg # of iterations =  4.0

     negative rho (up, down):  1.059E-01 0.000E+00

     total cpu time spent up to now is        6.4 secs

     total energy              =      -5.64392779 Ry
     Harris-Foulkes estimate   =    -116.87243963 Ry
     estimated scf accuracy    <      17.07506631 Ry

     iteration # 20     ecut=    30.00 Ry     beta=0.70
     Davidson diagonalization with overlap
     ethr =  1.00E-02,  avg # of iterations =  4.0

     negative rho (up, down):  1.431E-01 0.000E+00

     total cpu time spent up to now is        6.4 secs

     total energy              =     -18.52914908 Ry
     Harris-Foulkes estimate   =     -49.70683769 Ry
     estimated scf accuracy    <      17.48169649 Ry

     iteration # 21     ecut=    30.00 Ry     beta=0.70
     Davidson diagonalization with overlap
     ethr =  1.00E-02,  avg # of iterations =  8.0

     negative rho (up, down):  1.611E-01 0.000E+00

     total cpu time spent up to now is        6.5 secs

     total energy              =    -260.31090625 Ry
     Harris-Foulkes estimate   =    -118.92602527 Ry
     estimated scf accuracy    <      34.58026055 Ry

     iteration # 22     ecut=    30.00 Ry     beta=0.70
     Davidson diagonalization with overlap
     ethr =  1.00E-02,  avg # of iterations =  6.0

     negative rho (up, down):  1.606E-01 0.000E+00

     total cpu time spent up to now is        6.5 secs

     total energy              =   -2569.73654532 Ry
     Harris-Foulkes estimate   =   -1212.64476419 Ry
     estimated scf accuracy    <      59.80302369 Ry

     iteration # 23     ecut=    30.00 Ry     beta=0.70
     Davidson diagonalization with overlap
     ethr =  1.00E-02,  avg # of iterations =  5.0

     negative rho (up, down):  4.959E-02 0.000E+00

     total cpu time spent up to now is        6.5 secs

     total energy              =      60.82941159 Ry
     Harris-Foulkes estimate   =   -6018.53667417 Ry
     estimated scf accuracy    <      28.57832684 Ry

     iteration # 24     ecut=    30.00 Ry     beta=0.70
     Davidson diagonalization with overlap
     ethr =  1.00E-02,  avg # of iterations =  6.0

     negative rho (up, down):  7.820E-01 0.000E+00

     total cpu time spent up to now is        6.6 secs

     total energy              =      14.41222035 Ry
     Harris-Foulkes estimate   =    -222.85019901 Ry
     estimated scf accuracy    <      20.07592837 Ry

     iteration # 25     ecut=    30.00 Ry     beta=0.70
     Davidson diagonalization with overlap
     ethr =  1.00E-02,  avg # of iterations =  9.0

     negative rho (up, down):  1.059E+00 0.000E+00

     total cpu time spent up to now is        6.7 secs

     total energy              =      18.92993002 Ry
     Harris-Foulkes estimate   =   -1916.52131015 Ry
     estimated scf accuracy    <      39.88550834 Ry

     iteration # 26     ecut=    30.00 Ry     beta=0.70
     Davidson diagonalization with overlap
     ethr =  1.00E-02,  avg # of iterations =  7.0

     negative rho (up, down):  1.307E+00 0.000E+00

     total cpu time spent up to now is        6.7 secs

     total energy              =  -17862.79310268 Ry
     Harris-Foulkes estimate   =    -626.64384706 Ry
     estimated scf accuracy    <      38.10084105 Ry

     iteration # 27     ecut=    30.00 Ry     beta=0.70
     Davidson diagonalization with overlap
     ethr =  1.00E-02,  avg # of iterations = 12.0

     negative rho (up, down):  1.410E+00 0.000E+00

     total cpu time spent up to now is        6.8 secs

     total energy              =    -294.55050065 Ry
     Harris-Foulkes estimate   =  -28789.35249684 Ry
     estimated scf accuracy    <      40.17356653 Ry

     iteration # 28     ecut=    30.00 Ry     beta=0.70
     Davidson diagonalization with overlap
     ethr =  1.00E-02,  avg # of iterations =  7.0

     negative rho (up, down):  1.558E+00 0.000E+00

     total cpu time spent up to now is        6.8 secs

     total energy              =     -79.02960730 Ry
     Harris-Foulkes estimate   =   -4137.50695177 Ry
     estimated scf accuracy    <      42.07542542 Ry

     iteration # 29     ecut=    30.00 Ry     beta=0.70
     Davidson diagonalization with overlap
     ethr =  1.00E-02,  avg # of iterations = 11.0

     negative rho (up, down):  1.717E+00 0.000E+00

     total cpu time spent up to now is        6.9 secs

     total energy              =      -2.92252037 Ry
     Harris-Foulkes estimate   =   -2363.53351337 Ry
     estimated scf accuracy    <      35.29257000 Ry

     iteration # 30     ecut=    30.00 Ry     beta=0.70
     Davidson diagonalization with overlap
     ethr =  1.00E-02,  avg # of iterations =  8.0

     negative rho (up, down):  1.661E+00 0.000E+00

     total cpu time spent up to now is        6.9 secs

     total energy              =      37.62431700 Ry
     Harris-Foulkes estimate   =    -369.74601161 Ry
     estimated scf accuracy    <      29.41215512 Ry

     iteration # 31     ecut=    30.00 Ry     beta=0.70
     Davidson diagonalization with overlap
     ethr =  1.00E-02,  avg # of iterations = 11.0

     negative rho (up, down):  4.408E-01 0.000E+00

     total cpu time spent up to now is        7.0 secs

     total energy              =     106.48771983 Ry
     Harris-Foulkes estimate   =   -1034.55770144 Ry
     estimated scf accuracy    <      25.10913466 Ry

     iteration # 32     ecut=    30.00 Ry     beta=0.70
     Davidson diagonalization with overlap
     ethr =  1.00E-02,  avg # of iterations =  8.0

     negative rho (up, down):  8.331E-01 0.000E+00

     total cpu time spent up to now is        7.1 secs

     total energy              =    -381.29472596 Ry
     Harris-Foulkes estimate   =    -347.09667298 Ry
     estimated scf accuracy    <      29.14359140 Ry

     iteration # 33     ecut=    30.00 Ry     beta=0.70
     Davidson diagonalization with overlap
     ethr =  1.00E-02,  avg # of iterations =  9.0

     negative rho (up, down):  1.075E+00 0.000E+00

     total cpu time spent up to now is        7.1 secs

     total energy              =    -126.34301977 Ry
     Harris-Foulkes estimate   =  -13677.64659504 Ry
     estimated scf accuracy    <      25.06395666 Ry

     iteration # 34     ecut=    30.00 Ry     beta=0.70
     Davidson diagonalization with overlap
     ethr =  1.00E-02,  avg # of iterations =  8.0

     negative rho (up, down):  4.666E-01 0.000E+00

     total cpu time spent up to now is        7.2 secs

     total energy              =      99.23658228 Ry
     Harris-Foulkes estimate   =   -7318.48523325 Ry
     estimated scf accuracy    <      25.15280432 Ry

     iteration # 35     ecut=    30.00 Ry     beta=0.70
     Davidson diagonalization with overlap
     ethr =  1.00E-02,  avg # of iterations = 10.0

     negative rho (up, down):  2.173E-01 0.000E+00

     total cpu time spent up to now is        7.2 secs

     total energy              =     193.45763240 Ry
     Harris-Foulkes estimate   =    -846.77955118 Ry
     estimated scf accuracy    <      20.05451847 Ry

     iteration # 36     ecut=    30.00 Ry     beta=0.70
     Davidson diagonalization with overlap
     ethr =  1.00E-02,  avg # of iterations =  7.0

     negative rho (up, down):  7.086E-02 0.000E+00

     total cpu time spent up to now is        7.3 secs

     total energy              =    -311.68978000 Ry
     Harris-Foulkes estimate   =    -187.94541959 Ry
     estimated scf accuracy    <      28.27764596 Ry

     iteration # 37     ecut=    30.00 Ry     beta=0.70
     Davidson diagonalization with overlap
     ethr =  1.00E-02,  avg # of iterations =  5.0

     negative rho (up, down):  8.292E-02 0.000E+00

     total cpu time spent up to now is        7.3 secs

     total energy              =      84.62884097 Ry
     Harris-Foulkes estimate   =   -1755.01130386 Ry
     estimated scf accuracy    <      18.02271446 Ry

     iteration # 38     ecut=    30.00 Ry     beta=0.70
     Davidson diagonalization with overlap
     ethr =  1.00E-02,  avg # of iterations =  6.0

     negative rho (up, down):  4.624E-02 0.000E+00

     total cpu time spent up to now is        7.4 secs

     total energy              =     -16.25846952 Ry
     Harris-Foulkes estimate   =    -285.73587520 Ry
     estimated scf accuracy    <      33.92777349 Ry

     iteration # 39     ecut=    30.00 Ry     beta=0.70
     Davidson diagonalization with overlap
     ethr =  1.00E-02,  avg # of iterations =  4.0

     negative rho (up, down):  3.184E-02 0.000E+00

     total cpu time spent up to now is        7.4 secs

     total energy              =    -529.34642179 Ry
     Harris-Foulkes estimate   =    -148.03963561 Ry
     estimated scf accuracy    <      25.01223793 Ry

     iteration # 40     ecut=    30.00 Ry     beta=0.70
     Davidson diagonalization with overlap
     ethr =  1.00E-02,  avg # of iterations =  3.0

     negative rho (up, down):  8.908E-02 0.000E+00

     total cpu time spent up to now is        7.5 secs

     total energy              =     -14.33321182 Ry
     Harris-Foulkes estimate   =   -1019.90426958 Ry
     estimated scf accuracy    <      26.12789854 Ry

     iteration # 41     ecut=    30.00 Ry     beta=0.70
     Davidson diagonalization with overlap
     ethr =  1.00E-02,  avg # of iterations =  5.0

     negative rho (up, down):  2.114E-01 0.000E+00

     total cpu time spent up to now is        7.5 secs

     total energy              =     -27.40071046 Ry
     Harris-Foulkes estimate   =     -69.56724617 Ry
     estimated scf accuracy    <      25.38638419 Ry

     iteration # 42     ecut=    30.00 Ry     beta=0.70
     Davidson diagonalization with overlap
     ethr =  1.00E-02,  avg # of iterations =  8.0

     negative rho (up, down):  2.948E-01 0.000E+00

     total cpu time spent up to now is        7.6 secs

     total energy              =     -70.59097992 Ry
     Harris-Foulkes estimate   =     -67.82528281 Ry
     estimated scf accuracy    <      51.74224448 Ry

     iteration # 43     ecut=    30.00 Ry     beta=0.70
     Davidson diagonalization with overlap
     ethr =  1.00E-02,  avg # of iterations =  1.0

     negative rho (up, down):  2.771E-01 0.000E+00

     total cpu time spent up to now is        7.6 secs

     total energy              =     -69.44767437 Ry
     Harris-Foulkes estimate   =     -70.59842028 Ry
     estimated scf accuracy    <      54.64003712 Ry

     iteration # 44     ecut=    30.00 Ry     beta=0.70
     Davidson diagonalization with overlap
     ethr =  1.00E-02,  avg # of iterations =  8.0

     negative rho (up, down):  2.789E-02 0.000E+00

     total cpu time spent up to now is        7.6 secs

     total energy              =     125.43373378 Ry
     Harris-Foulkes estimate   =   -2167.06850609 Ry
     estimated scf accuracy    <      21.96373013 Ry

     iteration # 45     ecut=    30.00 Ry     beta=0.70
     Davidson diagonalization with overlap
     ethr =  1.00E-02,  avg # of iterations =  5.0

     negative rho (up, down):  1.524E-02 0.000E+00

     total cpu time spent up to now is        7.7 secs

     total energy              =      48.81852018 Ry
     Harris-Foulkes estimate   =    -426.95717315 Ry
     estimated scf accuracy    <      16.54620167 Ry

     iteration # 46     ecut=    30.00 Ry     beta=0.70
     Davidson diagonalization with overlap
     ethr =  1.00E-02,  avg # of iterations =  4.0

     negative rho (up, down):  4.137E-02 0.000E+00

     total cpu time spent up to now is        7.7 secs

     total energy              =     -31.22038562 Ry
     Harris-Foulkes estimate   =    -193.14267366 Ry
     estimated scf accuracy    <      42.46800962 Ry

     iteration # 47     ecut=    30.00 Ry     beta=0.70
     Davidson diagonalization with overlap
     ethr =  1.00E-02,  avg # of iterations =  7.0

     negative rho (up, down):  2.459E-02 0.000E+00

     total cpu time spent up to now is        7.8 secs

     total energy              =     139.13321313 Ry
     Harris-Foulkes estimate   =   -1592.18059772 Ry
     estimated scf accuracy    <      28.33137472 Ry

     iteration # 48     ecut=    30.00 Ry     beta=0.70
     Davidson diagonalization with overlap
     ethr =  1.00E-02,  avg # of iterations = 10.0

     negative rho (up, down):  1.376E-02 0.000E+00

     total cpu time spent up to now is        7.9 secs

     total energy              =     -20.39275723 Ry
     Harris-Foulkes estimate   =    -134.17462026 Ry
     estimated scf accuracy    <      25.30531457 Ry

     iteration # 49     ecut=    30.00 Ry     beta=0.70
     Davidson diagonalization with overlap
     ethr =  1.00E-02,  avg # of iterations =  8.0

     negative rho (up, down):  4.477E-03 0.000E+00

     total cpu time spent up to now is        7.9 secs

     total energy              =      -4.52571266 Ry
     Harris-Foulkes estimate   =    -175.98747030 Ry
     estimated scf accuracy    <      28.39152989 Ry

     iteration # 50     ecut=    30.00 Ry     beta=0.70
     Davidson diagonalization with overlap
     ethr =  1.00E-02,  avg # of iterations =  5.0

     negative rho (up, down):  9.133E-04 0.000E+00

     total cpu time spent up to now is        8.0 secs

     total energy              =      14.85952197 Ry
     Harris-Foulkes estimate   =    -167.72117666 Ry
     estimated scf accuracy    <      27.82179457 Ry

     iteration # 51     ecut=    30.00 Ry     beta=0.70
     Davidson diagonalization with overlap
     ethr =  1.00E-02,  avg # of iterations =  6.0

     negative rho (up, down):  3.565E-02 0.000E+00

     total cpu time spent up to now is        8.0 secs

     total energy              =     -55.85594967 Ry
     Harris-Foulkes estimate   =     -58.05245697 Ry
     estimated scf accuracy    <      38.71366316 Ry

     iteration # 52     ecut=    30.00 Ry     beta=0.70
     Davidson diagonalization with overlap
     ethr =  1.00E-02,  avg # of iterations =  8.0

     negative rho (up, down):  1.277E-03 0.000E+00

     total cpu time spent up to now is        8.1 secs

     total energy              =      21.54369366 Ry
     Harris-Foulkes estimate   =    -105.05789330 Ry
     estimated scf accuracy    <      23.71830978 Ry

     iteration # 53     ecut=    30.00 Ry     beta=0.70
     Davidson diagonalization with overlap
     ethr =  1.00E-02,  avg # of iterations =  3.0

     negative rho (up, down):  1.109E-01 0.000E+00

     total cpu time spent up to now is        8.1 secs

     total energy              =     -25.26162359 Ry
     Harris-Foulkes estimate   =     -87.23214476 Ry
     estimated scf accuracy    <      37.11896154 Ry

     iteration # 54     ecut=    30.00 Ry     beta=0.70
     Davidson diagonalization with overlap
     ethr =  1.00E-02,  avg # of iterations =  9.0

     negative rho (up, down):  4.124E-01 0.000E+00

     total cpu time spent up to now is        8.2 secs

     total energy              =   -1491.17959320 Ry
     Harris-Foulkes estimate   =    -604.73567956 Ry
     estimated scf accuracy    <      26.19265201 Ry

     iteration # 55     ecut=    30.00 Ry     beta=0.70
     Davidson diagonalization with overlap
     ethr =  1.00E-02,  avg # of iterations =  4.0

     negative rho (up, down):  4.025E-01 0.000E+00

     total cpu time spent up to now is        8.3 secs

     total energy              =     101.25218093 Ry
     Harris-Foulkes estimate   =   -8792.60267589 Ry
     estimated scf accuracy    <      24.85762916 Ry

     iteration # 56     ecut=    30.00 Ry     beta=0.70
     Davidson diagonalization with overlap
     ethr =  1.00E-02,  avg # of iterations =  8.0

     negative rho (up, down):  5.269E-01 0.000E+00

     total cpu time spent up to now is        8.3 secs

     total energy              =   -1008.72503212 Ry
     Harris-Foulkes estimate   =    -522.86105705 Ry
     estimated scf accuracy    <      39.31256470 Ry

     iteration # 57     ecut=    30.00 Ry     beta=0.70
     Davidson diagonalization with overlap
     ethr =  1.00E-02,  avg # of iterations =  5.0

     negative rho (up, down):  8.682E-01 0.000E+00

     total cpu time spent up to now is        8.4 secs

     total energy              =   -3655.37398195 Ry
     Harris-Foulkes estimate   =   -6872.00699359 Ry
     estimated scf accuracy    <      36.51419364 Ry

     iteration # 58     ecut=    30.00 Ry     beta=0.70
     Davidson diagonalization with overlap
     ethr =  1.00E-02,  avg # of iterations = 12.0

     negative rho (up, down):  5.934E-01 0.000E+00

     total cpu time spent up to now is        8.5 secs

     total energy              =      67.95711060 Ry
     Harris-Foulkes estimate   =  -17966.23885795 Ry
     estimated scf accuracy    <      13.18747721 Ry

     iteration # 59     ecut=    30.00 Ry     beta=0.70
     Davidson diagonalization with overlap
     ethr =  1.00E-02,  avg # of iterations =  7.0

     negative rho (up, down):  7.228E-02 0.000E+00

     total cpu time spent up to now is        8.5 secs

     total energy              =     -75.58240587 Ry
     Harris-Foulkes estimate   =   -1042.64239417 Ry
     estimated scf accuracy    <      18.84280114 Ry

     iteration # 60     ecut=    30.00 Ry     beta=0.70
     Davidson diagonalization with overlap
     ethr =  1.00E-02,  avg # of iterations = 11.0

     negative rho (up, down):  4.689E-03 0.000E+00

     total cpu time spent up to now is        8.6 secs

     total energy              =      41.88987184 Ry
     Harris-Foulkes estimate   =    -364.80134417 Ry
     estimated scf accuracy    <      37.03696140 Ry

     iteration # 61     ecut=    30.00 Ry     beta=0.70
     Davidson diagonalization with overlap
     ethr =  1.00E-02,  avg # of iterations =  9.0

     negative rho (up, down):  7.387E-02 0.000E+00

     total cpu time spent up to now is        8.6 secs

     total energy              =       5.92637278 Ry
     Harris-Foulkes estimate   =    -631.56267415 Ry
     estimated scf accuracy    <      22.62976902 Ry

     iteration # 62     ecut=    30.00 Ry     beta=0.70
     Davidson diagonalization with overlap
     ethr =  1.00E-02,  avg # of iterations =  9.0

     negative rho (up, down):  2.382E-02 0.000E+00

     total cpu time spent up to now is        8.7 secs

     total energy              =     -49.55138012 Ry
     Harris-Foulkes estimate   =    -144.01123654 Ry
     estimated scf accuracy    <      26.00296767 Ry

     iteration # 63     ecut=    30.00 Ry     beta=0.70
     Davidson diagonalization with overlap
     ethr =  1.00E-02,  avg # of iterations =  7.0

     negative rho (up, down):  8.257E-03 0.000E+00

     total cpu time spent up to now is        8.7 secs

     total energy              =      41.13488688 Ry
     Harris-Foulkes estimate   =   -1778.54966892 Ry
     estimated scf accuracy    <      36.63012816 Ry

     iteration # 64     ecut=    30.00 Ry     beta=0.70
     Davidson diagonalization with overlap
     ethr =  1.00E-02,  avg # of iterations =  7.0

     negative rho (up, down):  3.139E-02 0.000E+00

     total cpu time spent up to now is        8.8 secs

     total energy              =     -11.33010113 Ry
     Harris-Foulkes estimate   =     -99.08336704 Ry
     estimated scf accuracy    <      19.33559130 Ry

     iteration # 65     ecut=    30.00 Ry     beta=0.70
     Davidson diagonalization with overlap
     ethr =  1.00E-02,  avg # of iterations =  6.0

     negative rho (up, down):  1.337E-02 0.000E+00

     total cpu time spent up to now is        8.8 secs

     total energy              =     -31.43368929 Ry
     Harris-Foulkes estimate   =     -46.56186490 Ry
     estimated scf accuracy    <      11.70496336 Ry

     iteration # 66     ecut=    30.00 Ry     beta=0.70
     Davidson diagonalization with overlap
     ethr =  1.00E-02,  avg # of iterations =  6.0

     negative rho (up, down):  1.325E-01 0.000E+00

     total cpu time spent up to now is        8.9 secs

     total energy              =     -92.83745149 Ry
     Harris-Foulkes estimate   =     -49.80114211 Ry
     estimated scf accuracy    <      18.44494760 Ry

     iteration # 67     ecut=    30.00 Ry     beta=0.70
     Davidson diagonalization with overlap
     ethr =  1.00E-02,  avg # of iterations =  5.0

     negative rho (up, down):  3.276E-01 0.000E+00

     total cpu time spent up to now is        8.9 secs

     total energy              =  -13337.95198371 Ry
     Harris-Foulkes estimate   =    -662.71622970 Ry
     estimated scf accuracy    <      19.92179935 Ry

     iteration # 68     ecut=    30.00 Ry     beta=0.70
     Davidson diagonalization with overlap
     ethr =  1.00E-02,  avg # of iterations =  6.0

     negative rho (up, down):  4.208E-01 0.000E+00

     total cpu time spent up to now is        9.0 secs

     total energy              =    -102.51616829 Ry
     Harris-Foulkes estimate   =  -24005.05866498 Ry
     estimated scf accuracy    <      22.97036714 Ry

     iteration # 69     ecut=    30.00 Ry     beta=0.70
     Davidson diagonalization with overlap
     ethr =  1.00E-02,  avg # of iterations =  9.0

     negative rho (up, down):  4.564E-02 0.000E+00

     total cpu time spent up to now is        9.1 secs

     total energy              =      57.77001024 Ry
     Harris-Foulkes estimate   =   -3447.37137732 Ry
     estimated scf accuracy    <      33.61496670 Ry

     iteration # 70     ecut=    30.00 Ry     beta=0.70
     Davidson diagonalization with overlap
     ethr =  1.00E-02,  avg # of iterations = 12.0

     negative rho (up, down):  1.259E-01 0.000E+00

     total cpu time spent up to now is        9.1 secs

     total energy              =      63.56042996 Ry
     Harris-Foulkes estimate   =   -4979.30071094 Ry
     estimated scf accuracy    <      23.67441945 Ry

     iteration # 71     ecut=    30.00 Ry     beta=0.70
     Davidson diagonalization with overlap
     ethr =  1.00E-02,  avg # of iterations =  6.0

     negative rho (up, down):  1.887E-01 0.000E+00

     total cpu time spent up to now is        9.2 secs

     total energy              =     -69.44009345 Ry
     Harris-Foulkes estimate   =     -86.01723358 Ry
     estimated scf accuracy    <      13.10685687 Ry

     iteration # 72     ecut=    30.00 Ry     beta=0.70
     Davidson diagonalization with overlap
     ethr =  1.00E-02,  avg # of iterations =  5.0

     negative rho (up, down):  1.648E-01 0.000E+00

     total cpu time spent up to now is        9.2 secs

     total energy              =     -52.56644477 Ry
     Harris-Foulkes estimate   =   -1886.34858697 Ry
     estimated scf accuracy    <      24.06274076 Ry

     iteration # 73     ecut=    30.00 Ry     beta=0.70
     Davidson diagonalization with overlap
     ethr =  1.00E-02,  avg # of iterations =  8.0

     negative rho (up, down):  1.296E-01 0.000E+00

     total cpu time spent up to now is        9.3 secs

     total energy              =      94.89434064 Ry
     Harris-Foulkes estimate   =   -1219.80126806 Ry
     estimated scf accuracy    <      26.65071012 Ry

     iteration # 74     ecut=    30.00 Ry     beta=0.70
     Davidson diagonalization with overlap
     ethr =  1.00E-02,  avg # of iterations = 10.0

     negative rho (up, down):  1.263E-01 0.000E+00

     total cpu time spent up to now is        9.3 secs

     total energy              =    -618.64798978 Ry
     Harris-Foulkes estimate   =   -1090.52497535 Ry
     estimated scf accuracy    <      36.44982559 Ry

     iteration # 75     ecut=    30.00 Ry     beta=0.70
     Davidson diagonalization with overlap
     ethr =  1.00E-02,  avg # of iterations =  8.0

     negative rho (up, down):  5.211E-04 0.000E+00

     total cpu time spent up to now is        9.4 secs

     total energy              =      34.14716508 Ry
     Harris-Foulkes estimate   =   -1796.93617476 Ry
     estimated scf accuracy    <      16.51970925 Ry

     iteration # 76     ecut=    30.00 Ry     beta=0.70
     Davidson diagonalization with overlap
     ethr =  1.00E-02,  avg # of iterations =  6.0

     negative rho (up, down):  5.862E-05 0.000E+00

     total cpu time spent up to now is        9.4 secs

     total energy              =     -34.28673166 Ry
     Harris-Foulkes estimate   =     -36.24436581 Ry
     estimated scf accuracy    <      11.89853185 Ry

     iteration # 77     ecut=    30.00 Ry     beta=0.70
     Davidson diagonalization with overlap
     ethr =  1.00E-02,  avg # of iterations =  1.0

     negative rho (up, down):  1.850E-02 0.000E+00

     total cpu time spent up to now is        9.5 secs

     total energy              =     -33.12239964 Ry
     Harris-Foulkes estimate   =     -34.31708897 Ry
     estimated scf accuracy    <       7.26455585 Ry

     iteration # 78     ecut=    30.00 Ry     beta=0.70
     Davidson diagonalization with overlap
     ethr =  1.00E-02,  avg # of iterations =  3.0

     negative rho (up, down):  9.904E-02 0.000E+00

     total cpu time spent up to now is        9.5 secs

     total energy              =     -19.39334844 Ry
     Harris-Foulkes estimate   =    -399.83123583 Ry
     estimated scf accuracy    <       8.03453485 Ry

     iteration # 79     ecut=    30.00 Ry     beta=0.70
     Davidson diagonalization with overlap
     ethr =  1.00E-02,  avg # of iterations =  4.0

     negative rho (up, down):  6.915E-02 0.000E+00

     total cpu time spent up to now is        9.6 secs

     total energy              =      44.08099068 Ry
     Harris-Foulkes estimate   =    -224.01676665 Ry
     estimated scf accuracy    <      16.99182754 Ry

     iteration # 80     ecut=    30.00 Ry     beta=0.70
     Davidson diagonalization with overlap
     ethr =  1.00E-02,  avg # of iterations =  6.0

     negative rho (up, down):  1.764E-04 0.000E+00

     total cpu time spent up to now is        9.6 secs

     total energy              =      37.07086946 Ry
     Harris-Foulkes estimate   =    -130.52657615 Ry
     estimated scf accuracy    <      15.78100971 Ry

     iteration # 81     ecut=    30.00 Ry     beta=0.70
     Davidson diagonalization with overlap
     ethr =  1.00E-02,  avg # of iterations =  8.0

     negative rho (up, down):  6.246E-05 0.000E+00

     total cpu time spent up to now is        9.6 secs

     total energy              =     -32.12352652 Ry
     Harris-Foulkes estimate   =     -33.46388560 Ry
     estimated scf accuracy    <       8.04356479 Ry

     iteration # 82     ecut=    30.00 Ry     beta=0.70
     Davidson diagonalization with overlap
     ethr =  1.00E-02,  avg # of iterations =  2.0

     negative rho (up, down):  7.039E-03 0.000E+00

     total cpu time spent up to now is        9.7 secs

     total energy              =     -32.45416242 Ry
     Harris-Foulkes estimate   =     -34.22320243 Ry
     estimated scf accuracy    <       7.81183705 Ry

     iteration # 83     ecut=    30.00 Ry     beta=0.70
     Davidson diagonalization with overlap
     ethr =  1.00E-02,  avg # of iterations =  1.0

     negative rho (up, down):  4.055E-03 0.000E+00

     total cpu time spent up to now is        9.7 secs

     total energy              =     -33.30173890 Ry
     Harris-Foulkes estimate   =     -32.69337778 Ry
     estimated scf accuracy    <       2.99358172 Ry

     iteration # 84     ecut=    30.00 Ry     beta=0.70
     Davidson diagonalization with overlap
     ethr =  1.00E-02,  avg # of iterations =  3.0

     negative rho (up, down):  2.184E-03 0.000E+00

     total cpu time spent up to now is        9.8 secs

     total energy              =     -21.01661266 Ry
     Harris-Foulkes estimate   =     -38.64263511 Ry
     estimated scf accuracy    <      12.20041317 Ry

     iteration # 85     ecut=    30.00 Ry     beta=0.70
     Davidson diagonalization with overlap
     ethr =  1.00E-02,  avg # of iterations =  4.0

     negative rho (up, down):  2.552E-02 0.000E+00

     total cpu time spent up to now is        9.8 secs

     total energy              =     -32.01506645 Ry
     Harris-Foulkes estimate   =     -33.33255951 Ry
     estimated scf accuracy    <       6.15847534 Ry

     iteration # 86     ecut=    30.00 Ry     beta=0.70
     Davidson diagonalization with overlap
     ethr =  1.00E-02,  avg # of iterations =  1.0

     negative rho (up, down):  1.373E-02 0.000E+00

     total cpu time spent up to now is        9.8 secs

     total energy              =     -32.46304969 Ry
     Harris-Foulkes estimate   =     -32.55426928 Ry
     estimated scf accuracy    <       3.02551422 Ry

     iteration # 87     ecut=    30.00 Ry     beta=0.70
     Davidson diagonalization with overlap
     ethr =  1.00E-02,  avg # of iterations =  1.0

     negative rho (up, down):  9.547E-03 0.000E+00

     total cpu time spent up to now is        9.9 secs

     total energy              =     -32.22623745 Ry
     Harris-Foulkes estimate   =     -32.47473455 Ry
     estimated scf accuracy    <       2.70794220 Ry

     iteration # 88     ecut=    30.00 Ry     beta=0.70
     Davidson diagonalization with overlap
     ethr =  1.00E-02,  avg # of iterations =  1.0

     negative rho (up, down):  1.855E-03 0.000E+00

     total cpu time spent up to now is        9.9 secs

     total energy              =     -31.76361192 Ry
     Harris-Foulkes estimate   =     -32.30060008 Ry
     estimated scf accuracy    <       2.49324250 Ry

     iteration # 89     ecut=    30.00 Ry     beta=0.70
     Davidson diagonalization with overlap
     ethr =  1.00E-02,  avg # of iterations =  1.0

     negative rho (up, down):  2.666E-02 0.000E+00

     total cpu time spent up to now is        9.9 secs

     total energy              =     -31.02827615 Ry
     Harris-Foulkes estimate   =     -31.93504256 Ry
     estimated scf accuracy    <       4.66448133 Ry

     iteration # 90     ecut=    30.00 Ry     beta=0.70
     Davidson diagonalization with overlap
     ethr =  1.00E-02,  avg # of iterations =  4.0

     negative rho (up, down):  4.961E-03 0.000E+00

     total cpu time spent up to now is       10.0 secs

     total energy              =      10.15483123 Ry
     Harris-Foulkes estimate   =     -56.16060120 Ry
     estimated scf accuracy    <      19.53857629 Ry

     iteration # 91     ecut=    30.00 Ry     beta=0.70
     Davidson diagonalization with overlap
     ethr =  1.00E-02,  avg # of iterations =  4.0

     negative rho (up, down):  5.204E-04 0.000E+00

     total cpu time spent up to now is       10.0 secs

     total energy              =     -31.41187036 Ry
     Harris-Foulkes estimate   =     -31.92876261 Ry
     estimated scf accuracy    <       3.68983168 Ry

     iteration # 92     ecut=    30.00 Ry     beta=0.70
     Davidson diagonalization with overlap
     ethr =  1.00E-02,  avg # of iterations =  1.0

     negative rho (up, down):  6.272E-04 0.000E+00

     total cpu time spent up to now is       10.1 secs

     total energy              =     -31.51982695 Ry
     Harris-Foulkes estimate   =     -31.54546001 Ry
     estimated scf accuracy    <       1.26981509 Ry

     iteration # 93     ecut=    30.00 Ry     beta=0.70
     Davidson diagonalization with overlap
     ethr =  1.00E-02,  avg # of iterations =  1.0

     negative rho (up, down):  4.331E-03 0.000E+00

     total cpu time spent up to now is       10.1 secs

     total energy              =     -31.15651274 Ry
     Harris-Foulkes estimate   =     -31.55946606 Ry
     estimated scf accuracy    <       1.93568216 Ry

     iteration # 94     ecut=    30.00 Ry     beta=0.70
     Davidson diagonalization with overlap
     ethr =  1.00E-02,  avg # of iterations =  2.0

     negative rho (up, down):  8.440E-04 0.000E+00

     total cpu time spent up to now is       10.1 secs

     total energy              =     -31.57750923 Ry
     Harris-Foulkes estimate   =     -31.82540675 Ry
     estimated scf accuracy    <       3.33481518 Ry

     iteration # 95     ecut=    30.00 Ry     beta=0.70
     Davidson diagonalization with overlap
     ethr =  1.00E-02,  avg # of iterations =  1.0

     negative rho (up, down):  1.176E-04 0.000E+00

     total cpu time spent up to now is       10.2 secs

     total energy              =     -31.39770864 Ry
     Harris-Foulkes estimate   =     -31.58069890 Ry
     estimated scf accuracy    <       2.86312003 Ry

     iteration # 96     ecut=    30.00 Ry     beta=0.70
     Davidson diagonalization with overlap
     ethr =  1.00E-02,  avg # of iterations =  1.0

     negative rho (up, down):  4.194E-06 0.000E+00

     total cpu time spent up to now is       10.2 secs

     total energy              =     -31.49818039 Ry
     Harris-Foulkes estimate   =     -31.53303620 Ry
     estimated scf accuracy    <       3.15049806 Ry

     iteration # 97     ecut=    30.00 Ry     beta=0.70
     Davidson diagonalization with overlap
     ethr =  1.00E-02,  avg # of iterations =  1.0

     negative rho (up, down):  4.304E-08 0.000E+00

     total cpu time spent up to now is       10.2 secs

     total energy              =     -31.48201328 Ry
     Harris-Foulkes estimate   =     -31.50244878 Ry
     estimated scf accuracy    <       1.50985071 Ry

     iteration # 98     ecut=    30.00 Ry     beta=0.70
     Davidson diagonalization with overlap
     ethr =  1.00E-02,  avg # of iterations =  1.0

     negative rho (up, down):  2.123E-08 0.000E+00

     total cpu time spent up to now is       10.3 secs

     total energy              =     -31.48564260 Ry
     Harris-Foulkes estimate   =     -31.49369769 Ry
     estimated scf accuracy    <       0.68079927 Ry

     iteration # 99     ecut=    30.00 Ry     beta=0.70
     Davidson diagonalization with overlap
     ethr =  8.51E-03,  avg # of iterations =  1.0

     negative rho (up, down):  3.040E-03 0.000E+00

     total cpu time spent up to now is       10.3 secs

     total energy              =     -31.53612725 Ry
     Harris-Foulkes estimate   =     -31.48756524 Ry
     estimated scf accuracy    <       0.19329561 Ry

     iteration #100     ecut=    30.00 Ry     beta=0.70
     Davidson diagonalization with overlap
     ethr =  2.42E-03,  avg # of iterations =  2.0

     negative rho (up, down):  1.414E-08 0.000E+00

     total cpu time spent up to now is       10.3 secs

     total energy              =     -31.52723518 Ry
     Harris-Foulkes estimate   =     -31.61306061 Ry
     estimated scf accuracy    <       2.53257653 Ry

     End of self-consistent calculation

     convergence NOT achieved after 100 iterations: stopping

     Writing output data file pwscf.save
 
     init_run     :      0.09s CPU      0.10s WALL (       1 calls)
     electrons    :      7.37s CPU      9.09s WALL (       4 calls)
     update_pot   :      0.33s CPU      0.51s WALL (       3 calls)
     forces       :      0.08s CPU      0.08s WALL (       3 calls)

     Called by init_run:
     wfcinit      :      0.01s CPU      0.02s WALL (       1 calls)
     potinit      :      0.02s CPU      0.03s WALL (       1 calls)

     Called by electrons:
     c_bands      :      3.60s CPU      3.80s WALL (     201 calls)
     sum_band     :      0.59s CPU      0.63s WALL (     201 calls)
     v_of_rho     :      1.49s CPU      1.63s WALL (     205 calls)
     mix_rho      :      1.46s CPU      2.46s WALL (     201 calls)

     Called by c_bands:
     init_us_2    :      0.02s CPU      0.02s WALL (     403 calls)
     cegterg      :      3.56s CPU      3.69s WALL (     201 calls)

     Called by sum_band:

     Called by *egterg:
     h_psi        :      2.97s CPU      3.06s WALL (    1054 calls)
     g_psi        :      0.03s CPU      0.03s WALL (     852 calls)
     cdiaghg      :      0.21s CPU      0.22s WALL (    1050 calls)

     Called by h_psi:
     h_psi:pot    :      2.96s CPU      3.04s WALL (    1054 calls)
     h_psi:calbec :      0.05s CPU      0.06s WALL (    1054 calls)
     vloc_psi     :      2.89s CPU      2.97s WALL (    1054 calls)
     add_vuspsi   :      0.01s CPU      0.01s WALL (    1054 calls)

     General routines
     calbec       :      0.07s CPU      0.08s WALL (    1068 calls)
     fft          :      0.91s CPU      0.97s WALL (    2261 calls)
     fftw         :      2.98s CPU      3.08s WALL (   13496 calls)
     davcio       :      0.23s CPU      0.86s WALL (    3677 calls)
 
     Parallel routines
     fft_scatter  :      1.48s CPU      1.58s WALL (   15757 calls)
 
     PWSCF        :     8.03s CPU        10.44s WALL

 
   This run was terminated on:   7:43:38  14Feb2018            

=------------------------------------------------------------------------------=
   JOB DONE.
=------------------------------------------------------------------------------=
