
     Program PWSCF v.6.0 (svn rev. 13079) starts on 14Feb2018 at  7:48:40 

     This program is part of the open-source Quantum ESPRESSO suite
     for quantum simulation of materials; please cite
         "P. Giannozzi et al., J. Phys.:Condens. Matter 21 395502 (2009);
          URL http://www.quantum-espresso.org", 
     in publications or presentations arising from this work. More details at
     http://www.quantum-espresso.org/quote

     Parallel version (MPI), running on    28 processors
     R & G space division:  proc/nbgrp/npool/nimage =      28
     Reading input from inputs/MD-H2O-2/206.in

     Current dimensions of program PWSCF are:
     Max number of different atomic species (ntypx) = 10
     Max number of k-points (npk) =  40000
     Max angular momentum in pseudopotentials (lmaxx) =  3

     Subspace diagonalization in iterative solution of the eigenvalue problem:
     a serial algorithm will be used

 
     Parallelization info
     --------------------
     sticks:   dense  smooth     PW     G-vecs:    dense   smooth      PW
     Min         136     136     33                 6338     6338     787
     Max         137     137     34                 6341     6341     792
     Sum        3809    3809    949               177509   177509   22119
 


     bravais-lattice index     =            1
     lattice parameter (alat)  =      20.0000  a.u.
     unit-cell volume          =    8000.0000 (a.u.)^3
     number of atoms/cell      =            3
     number of atomic types    =            2
     number of electrons       =         8.00
     number of Kohn-Sham states=            8
     kinetic-energy cutoff     =      30.0000  Ry
     charge density cutoff     =     120.0000  Ry
     convergence threshold     =      1.0E-08
     mixing beta               =       0.7000
     number of iterations used =            8  plain     mixing
     Exchange-correlation      = BLYP ( 1  3  1  3 0 0)
     nstep                     =         5000


     celldm(1)=  20.000000  celldm(2)=   0.000000  celldm(3)=   0.000000
     celldm(4)=   0.000000  celldm(5)=   0.000000  celldm(6)=   0.000000

     crystal axes: (cart. coord. in units of alat)
               a(1) = (   1.000000   0.000000   0.000000 )  
               a(2) = (   0.000000   1.000000   0.000000 )  
               a(3) = (   0.000000   0.000000   1.000000 )  

     reciprocal axes: (cart. coord. in units 2 pi/alat)
               b(1) = (  1.000000  0.000000  0.000000 )  
               b(2) = (  0.000000  1.000000  0.000000 )  
               b(3) = (  0.000000  0.000000  1.000000 )  


     PseudoPot. # 1 for  H read from file:
     ./H.blyp-hgh.UPF
     MD5 check sum: c576e69559cde411e611be972c763230
     Pseudo is Norm-conserving, Zval =  1.0
     Generated in analytical, separable form
     Using radial grid of  929 points,  0 beta functions with: 

     PseudoPot. # 2 for  O read from file:
     ./O.blyp-hgh.UPF
     MD5 check sum: d0b7156309aa9befef28faac7bc56342
     Pseudo is Norm-conserving, Zval =  6.0
     Generated in analytical, separable form
     Using radial grid of 1095 points,  1 beta functions with: 
                l(1) =   0

     atomic species   valence    mass     pseudopotential
        H              1.00     1.01000      H( 1.00)
        O              6.00    16.00000      O( 1.00)

     No symmetry found



   Cartesian axes

     site n.     atom                  positions (alat units)
         1           H   tau(   1) = (   0.5912913   1.0134798   0.5637779  )
         2           H   tau(   2) = (   0.5441205   1.0413805   0.5546727  )
         3           O   tau(   3) = (   0.7878387  -0.0551487   0.7962304  )

     number of k points=     1  Marzari-Vanderbilt smearing, width (Ry)=  0.0250
                       cart. coord. in units 2pi/alat
        k(    1) = (   0.0000000   0.0000000   0.0000000), wk =   2.0000000

     Dense  grid:   177509 G-vectors     FFT dimensions: (  72,  72,  72)

     Estimated max dynamical RAM per process >       6.09Mb

     Estimated total allocated dynamical RAM >     170.64Mb

     Initial potential from superposition of free atoms
     Check: negative starting charge=   -0.355904

     starting charge    7.99998, renormalised to    8.00000

     negative rho (up, down):  3.559E-01 0.000E+00
     Starting wfc are    6 randomized atomic wfcs +    2 random wfc

     total cpu time spent up to now is        0.3 secs

     per-process dynamical memory:    18.8 Mb

     Self-consistent Calculation

     iteration #  1     ecut=    30.00 Ry     beta=0.70
     Davidson diagonalization with overlap
     ethr =  1.00E-02,  avg # of iterations =  8.0

     negative rho (up, down):  9.461E-02 0.000E+00

     total cpu time spent up to now is        0.3 secs

     total energy              =     -31.54618076 Ry
     Harris-Foulkes estimate   =     -32.33615909 Ry
     estimated scf accuracy    <       0.85403287 Ry

     iteration #  2     ecut=    30.00 Ry     beta=0.70
     Davidson diagonalization with overlap
     ethr =  1.00E-02,  avg # of iterations =  2.0

     negative rho (up, down):  6.786E-02 0.000E+00

     total cpu time spent up to now is        0.3 secs

     total energy              =     -31.10470293 Ry
     Harris-Foulkes estimate   =     -31.88215037 Ry
     estimated scf accuracy    <       1.93060253 Ry

     iteration #  3     ecut=    30.00 Ry     beta=0.70
     Davidson diagonalization with overlap
     ethr =  1.00E-02,  avg # of iterations =  2.0

     negative rho (up, down):  1.999E-02 0.000E+00

     total cpu time spent up to now is        0.4 secs

     total energy              =     -31.89580525 Ry
     Harris-Foulkes estimate   =     -31.90559173 Ry
     estimated scf accuracy    <       0.14846511 Ry

     iteration #  4     ecut=    30.00 Ry     beta=0.70
     Davidson diagonalization with overlap
     ethr =  1.86E-03,  avg # of iterations =  1.0

     negative rho (up, down):  8.656E-03 0.000E+00

     total cpu time spent up to now is        0.4 secs

     total energy              =     -31.88940759 Ry
     Harris-Foulkes estimate   =     -31.89936670 Ry
     estimated scf accuracy    <       0.06730591 Ry

     iteration #  5     ecut=    30.00 Ry     beta=0.70
     Davidson diagonalization with overlap
     ethr =  8.41E-04,  avg # of iterations =  1.0

     negative rho (up, down):  2.736E-03 0.000E+00

     total cpu time spent up to now is        0.4 secs

     total energy              =     -31.88527753 Ry
     Harris-Foulkes estimate   =     -31.89228540 Ry
     estimated scf accuracy    <       0.03982603 Ry

     iteration #  6     ecut=    30.00 Ry     beta=0.70
     Davidson diagonalization with overlap
     ethr =  4.98E-04,  avg # of iterations =  5.0

     negative rho (up, down):  5.142E-05 0.000E+00

     total cpu time spent up to now is        0.5 secs

     total energy              =     -31.87803881 Ry
     Harris-Foulkes estimate   =     -31.88670859 Ry
     estimated scf accuracy    <       0.01284045 Ry

     iteration #  7     ecut=    30.00 Ry     beta=0.70
     Davidson diagonalization with overlap
     ethr =  1.61E-04,  avg # of iterations =  3.0

     negative rho (up, down):  9.366E-05 0.000E+00

     total cpu time spent up to now is        0.5 secs

     total energy              =     -31.88007167 Ry
     Harris-Foulkes estimate   =     -31.88006640 Ry
     estimated scf accuracy    <       0.00005368 Ry

     iteration #  8     ecut=    30.00 Ry     beta=0.70
     Davidson diagonalization with overlap
     c_bands:  1 eigenvalues not converged
     ethr =  6.71E-07,  avg # of iterations = 20.0

     negative rho (up, down):  2.407E-07 0.000E+00

     total cpu time spent up to now is        0.6 secs

     total energy              =     -31.88002890 Ry
     Harris-Foulkes estimate   =     -31.88010069 Ry
     estimated scf accuracy    <       0.00010745 Ry

     iteration #  9     ecut=    30.00 Ry     beta=0.70
     Davidson diagonalization with overlap
     ethr =  6.71E-07,  avg # of iterations =  4.0

     negative rho (up, down):  7.062E-08 0.000E+00

     total cpu time spent up to now is        0.6 secs

     total energy              =     -31.88003886 Ry
     Harris-Foulkes estimate   =     -31.88004113 Ry
     estimated scf accuracy    <       0.00000069 Ry

     iteration # 10     ecut=    30.00 Ry     beta=0.70
     Davidson diagonalization with overlap
     ethr =  8.66E-09,  avg # of iterations =  3.0

     total cpu time spent up to now is        0.6 secs

     total energy              =     -31.88003998 Ry
     Harris-Foulkes estimate   =     -31.88003934 Ry
     estimated scf accuracy    <       0.00000085 Ry

     iteration # 11     ecut=    30.00 Ry     beta=0.70
     Davidson diagonalization with overlap
     ethr =  8.66E-09,  avg # of iterations =  2.0

     total cpu time spent up to now is        0.7 secs

     total energy              =     -31.88003965 Ry
     Harris-Foulkes estimate   =     -31.88004016 Ry
     estimated scf accuracy    <       0.00000006 Ry

     iteration # 12     ecut=    30.00 Ry     beta=0.70
     Davidson diagonalization with overlap
     ethr =  7.80E-10,  avg # of iterations =  2.0

     total cpu time spent up to now is        0.7 secs

     End of self-consistent calculation

          k = 0.0000 0.0000 0.0000 ( 22119 PWs)   bands (ev):

   -25.1075 -10.9773  -8.4109  -8.4100  -8.4095  -0.3185   0.6018   0.9192

     the Fermi energy is    -8.2872 ev

!    total energy              =     -31.88003935 Ry
     Harris-Foulkes estimate   =     -31.88003966 Ry
     estimated scf accuracy    <          5.4E-10 Ry

     convergence has been achieved in  12 iterations

     Forces acting on atoms (Ry/au):

     atom    1 type  1   force =     0.34277423   -0.20252636    0.06554708
     atom    2 type  1   force =    -0.34184759    0.20242857   -0.06647256
     atom    3 type  2   force =    -0.00092664    0.00009779    0.00092549

     Total force =     0.570145     Total SCF correction =     0.000097

     Molecular Dynamics Calculation

     Starting temperature  =  1000.00 K

     temperature is controlled by Andersen thermostat
     Collision frequency = 1.0000/timestep
     mass H                =     1.01
     mass O                =    16.00
     Time step             =   100.00 a.u.,  4.8378 femto-seconds

     Entering Dynamics:    iteration =     1
                           time      =   0.0048 pico-seconds


     Andersen thermostat:    3 collisions

ATOMIC_POSITIONS (bohr)
H       13.919156930  19.446117444  11.433449046
H        9.032201578  22.156111598  10.543513184
O       15.741426892  -1.134853580  15.949356205


     kinetic energy (Ekin) =     0.01319564 Ry
     temperature           =   694.47456190 K 
     Ekin + Etot (const)   =   -31.86684372 Ry

     Linear momentum :   -0.0000000000   -0.0000000000   -0.0000000000

     Writing output data file pwscf.save
     Check: negative starting charge=   -0.355904
     NEW-OLD atomic charge density approx. for the potential
     Check: negative starting charge=   -0.345955

     negative rho (up, down):  1.508E-01 0.000E+00

     total cpu time spent up to now is        1.2 secs

     per-process dynamical memory:    20.4 Mb

     Self-consistent Calculation

     iteration #  1     ecut=    30.00 Ry     beta=0.70
     Davidson diagonalization with overlap
     c_bands:  1 eigenvalues not converged
     ethr =  1.00E-06,  avg # of iterations = 20.0

     negative rho (up, down):  4.000E-02 0.000E+00

     total cpu time spent up to now is        1.4 secs

     total energy              =     -29.71508534 Ry
     Harris-Foulkes estimate   =     -31.81384795 Ry
     estimated scf accuracy    <       2.71094003 Ry

     iteration #  2     ecut=    30.00 Ry     beta=0.70
     Davidson diagonalization with overlap
     ethr =  1.00E-02,  avg # of iterations =  4.0

     negative rho (up, down):  4.305E-03 0.000E+00

     total cpu time spent up to now is        1.4 secs

     total energy              =     -31.26616418 Ry
     Harris-Foulkes estimate   =     -37.14055581 Ry
     estimated scf accuracy    <      19.05902542 Ry

     iteration #  3     ecut=    30.00 Ry     beta=0.70
     Davidson diagonalization with overlap
     ethr =  1.00E-02,  avg # of iterations =  2.0

     negative rho (up, down):  1.334E-03 0.000E+00

     total cpu time spent up to now is        1.5 secs

     total energy              =     -30.09368340 Ry
     Harris-Foulkes estimate   =     -31.42840544 Ry
     estimated scf accuracy    <      10.97387473 Ry

     iteration #  4     ecut=    30.00 Ry     beta=0.70
     Davidson diagonalization with overlap
     ethr =  1.00E-02,  avg # of iterations =  5.0

     negative rho (up, down):  7.034E-04 0.000E+00

     total cpu time spent up to now is        1.5 secs

     total energy              =     -30.94053280 Ry
     Harris-Foulkes estimate   =     -31.33765785 Ry
     estimated scf accuracy    <       3.52623345 Ry

     iteration #  5     ecut=    30.00 Ry     beta=0.70
     Davidson diagonalization with overlap
     ethr =  1.00E-02,  avg # of iterations =  5.0

     negative rho (up, down):  3.615E-04 0.000E+00

     total cpu time spent up to now is        1.6 secs

     total energy              =     -31.45684458 Ry
     Harris-Foulkes estimate   =     -31.48494592 Ry
     estimated scf accuracy    <       0.30087418 Ry

     iteration #  6     ecut=    30.00 Ry     beta=0.70
     Davidson diagonalization with overlap
     ethr =  3.76E-03,  avg # of iterations =  1.0

     negative rho (up, down):  1.350E-05 0.000E+00

     total cpu time spent up to now is        1.6 secs

     total energy              =     -31.44985986 Ry
     Harris-Foulkes estimate   =     -31.49651548 Ry
     estimated scf accuracy    <       0.63678539 Ry

     iteration #  7     ecut=    30.00 Ry     beta=0.70
     Davidson diagonalization with overlap
     ethr =  3.76E-03,  avg # of iterations =  1.0

     total cpu time spent up to now is        1.6 secs

     total energy              =     -31.43827489 Ry
     Harris-Foulkes estimate   =     -31.46606912 Ry
     estimated scf accuracy    <       0.14174715 Ry

     iteration #  8     ecut=    30.00 Ry     beta=0.70
     Davidson diagonalization with overlap
     ethr =  1.77E-03,  avg # of iterations =  1.0

     total cpu time spent up to now is        1.7 secs

     total energy              =     -31.44120618 Ry
     Harris-Foulkes estimate   =     -31.44446390 Ry
     estimated scf accuracy    <       0.08869826 Ry

     iteration #  9     ecut=    30.00 Ry     beta=0.70
     Davidson diagonalization with overlap
     ethr =  1.11E-03,  avg # of iterations =  5.0

     total cpu time spent up to now is        1.7 secs

     total energy              =     -31.88518190 Ry
     Harris-Foulkes estimate   =     -31.93439726 Ry
     estimated scf accuracy    <       3.03849294 Ry

     iteration # 10     ecut=    30.00 Ry     beta=0.70
     Davidson diagonalization with overlap
     ethr =  1.11E-03,  avg # of iterations =  1.0

     total cpu time spent up to now is        1.8 secs

     total energy              =     -31.98421482 Ry
     Harris-Foulkes estimate   =     -31.88539271 Ry
     estimated scf accuracy    <       2.85929856 Ry

     iteration # 11     ecut=    30.00 Ry     beta=0.70
     Davidson diagonalization with overlap
     ethr =  1.11E-03,  avg # of iterations =  1.0

     total cpu time spent up to now is        1.8 secs

     total energy              =     -31.95053753 Ry
     Harris-Foulkes estimate   =     -31.98522210 Ry
     estimated scf accuracy    <       3.17814121 Ry

     iteration # 12     ecut=    30.00 Ry     beta=0.70
     Davidson diagonalization with overlap
     ethr =  1.11E-03,  avg # of iterations =  1.0

     negative rho (up, down):  1.184E-01 0.000E+00

     total cpu time spent up to now is        1.9 secs

     total energy              =     -49.40868547 Ry
     Harris-Foulkes estimate   =     -31.95070051 Ry
     estimated scf accuracy    <       3.08715242 Ry

     iteration # 13     ecut=    30.00 Ry     beta=0.70
     Davidson diagonalization with overlap
     ethr =  1.11E-03,  avg # of iterations =  5.0

     negative rho (up, down):  1.892E-04 0.000E+00

     total cpu time spent up to now is        1.9 secs

     total energy              =      16.12168209 Ry
     Harris-Foulkes estimate   =    -118.69888579 Ry
     estimated scf accuracy    <      21.75054878 Ry

     iteration # 14     ecut=    30.00 Ry     beta=0.70
     Davidson diagonalization with overlap
     ethr =  1.11E-03,  avg # of iterations =  8.0

     negative rho (up, down):  4.837E-04 0.000E+00

     total cpu time spent up to now is        2.0 secs

     total energy              =     -31.53590634 Ry
     Harris-Foulkes estimate   =     -32.03620760 Ry
     estimated scf accuracy    <       3.29113032 Ry

     iteration # 15     ecut=    30.00 Ry     beta=0.70
     Davidson diagonalization with overlap
     ethr =  1.11E-03,  avg # of iterations =  1.0

     negative rho (up, down):  1.677E-04 0.000E+00

     total cpu time spent up to now is        2.0 secs

     total energy              =     -31.58099250 Ry
     Harris-Foulkes estimate   =     -31.65281676 Ry
     estimated scf accuracy    <       0.93235432 Ry

     iteration # 16     ecut=    30.00 Ry     beta=0.70
     Davidson diagonalization with overlap
     ethr =  1.11E-03,  avg # of iterations =  1.0

     negative rho (up, down):  2.116E-04 0.000E+00

     total cpu time spent up to now is        2.0 secs

     total energy              =     -31.70565263 Ry
     Harris-Foulkes estimate   =     -31.61731224 Ry
     estimated scf accuracy    <       0.57728295 Ry

     iteration # 17     ecut=    30.00 Ry     beta=0.70
     Davidson diagonalization with overlap
     ethr =  1.11E-03,  avg # of iterations =  1.0

     negative rho (up, down):  3.739E-03 0.000E+00

     total cpu time spent up to now is        2.1 secs

     total energy              =     -31.12250068 Ry
     Harris-Foulkes estimate   =     -31.77537387 Ry
     estimated scf accuracy    <       2.41188642 Ry

     iteration # 18     ecut=    30.00 Ry     beta=0.70
     Davidson diagonalization with overlap
     ethr =  1.11E-03,  avg # of iterations =  5.0

     negative rho (up, down):  5.090E-03 0.000E+00

     total cpu time spent up to now is        2.1 secs

     total energy              =     -32.03588812 Ry
     Harris-Foulkes estimate   =     -32.07950914 Ry
     estimated scf accuracy    <       4.31382558 Ry

     iteration # 19     ecut=    30.00 Ry     beta=0.70
     Davidson diagonalization with overlap
     ethr =  1.11E-03,  avg # of iterations =  1.0

     negative rho (up, down):  6.756E-03 0.000E+00

     total cpu time spent up to now is        2.1 secs

     total energy              =     -31.90478438 Ry
     Harris-Foulkes estimate   =     -32.03698405 Ry
     estimated scf accuracy    <       4.18666180 Ry

     iteration # 20     ecut=    30.00 Ry     beta=0.70
     Davidson diagonalization with overlap
     ethr =  1.11E-03,  avg # of iterations =  1.0

     negative rho (up, down):  6.142E-03 0.000E+00

     total cpu time spent up to now is        2.2 secs

     total energy              =     -31.56318660 Ry
     Harris-Foulkes estimate   =     -31.90992915 Ry
     estimated scf accuracy    <       3.75094918 Ry

     iteration # 21     ecut=    30.00 Ry     beta=0.70
     Davidson diagonalization with overlap
     ethr =  1.11E-03,  avg # of iterations =  2.0

     negative rho (up, down):  2.171E-03 0.000E+00

     total cpu time spent up to now is        2.2 secs

     total energy              =     -31.54342320 Ry
     Harris-Foulkes estimate   =     -31.60324599 Ry
     estimated scf accuracy    <       1.60310763 Ry

     iteration # 22     ecut=    30.00 Ry     beta=0.70
     Davidson diagonalization with overlap
     ethr =  1.11E-03,  avg # of iterations =  1.0

     negative rho (up, down):  2.083E-03 0.000E+00

     total cpu time spent up to now is        2.3 secs

     total energy              =     -31.57074386 Ry
     Harris-Foulkes estimate   =     -31.57138699 Ry
     estimated scf accuracy    <       0.05133565 Ry

     iteration # 23     ecut=    30.00 Ry     beta=0.70
     Davidson diagonalization with overlap
     ethr =  6.42E-04,  avg # of iterations =  1.0

     negative rho (up, down):  1.427E-04 0.000E+00

     total cpu time spent up to now is        2.3 secs

     total energy              =     -31.57067426 Ry
     Harris-Foulkes estimate   =     -31.57196430 Ry
     estimated scf accuracy    <       0.12185445 Ry

     iteration # 24     ecut=    30.00 Ry     beta=0.70
     Davidson diagonalization with overlap
     ethr =  6.42E-04,  avg # of iterations =  1.0

     negative rho (up, down):  9.375E-05 0.000E+00

     total cpu time spent up to now is        2.3 secs

     total energy              =     -31.56838639 Ry
     Harris-Foulkes estimate   =     -31.57398845 Ry
     estimated scf accuracy    <       0.06497242 Ry

     iteration # 25     ecut=    30.00 Ry     beta=0.70
     Davidson diagonalization with overlap
     ethr =  6.42E-04,  avg # of iterations =  1.0

     negative rho (up, down):  8.982E-05 0.000E+00

     total cpu time spent up to now is        2.4 secs

     total energy              =     -31.56177391 Ry
     Harris-Foulkes estimate   =     -31.57351301 Ry
     estimated scf accuracy    <       0.20947585 Ry

     iteration # 26     ecut=    30.00 Ry     beta=0.70
     Davidson diagonalization with overlap
     ethr =  6.42E-04,  avg # of iterations =  1.0

     negative rho (up, down):  9.204E-05 0.000E+00

     total cpu time spent up to now is        2.4 secs

     total energy              =     -31.57598193 Ry
     Harris-Foulkes estimate   =     -31.57155226 Ry
     estimated scf accuracy    <       0.10987829 Ry

     iteration # 27     ecut=    30.00 Ry     beta=0.70
     Davidson diagonalization with overlap
     ethr =  6.42E-04,  avg # of iterations =  1.0

     negative rho (up, down):  7.599E-05 0.000E+00

     total cpu time spent up to now is        2.5 secs

     total energy              =     -31.58364954 Ry
     Harris-Foulkes estimate   =     -31.58025690 Ry
     estimated scf accuracy    <       0.49867230 Ry

     iteration # 28     ecut=    30.00 Ry     beta=0.70
     Davidson diagonalization with overlap
     ethr =  6.42E-04,  avg # of iterations =  1.0

     negative rho (up, down):  2.082E-04 0.000E+00

     total cpu time spent up to now is        2.5 secs

     total energy              =     -31.59511771 Ry
     Harris-Foulkes estimate   =     -31.58383514 Ry
     estimated scf accuracy    <       0.60735728 Ry

     iteration # 29     ecut=    30.00 Ry     beta=0.70
     Davidson diagonalization with overlap
     ethr =  6.42E-04,  avg # of iterations =  1.0

     negative rho (up, down):  1.073E-05 0.000E+00

     total cpu time spent up to now is        2.5 secs

     total energy              =     -31.55372303 Ry
     Harris-Foulkes estimate   =     -31.59911896 Ry
     estimated scf accuracy    <       1.10888379 Ry

     iteration # 30     ecut=    30.00 Ry     beta=0.70
     Davidson diagonalization with overlap
     ethr =  6.42E-04,  avg # of iterations =  1.0

     total cpu time spent up to now is        2.6 secs

     total energy              =     -31.56923759 Ry
     Harris-Foulkes estimate   =     -31.56885077 Ry
     estimated scf accuracy    <       0.05089088 Ry

     iteration # 31     ecut=    30.00 Ry     beta=0.70
     Davidson diagonalization with overlap
     ethr =  6.36E-04,  avg # of iterations =  1.0

     total cpu time spent up to now is        2.6 secs

     total energy              =     -31.56813658 Ry
     Harris-Foulkes estimate   =     -31.56933974 Ry
     estimated scf accuracy    <       0.07907475 Ry

     iteration # 32     ecut=    30.00 Ry     beta=0.70
     Davidson diagonalization with overlap
     ethr =  6.36E-04,  avg # of iterations =  1.0

     total cpu time spent up to now is        2.6 secs

     total energy              =     -31.56811430 Ry
     Harris-Foulkes estimate   =     -31.56836380 Ry
     estimated scf accuracy    <       0.02983173 Ry

     iteration # 33     ecut=    30.00 Ry     beta=0.70
     Davidson diagonalization with overlap
     ethr =  3.73E-04,  avg # of iterations =  1.0

     total cpu time spent up to now is        2.7 secs

     total energy              =     -31.56776456 Ry
     Harris-Foulkes estimate   =     -31.56813745 Ry
     estimated scf accuracy    <       0.01957433 Ry

     iteration # 34     ecut=    30.00 Ry     beta=0.70
     Davidson diagonalization with overlap
     ethr =  2.45E-04,  avg # of iterations =  1.0

     total cpu time spent up to now is        2.7 secs

     total energy              =     -31.56759350 Ry
     Harris-Foulkes estimate   =     -31.56784420 Ry
     estimated scf accuracy    <       0.00633430 Ry

     iteration # 35     ecut=    30.00 Ry     beta=0.70
     Davidson diagonalization with overlap
     ethr =  7.92E-05,  avg # of iterations =  1.0

     total cpu time spent up to now is        2.8 secs

     total energy              =     -31.56772455 Ry
     Harris-Foulkes estimate   =     -31.56772428 Ry
     estimated scf accuracy    <       0.00002569 Ry

     iteration # 36     ecut=    30.00 Ry     beta=0.70
     Davidson diagonalization with overlap
     ethr =  3.21E-07,  avg # of iterations =  3.0

     total cpu time spent up to now is        2.8 secs

     total energy              =     -31.56772497 Ry
     Harris-Foulkes estimate   =     -31.56772494 Ry
     estimated scf accuracy    <       0.00000076 Ry

     iteration # 37     ecut=    30.00 Ry     beta=0.70
     Davidson diagonalization with overlap
     ethr =  9.48E-09,  avg # of iterations =  1.0

     total cpu time spent up to now is        2.9 secs

     total energy              =     -31.56772498 Ry
     Harris-Foulkes estimate   =     -31.56772501 Ry
     estimated scf accuracy    <       0.00000030 Ry

     iteration # 38     ecut=    30.00 Ry     beta=0.70
     Davidson diagonalization with overlap
     ethr =  3.74E-09,  avg # of iterations =  1.0

     total cpu time spent up to now is        2.9 secs

     End of self-consistent calculation

          k = 0.0000 0.0000 0.0000 ( 22119 PWs)   bands (ev):

   -23.7752  -7.8013  -7.1294  -7.1275  -7.0401  -6.3607  -0.1602   0.6268

     the Fermi energy is    -6.9777 ev

!    total energy              =     -31.56772500 Ry
     Harris-Foulkes estimate   =     -31.56772499 Ry
     estimated scf accuracy    <          1.6E-09 Ry

     convergence has been achieved in  38 iterations

     Forces acting on atoms (Ry/au):

     atom    1 type  1   force =     0.00857677    0.00011609    0.04835590
     atom    2 type  1   force =     0.01226888   -0.00640595    0.00185189
     atom    3 type  2   force =    -0.02084565    0.00628985   -0.05020779

     Total force =     0.074845     Total SCF correction =     0.000100

     Entering Dynamics:    iteration =     2
                           time      =   0.0097 pico-seconds


     Andersen thermostat:    3 collisions

ATOMIC_POSITIONS (bohr)
H       14.064739773  19.623528416  12.103868354
H        9.228734511  21.932673325  10.739871453
O       15.719830833  -1.131948106  15.894640870


     kinetic energy (Ekin) =     0.01763921 Ry
     temperature           =   928.33567641 K 
     Ekin + Etot (const)   =   -31.55008580 Ry
     Message from routine dynamics:
     Total linear momentum <> 0

     Linear momentum :   -0.0482643422    0.4839037204    0.0463385468

     Writing output data file pwscf.save

     first order wave-functions extrapolation
     Check: negative starting charge=   -0.345955
     first order charge density extrapolation
     Check: negative starting charge=   -0.346068

     negative rho (up, down):  4.879E-01 0.000E+00

     total cpu time spent up to now is        3.3 secs

     per-process dynamical memory:    20.4 Mb

     Self-consistent Calculation

     iteration #  1     ecut=    30.00 Ry     beta=0.70
     Davidson diagonalization with overlap
     ethr =  1.00E-06,  avg # of iterations = 11.0

     negative rho (up, down):  1.045E-01 0.000E+00

     total cpu time spent up to now is        3.5 secs

     total energy              =      22.00596740 Ry
     Harris-Foulkes estimate   =     -67.95313842 Ry
     estimated scf accuracy    <      26.16631208 Ry

     iteration #  2     ecut=    30.00 Ry     beta=0.70
     Davidson diagonalization with overlap
     ethr =  1.00E-02,  avg # of iterations =  5.0

     negative rho (up, down):  4.778E-02 0.000E+00

     total cpu time spent up to now is        3.6 secs

     total energy              =     -14.34254571 Ry
     Harris-Foulkes estimate   =     -51.76105030 Ry
     estimated scf accuracy    <      18.68738136 Ry

     iteration #  3     ecut=    30.00 Ry     beta=0.70
     Davidson diagonalization with overlap
     ethr =  1.00E-02,  avg # of iterations =  5.0

     negative rho (up, down):  2.425E-02 0.000E+00

     total cpu time spent up to now is        3.7 secs

     total energy              =      -7.54624038 Ry
     Harris-Foulkes estimate   =     -60.22485728 Ry
     estimated scf accuracy    <       8.91358731 Ry

     iteration #  4     ecut=    30.00 Ry     beta=0.70
     Davidson diagonalization with overlap
     ethr =  1.00E-02,  avg # of iterations =  7.0

     negative rho (up, down):  2.042E-02 0.000E+00

     total cpu time spent up to now is        3.7 secs

     total energy              =     -13.98763062 Ry
     Harris-Foulkes estimate   =     -44.68386594 Ry
     estimated scf accuracy    <       8.57577745 Ry

     iteration #  5     ecut=    30.00 Ry     beta=0.70
     Davidson diagonalization with overlap
     ethr =  1.00E-02,  avg # of iterations =  8.0

     negative rho (up, down):  1.646E-02 0.000E+00

     total cpu time spent up to now is        3.8 secs

     total energy              =     -18.46654642 Ry
     Harris-Foulkes estimate   =     -38.08724684 Ry
     estimated scf accuracy    <       5.94306778 Ry

     iteration #  6     ecut=    30.00 Ry     beta=0.70
     Davidson diagonalization with overlap
     ethr =  1.00E-02,  avg # of iterations =  4.0

     negative rho (up, down):  1.724E-02 0.000E+00

     total cpu time spent up to now is        3.8 secs

     total energy              =     -34.59262057 Ry
     Harris-Foulkes estimate   =     -37.23925873 Ry
     estimated scf accuracy    <      10.55515293 Ry

     iteration #  7     ecut=    30.00 Ry     beta=0.70
     Davidson diagonalization with overlap
     ethr =  1.00E-02,  avg # of iterations =  1.0

     negative rho (up, down):  4.146E-02 0.000E+00

     total cpu time spent up to now is        3.8 secs

     total energy              =     -32.13076734 Ry
     Harris-Foulkes estimate   =     -34.66601257 Ry
     estimated scf accuracy    <       6.78244473 Ry

     iteration #  8     ecut=    30.00 Ry     beta=0.70
     Davidson diagonalization with overlap
     ethr =  1.00E-02,  avg # of iterations =  8.0

     negative rho (up, down):  3.946E-02 0.000E+00

     total cpu time spent up to now is        3.9 secs

     total energy              =       0.90529230 Ry
     Harris-Foulkes estimate   =     -58.88054354 Ry
     estimated scf accuracy    <      19.07142898 Ry

     iteration #  9     ecut=    30.00 Ry     beta=0.70
     Davidson diagonalization with overlap
     ethr =  1.00E-02,  avg # of iterations =  4.0

     negative rho (up, down):  4.421E-02 0.000E+00

     total cpu time spent up to now is        3.9 secs

     total energy              =     -18.50521464 Ry
     Harris-Foulkes estimate   =     -41.14817910 Ry
     estimated scf accuracy    <       5.90193489 Ry

     iteration # 10     ecut=    30.00 Ry     beta=0.70
     Davidson diagonalization with overlap
     ethr =  1.00E-02,  avg # of iterations =  4.0

     negative rho (up, down):  3.491E-01 0.000E+00

     total cpu time spent up to now is        4.0 secs

     total energy              =      -7.29947984 Ry
     Harris-Foulkes estimate   =     -75.48820420 Ry
     estimated scf accuracy    <      20.53038348 Ry

     iteration # 11     ecut=    30.00 Ry     beta=0.70
     Davidson diagonalization with overlap
     ethr =  1.00E-02,  avg # of iterations =  7.0

     negative rho (up, down):  1.661E-01 0.000E+00

     total cpu time spent up to now is        4.0 secs

     total energy              =      46.39847519 Ry
     Harris-Foulkes estimate   =    -244.72204911 Ry
     estimated scf accuracy    <      80.97449022 Ry

     iteration # 12     ecut=    30.00 Ry     beta=0.70
     Davidson diagonalization with overlap
     ethr =  1.00E-02,  avg # of iterations =  5.0

     negative rho (up, down):  7.081E-02 0.000E+00

     total cpu time spent up to now is        4.1 secs

     total energy              =     -37.88590932 Ry
     Harris-Foulkes estimate   =     -58.70714063 Ry
     estimated scf accuracy    <      19.01681288 Ry

     iteration # 13     ecut=    30.00 Ry     beta=0.70
     Davidson diagonalization with overlap
     ethr =  1.00E-02,  avg # of iterations =  5.0

     negative rho (up, down):  9.953E-02 0.000E+00

     total cpu time spent up to now is        4.1 secs

     total energy              =     -28.54678203 Ry
     Harris-Foulkes estimate   =    -440.95588023 Ry
     estimated scf accuracy    <      13.82025326 Ry

     iteration # 14     ecut=    30.00 Ry     beta=0.70
     Davidson diagonalization with overlap
     ethr =  1.00E-02,  avg # of iterations =  7.0

     negative rho (up, down):  8.404E-02 0.000E+00

     total cpu time spent up to now is        4.2 secs

     total energy              =     352.43864243 Ry
     Harris-Foulkes estimate   =   -1129.65687987 Ry
     estimated scf accuracy    <      53.69579360 Ry

     iteration # 15     ecut=    30.00 Ry     beta=0.70
     Davidson diagonalization with overlap
     ethr =  1.00E-02,  avg # of iterations =  4.0

     negative rho (up, down):  7.249E-02 0.000E+00

     total cpu time spent up to now is        4.2 secs

     total energy              =    -245.16114746 Ry
     Harris-Foulkes estimate   =     -86.57901134 Ry
     estimated scf accuracy    <      14.01013413 Ry

     iteration # 16     ecut=    30.00 Ry     beta=0.70
     Davidson diagonalization with overlap
     ethr =  1.00E-02,  avg # of iterations =  6.0

     negative rho (up, down):  6.477E-01 0.000E+00

     total cpu time spent up to now is        4.3 secs

     total energy              =     -29.49151943 Ry
     Harris-Foulkes estimate   =   -2092.23173732 Ry
     estimated scf accuracy    <      13.00273281 Ry

     iteration # 17     ecut=    30.00 Ry     beta=0.70
     Davidson diagonalization with overlap
     ethr =  1.00E-02,  avg # of iterations =  7.0

     negative rho (up, down):  7.556E-01 0.000E+00

     total cpu time spent up to now is        4.3 secs

     total energy              =    1131.25820409 Ry
     Harris-Foulkes estimate   =    -272.19679648 Ry
     estimated scf accuracy    <      52.77682312 Ry

     iteration # 18     ecut=    30.00 Ry     beta=0.70
     Davidson diagonalization with overlap
     ethr =  1.00E-02,  avg # of iterations =  5.0

     negative rho (up, down):  9.325E-01 0.000E+00

     total cpu time spent up to now is        4.4 secs

     total energy              =   -1311.13078193 Ry
     Harris-Foulkes estimate   =   -3139.13996301 Ry
     estimated scf accuracy    <      49.79265206 Ry

     iteration # 19     ecut=    30.00 Ry     beta=0.70
     Davidson diagonalization with overlap
     ethr =  1.00E-02,  avg # of iterations =  7.0

     negative rho (up, down):  1.169E+00 0.000E+00

     total cpu time spent up to now is        4.4 secs

     total energy              =    -106.93316432 Ry
     Harris-Foulkes estimate   =  -21792.14005490 Ry
     estimated scf accuracy    <      45.00103559 Ry

     iteration # 20     ecut=    30.00 Ry     beta=0.70
     Davidson diagonalization with overlap
     ethr =  1.00E-02,  avg # of iterations =  6.0

     negative rho (up, down):  1.129E+00 0.000E+00

     total cpu time spent up to now is        4.5 secs

     total energy              =      79.97669813 Ry
     Harris-Foulkes estimate   =   -5271.25376423 Ry
     estimated scf accuracy    <      44.35302240 Ry

     iteration # 21     ecut=    30.00 Ry     beta=0.70
     Davidson diagonalization with overlap
     ethr =  1.00E-02,  avg # of iterations =  8.0

     negative rho (up, down):  1.636E+00 0.000E+00

     total cpu time spent up to now is        4.5 secs

     total energy              =      11.73591869 Ry
     Harris-Foulkes estimate   =   -1044.29509913 Ry
     estimated scf accuracy    <      45.35659498 Ry

     iteration # 22     ecut=    30.00 Ry     beta=0.70
     Davidson diagonalization with overlap
     ethr =  1.00E-02,  avg # of iterations =  7.0

     negative rho (up, down):  1.824E+00 0.000E+00

     total cpu time spent up to now is        4.6 secs

     total energy              =    2256.54338008 Ry
     Harris-Foulkes estimate   =   -5620.16835397 Ry
     estimated scf accuracy    <      39.01869441 Ry

     iteration # 23     ecut=    30.00 Ry     beta=0.70
     Davidson diagonalization with overlap
     ethr =  1.00E-02,  avg # of iterations = 13.0

     negative rho (up, down):  1.745E+00 0.000E+00

     total cpu time spent up to now is        4.7 secs

     total energy              =     -73.03743364 Ry
     Harris-Foulkes estimate   =  -16205.14987258 Ry
     estimated scf accuracy    <      43.75494915 Ry

     iteration # 24     ecut=    30.00 Ry     beta=0.70
     Davidson diagonalization with overlap
     ethr =  1.00E-02,  avg # of iterations = 11.0

     negative rho (up, down):  2.489E+00 0.000E+00

     total cpu time spent up to now is        4.7 secs

     total energy              =     -78.87495907 Ry
     Harris-Foulkes estimate   =  -11576.05174787 Ry
     estimated scf accuracy    <      42.84700302 Ry

     iteration # 25     ecut=    30.00 Ry     beta=0.70
     Davidson diagonalization with overlap
     ethr =  1.00E-02,  avg # of iterations =  8.0

     negative rho (up, down):  2.529E+00 0.000E+00

     total cpu time spent up to now is        4.8 secs

     total energy              =      99.03091141 Ry
     Harris-Foulkes estimate   =  -16306.26617996 Ry
     estimated scf accuracy    <      37.60770913 Ry

     iteration # 26     ecut=    30.00 Ry     beta=0.70
     Davidson diagonalization with overlap
     ethr =  1.00E-02,  avg # of iterations =  9.0

     negative rho (up, down):  1.186E+00 0.000E+00

     total cpu time spent up to now is        4.8 secs

     total energy              =      81.87252687 Ry
     Harris-Foulkes estimate   =   -1258.64666840 Ry
     estimated scf accuracy    <      22.01693905 Ry

     iteration # 27     ecut=    30.00 Ry     beta=0.70
     Davidson diagonalization with overlap
     ethr =  1.00E-02,  avg # of iterations = 12.0

     negative rho (up, down):  1.298E-01 0.000E+00

     total cpu time spent up to now is        4.9 secs

     total energy              =      12.53315808 Ry
     Harris-Foulkes estimate   =   -6478.01780728 Ry
     estimated scf accuracy    <      27.60188383 Ry

     iteration # 28     ecut=    30.00 Ry     beta=0.70
     Davidson diagonalization with overlap
     ethr =  1.00E-02,  avg # of iterations =  9.0

     negative rho (up, down):  2.174E-01 0.000E+00

     total cpu time spent up to now is        5.0 secs

     total energy              =     116.03512465 Ry
     Harris-Foulkes estimate   =   -9669.03977774 Ry
     estimated scf accuracy    <      19.98085726 Ry

     iteration # 29     ecut=    30.00 Ry     beta=0.70
     Davidson diagonalization with overlap
     ethr =  1.00E-02,  avg # of iterations =  8.0

     negative rho (up, down):  1.408E-01 0.000E+00

     total cpu time spent up to now is        5.0 secs

     total energy              =      17.41666559 Ry
     Harris-Foulkes estimate   =   -1379.13215960 Ry
     estimated scf accuracy    <      26.97312059 Ry

     iteration # 30     ecut=    30.00 Ry     beta=0.70
     Davidson diagonalization with overlap
     ethr =  1.00E-02,  avg # of iterations =  9.0

     negative rho (up, down):  1.162E-01 0.000E+00

     total cpu time spent up to now is        5.1 secs

     total energy              =      81.19701961 Ry
     Harris-Foulkes estimate   =   -1675.64135337 Ry
     estimated scf accuracy    <      22.33815252 Ry

     iteration # 31     ecut=    30.00 Ry     beta=0.70
     Davidson diagonalization with overlap
     ethr =  1.00E-02,  avg # of iterations =  9.0

     negative rho (up, down):  3.323E-02 0.000E+00

     total cpu time spent up to now is        5.1 secs

     total energy              =      10.60715948 Ry
     Harris-Foulkes estimate   =    -258.82626226 Ry
     estimated scf accuracy    <      30.58796644 Ry

     iteration # 32     ecut=    30.00 Ry     beta=0.70
     Davidson diagonalization with overlap
     ethr =  1.00E-02,  avg # of iterations =  7.0

     negative rho (up, down):  4.557E-03 0.000E+00

     total cpu time spent up to now is        5.2 secs

     total energy              =      86.06281122 Ry
     Harris-Foulkes estimate   =   -3717.77165460 Ry
     estimated scf accuracy    <      16.50308926 Ry

     iteration # 33     ecut=    30.00 Ry     beta=0.70
     Davidson diagonalization with overlap
     ethr =  1.00E-02,  avg # of iterations =  6.0

     negative rho (up, down):  5.012E-03 0.000E+00

     total cpu time spent up to now is        5.3 secs

     total energy              =     -70.24197202 Ry
     Harris-Foulkes estimate   =     -74.24961678 Ry
     estimated scf accuracy    <      58.15233126 Ry

     iteration # 34     ecut=    30.00 Ry     beta=0.70
     Davidson diagonalization with overlap
     ethr =  1.00E-02,  avg # of iterations =  4.0

     negative rho (up, down):  7.076E-04 0.000E+00

     total cpu time spent up to now is        5.3 secs

     total energy              =     -21.93227637 Ry
     Harris-Foulkes estimate   =    -215.30805084 Ry
     estimated scf accuracy    <      29.70878988 Ry

     iteration # 35     ecut=    30.00 Ry     beta=0.70
     Davidson diagonalization with overlap
     ethr =  1.00E-02,  avg # of iterations =  5.0

     negative rho (up, down):  6.465E-02 0.000E+00

     total cpu time spent up to now is        5.4 secs

     total energy              =      38.07442840 Ry
     Harris-Foulkes estimate   =     -84.20574294 Ry
     estimated scf accuracy    <      60.33897534 Ry

     iteration # 36     ecut=    30.00 Ry     beta=0.70
     Davidson diagonalization with overlap
     ethr =  1.00E-02,  avg # of iterations =  4.0

     negative rho (up, down):  1.553E-01 0.000E+00

     total cpu time spent up to now is        5.4 secs

     total energy              =     -48.65468540 Ry
     Harris-Foulkes estimate   =    -162.88576414 Ry
     estimated scf accuracy    <      67.31682058 Ry

     iteration # 37     ecut=    30.00 Ry     beta=0.70
     Davidson diagonalization with overlap
     ethr =  1.00E-02,  avg # of iterations =  6.0

     negative rho (up, down):  7.347E-02 0.000E+00

     total cpu time spent up to now is        5.5 secs

     total energy              =     -64.95010935 Ry
     Harris-Foulkes estimate   =    -243.66529892 Ry
     estimated scf accuracy    <      55.47547666 Ry

     iteration # 38     ecut=    30.00 Ry     beta=0.70
     Davidson diagonalization with overlap
     ethr =  1.00E-02,  avg # of iterations =  6.0

     negative rho (up, down):  1.054E-01 0.000E+00

     total cpu time spent up to now is        5.5 secs

     total energy              =     -33.18011955 Ry
     Harris-Foulkes estimate   =    -277.45624928 Ry
     estimated scf accuracy    <      59.88887178 Ry

     iteration # 39     ecut=    30.00 Ry     beta=0.70
     Davidson diagonalization with overlap
     ethr =  1.00E-02,  avg # of iterations = 12.0

     negative rho (up, down):  1.987E-01 0.000E+00

     total cpu time spent up to now is        5.6 secs

     total energy              =      40.69569366 Ry
     Harris-Foulkes estimate   =    -890.63544172 Ry
     estimated scf accuracy    <      31.01117778 Ry

     iteration # 40     ecut=    30.00 Ry     beta=0.70
     Davidson diagonalization with overlap
     ethr =  1.00E-02,  avg # of iterations =  9.0

     negative rho (up, down):  2.677E-01 0.000E+00

     total cpu time spent up to now is        5.6 secs

     total energy              =     -89.57416678 Ry
     Harris-Foulkes estimate   =    -645.13358036 Ry
     estimated scf accuracy    <      49.84858556 Ry

     iteration # 41     ecut=    30.00 Ry     beta=0.70
     Davidson diagonalization with overlap
     ethr =  1.00E-02,  avg # of iterations =  8.0

     negative rho (up, down):  5.491E-01 0.000E+00

     total cpu time spent up to now is        5.7 secs

     total energy              =     314.59409138 Ry
     Harris-Foulkes estimate   =   -2462.67234034 Ry
     estimated scf accuracy    <      53.95021814 Ry

     iteration # 42     ecut=    30.00 Ry     beta=0.70
     Davidson diagonalization with overlap
     ethr =  1.00E-02,  avg # of iterations =  8.0

     negative rho (up, down):  3.635E-01 0.000E+00

     total cpu time spent up to now is        5.8 secs

     total energy              =      38.93767974 Ry
     Harris-Foulkes estimate   =   -1354.56171995 Ry
     estimated scf accuracy    <      24.22798947 Ry

     iteration # 43     ecut=    30.00 Ry     beta=0.70
     Davidson diagonalization with overlap
     ethr =  1.00E-02,  avg # of iterations =  9.0

     negative rho (up, down):  1.663E-01 0.000E+00

     total cpu time spent up to now is        5.8 secs

     total energy              =     -21.80888999 Ry
     Harris-Foulkes estimate   =   -5082.79032409 Ry
     estimated scf accuracy    <      40.49855300 Ry

     iteration # 44     ecut=    30.00 Ry     beta=0.70
     Davidson diagonalization with overlap
     ethr =  1.00E-02,  avg # of iterations =  9.0

     negative rho (up, down):  3.482E-01 0.000E+00

     total cpu time spent up to now is        5.9 secs

     total energy              =      30.09777282 Ry
     Harris-Foulkes estimate   =   -1283.38077649 Ry
     estimated scf accuracy    <      32.64817694 Ry

     iteration # 45     ecut=    30.00 Ry     beta=0.70
     Davidson diagonalization with overlap
     ethr =  1.00E-02,  avg # of iterations =  8.0

     negative rho (up, down):  7.464E-01 0.000E+00

     total cpu time spent up to now is        5.9 secs

     total energy              =      28.51409914 Ry
     Harris-Foulkes estimate   =   -2109.58830712 Ry
     estimated scf accuracy    <      30.78423257 Ry

     iteration # 46     ecut=    30.00 Ry     beta=0.70
     Davidson diagonalization with overlap
     ethr =  1.00E-02,  avg # of iterations =  8.0

     negative rho (up, down):  7.301E-01 0.000E+00

     total cpu time spent up to now is        6.0 secs

     total energy              =      61.03648523 Ry
     Harris-Foulkes estimate   =   -1274.81184336 Ry
     estimated scf accuracy    <      26.29139514 Ry

     iteration # 47     ecut=    30.00 Ry     beta=0.70
     Davidson diagonalization with overlap
     ethr =  1.00E-02,  avg # of iterations =  9.0

     negative rho (up, down):  7.527E-01 0.000E+00

     total cpu time spent up to now is        6.1 secs

     total energy              =      -5.33522492 Ry
     Harris-Foulkes estimate   =    -471.42570534 Ry
     estimated scf accuracy    <      38.98618995 Ry

     iteration # 48     ecut=    30.00 Ry     beta=0.70
     Davidson diagonalization with overlap
     ethr =  1.00E-02,  avg # of iterations =  8.0

     negative rho (up, down):  6.907E-01 0.000E+00

     total cpu time spent up to now is        6.1 secs

     total energy              =    -144.31858704 Ry
     Harris-Foulkes estimate   =   -1087.13443714 Ry
     estimated scf accuracy    <      34.47364096 Ry

     iteration # 49     ecut=    30.00 Ry     beta=0.70
     Davidson diagonalization with overlap
     ethr =  1.00E-02,  avg # of iterations =  7.0

     negative rho (up, down):  3.184E-01 0.000E+00

     total cpu time spent up to now is        6.2 secs

     total energy              =     -26.61248059 Ry
     Harris-Foulkes estimate   =   -7325.12843982 Ry
     estimated scf accuracy    <      20.71900446 Ry

     iteration # 50     ecut=    30.00 Ry     beta=0.70
     Davidson diagonalization with overlap
     ethr =  1.00E-02,  avg # of iterations =  7.0

     negative rho (up, down):  4.374E-01 0.000E+00

     total cpu time spent up to now is        6.2 secs

     total energy              =    -122.68810338 Ry
     Harris-Foulkes estimate   =   -2641.13178089 Ry
     estimated scf accuracy    <      38.14891599 Ry

     iteration # 51     ecut=    30.00 Ry     beta=0.70
     Davidson diagonalization with overlap
     ethr =  1.00E-02,  avg # of iterations =  6.0

     negative rho (up, down):  3.278E-01 0.000E+00

     total cpu time spent up to now is        6.3 secs

     total energy              =     -48.64125108 Ry
     Harris-Foulkes estimate   =   -2697.80280454 Ry
     estimated scf accuracy    <      24.42467574 Ry

     iteration # 52     ecut=    30.00 Ry     beta=0.70
     Davidson diagonalization with overlap
     ethr =  1.00E-02,  avg # of iterations =  8.0

     negative rho (up, down):  1.219E-02 0.000E+00

     total cpu time spent up to now is        6.3 secs

     total energy              =      98.84304395 Ry
     Harris-Foulkes estimate   =  -12178.39399081 Ry
     estimated scf accuracy    <      15.21721647 Ry

     iteration # 53     ecut=    30.00 Ry     beta=0.70
     Davidson diagonalization with overlap
     ethr =  1.00E-02,  avg # of iterations =  8.0

     negative rho (up, down):  2.620E-01 0.000E+00

     total cpu time spent up to now is        6.4 secs

     total energy              =     -34.80474917 Ry
     Harris-Foulkes estimate   =     -56.28547837 Ry
     estimated scf accuracy    <      17.16774146 Ry

     iteration # 54     ecut=    30.00 Ry     beta=0.70
     Davidson diagonalization with overlap
     ethr =  1.00E-02,  avg # of iterations =  6.0

     negative rho (up, down):  2.779E-01 0.000E+00

     total cpu time spent up to now is        6.5 secs

     total energy              =    -380.40662116 Ry
     Harris-Foulkes estimate   =    -730.44433562 Ry
     estimated scf accuracy    <      24.05554717 Ry

     iteration # 55     ecut=    30.00 Ry     beta=0.70
     Davidson diagonalization with overlap
     ethr =  1.00E-02,  avg # of iterations =  7.0

     negative rho (up, down):  3.218E-01 0.000E+00

     total cpu time spent up to now is        6.5 secs

     total energy              =      54.78828220 Ry
     Harris-Foulkes estimate   =   -1140.61311836 Ry
     estimated scf accuracy    <      22.77935381 Ry

     iteration # 56     ecut=    30.00 Ry     beta=0.70
     Davidson diagonalization with overlap
     ethr =  1.00E-02,  avg # of iterations =  8.0

     negative rho (up, down):  2.703E-01 0.000E+00

     total cpu time spent up to now is        6.6 secs

     total energy              =   -1003.76525286 Ry
     Harris-Foulkes estimate   =    -444.77167232 Ry
     estimated scf accuracy    <      26.47276009 Ry

     iteration # 57     ecut=    30.00 Ry     beta=0.70
     Davidson diagonalization with overlap
     ethr =  1.00E-02,  avg # of iterations =  5.0

     negative rho (up, down):  1.252E-01 0.000E+00

     total cpu time spent up to now is        6.6 secs

     total energy              =      80.03849344 Ry
     Harris-Foulkes estimate   =  -14235.68363405 Ry
     estimated scf accuracy    <      20.18310135 Ry

     iteration # 58     ecut=    30.00 Ry     beta=0.70
     Davidson diagonalization with overlap
     ethr =  1.00E-02,  avg # of iterations =  8.0

     negative rho (up, down):  8.843E-02 0.000E+00

     total cpu time spent up to now is        6.7 secs

     total energy              =    -523.56217090 Ry
     Harris-Foulkes estimate   =   -1818.47673973 Ry
     estimated scf accuracy    <      34.87516333 Ry

     iteration # 59     ecut=    30.00 Ry     beta=0.70
     Davidson diagonalization with overlap
     ethr =  1.00E-02,  avg # of iterations =  6.0

     negative rho (up, down):  1.942E-03 0.000E+00

     total cpu time spent up to now is        6.7 secs

     total energy              =     101.14598106 Ry
     Harris-Foulkes estimate   =   -2476.14276031 Ry
     estimated scf accuracy    <      35.27002800 Ry

     iteration # 60     ecut=    30.00 Ry     beta=0.70
     Davidson diagonalization with overlap
     ethr =  1.00E-02,  avg # of iterations =  7.0

     negative rho (up, down):  6.839E-05 0.000E+00

     total cpu time spent up to now is        6.8 secs

     total energy              =     -32.20696470 Ry
     Harris-Foulkes estimate   =     -34.54083897 Ry
     estimated scf accuracy    <      10.08109056 Ry

     iteration # 61     ecut=    30.00 Ry     beta=0.70
     Davidson diagonalization with overlap
     ethr =  1.00E-02,  avg # of iterations =  2.0

     negative rho (up, down):  1.010E-02 0.000E+00

     total cpu time spent up to now is        6.8 secs

     total energy              =     -32.16807410 Ry
     Harris-Foulkes estimate   =     -32.90568620 Ry
     estimated scf accuracy    <       4.32773601 Ry

     iteration # 62     ecut=    30.00 Ry     beta=0.70
     Davidson diagonalization with overlap
     ethr =  1.00E-02,  avg # of iterations =  5.0

     negative rho (up, down):  1.951E-01 0.000E+00

     total cpu time spent up to now is        6.9 secs

     total energy              =    -515.93974990 Ry
     Harris-Foulkes estimate   =     -88.29460147 Ry
     estimated scf accuracy    <      18.87225560 Ry

     iteration # 63     ecut=    30.00 Ry     beta=0.70
     Davidson diagonalization with overlap
     ethr =  1.00E-02,  avg # of iterations =  5.0

     negative rho (up, down):  3.817E-01 0.000E+00

     total cpu time spent up to now is        6.9 secs

     total energy              =      52.66133683 Ry
     Harris-Foulkes estimate   =   -1712.30066211 Ry
     estimated scf accuracy    <      29.91878502 Ry

     iteration # 64     ecut=    30.00 Ry     beta=0.70
     Davidson diagonalization with overlap
     ethr =  1.00E-02,  avg # of iterations =  9.0

     negative rho (up, down):  4.388E-01 0.000E+00

     total cpu time spent up to now is        7.0 secs

     total energy              =    -110.03455906 Ry
     Harris-Foulkes estimate   =    -370.51195049 Ry
     estimated scf accuracy    <      21.30271208 Ry

     iteration # 65     ecut=    30.00 Ry     beta=0.70
     Davidson diagonalization with overlap
     ethr =  1.00E-02,  avg # of iterations =  5.0

     negative rho (up, down):  3.937E-01 0.000E+00

     total cpu time spent up to now is        7.0 secs

     total energy              =   -1835.84996877 Ry
     Harris-Foulkes estimate   =    -652.76355060 Ry
     estimated scf accuracy    <      20.99615955 Ry

     iteration # 66     ecut=    30.00 Ry     beta=0.70
     Davidson diagonalization with overlap
     ethr =  1.00E-02,  avg # of iterations =  5.0

     negative rho (up, down):  4.483E-01 0.000E+00

     total cpu time spent up to now is        7.1 secs

     total energy              =   -1823.58808181 Ry
     Harris-Foulkes estimate   =   -6282.68342295 Ry
     estimated scf accuracy    <      31.54307852 Ry

     iteration # 67     ecut=    30.00 Ry     beta=0.70
     Davidson diagonalization with overlap
     ethr =  1.00E-02,  avg # of iterations =  4.0

     negative rho (up, down):  4.564E-01 0.000E+00

     total cpu time spent up to now is        7.1 secs

     total energy              =  -12489.06832760 Ry
     Harris-Foulkes estimate   =   -5439.51478645 Ry
     estimated scf accuracy    <      39.50583372 Ry

     iteration # 68     ecut=    30.00 Ry     beta=0.70
     Davidson diagonalization with overlap
     ethr =  1.00E-02,  avg # of iterations =  7.0

     negative rho (up, down):  3.012E-02 0.000E+00

     total cpu time spent up to now is        7.2 secs

     total energy              =      85.40027310 Ry
     Harris-Foulkes estimate   =  -35550.56689182 Ry
     estimated scf accuracy    <      28.41073418 Ry

     iteration # 69     ecut=    30.00 Ry     beta=0.70
     Davidson diagonalization with overlap
     ethr =  1.00E-02,  avg # of iterations =  8.0

     negative rho (up, down):  7.745E-02 0.000E+00

     total cpu time spent up to now is        7.2 secs

     total energy              =       4.28127676 Ry
     Harris-Foulkes estimate   =     -94.28257456 Ry
     estimated scf accuracy    <      10.01650509 Ry

     iteration # 70     ecut=    30.00 Ry     beta=0.70
     Davidson diagonalization with overlap
     ethr =  1.00E-02,  avg # of iterations =  4.0

     negative rho (up, down):  2.448E-01 0.000E+00

     total cpu time spent up to now is        7.3 secs

     total energy              =     -50.89611777 Ry
     Harris-Foulkes estimate   =     -38.91764006 Ry
     estimated scf accuracy    <       4.06391298 Ry

     iteration # 71     ecut=    30.00 Ry     beta=0.70
     Davidson diagonalization with overlap
     ethr =  1.00E-02,  avg # of iterations =  5.0

     negative rho (up, down):  3.045E-01 0.000E+00

     total cpu time spent up to now is        7.3 secs

     total energy              =      14.97910149 Ry
     Harris-Foulkes estimate   =    -656.03958702 Ry
     estimated scf accuracy    <      39.39784404 Ry

     iteration # 72     ecut=    30.00 Ry     beta=0.70
     Davidson diagonalization with overlap
     ethr =  1.00E-02,  avg # of iterations =  6.0

     negative rho (up, down):  3.106E-01 0.000E+00

     total cpu time spent up to now is        7.4 secs

     total energy              =      -6.29074194 Ry
     Harris-Foulkes estimate   =   -5208.40914835 Ry
     estimated scf accuracy    <      36.47541249 Ry

     iteration # 73     ecut=    30.00 Ry     beta=0.70
     Davidson diagonalization with overlap
     ethr =  1.00E-02,  avg # of iterations =  4.0

     negative rho (up, down):  3.223E-01 0.000E+00

     total cpu time spent up to now is        7.4 secs

     total energy              =      87.60518176 Ry
     Harris-Foulkes estimate   =   -2323.40635380 Ry
     estimated scf accuracy    <      42.83227662 Ry

     iteration # 74     ecut=    30.00 Ry     beta=0.70
     Davidson diagonalization with overlap
     ethr =  1.00E-02,  avg # of iterations =  8.0

     negative rho (up, down):  3.465E-01 0.000E+00

     total cpu time spent up to now is        7.5 secs

     total energy              =    -376.40573984 Ry
     Harris-Foulkes estimate   =     -48.43719721 Ry
     estimated scf accuracy    <      12.19090441 Ry

     iteration # 75     ecut=    30.00 Ry     beta=0.70
     Davidson diagonalization with overlap
     ethr =  1.00E-02,  avg # of iterations =  5.0

     negative rho (up, down):  3.604E-01 0.000E+00

     total cpu time spent up to now is        7.5 secs

     total energy              =    -113.89218021 Ry
     Harris-Foulkes estimate   =   -1657.71740313 Ry
     estimated scf accuracy    <      29.56589873 Ry

     iteration # 76     ecut=    30.00 Ry     beta=0.70
     Davidson diagonalization with overlap
     ethr =  1.00E-02,  avg # of iterations =  5.0

     negative rho (up, down):  5.364E-01 0.000E+00

     total cpu time spent up to now is        7.6 secs

     total energy              =      51.80695438 Ry
     Harris-Foulkes estimate   =   -1576.20633303 Ry
     estimated scf accuracy    <      31.08770977 Ry

     iteration # 77     ecut=    30.00 Ry     beta=0.70
     Davidson diagonalization with overlap
     ethr =  1.00E-02,  avg # of iterations =  7.0

     negative rho (up, down):  5.828E-01 0.000E+00

     total cpu time spent up to now is        7.7 secs

     total energy              =    -512.30152339 Ry
     Harris-Foulkes estimate   =   -1232.11816884 Ry
     estimated scf accuracy    <      42.59801126 Ry

     iteration # 78     ecut=    30.00 Ry     beta=0.70
     Davidson diagonalization with overlap
     ethr =  1.00E-02,  avg # of iterations =  6.0

     negative rho (up, down):  6.117E-01 0.000E+00

     total cpu time spent up to now is        7.7 secs

     total energy              =   -1919.39135930 Ry
     Harris-Foulkes estimate   =   -1087.51689034 Ry
     estimated scf accuracy    <      37.91090712 Ry

     iteration # 79     ecut=    30.00 Ry     beta=0.70
     Davidson diagonalization with overlap
     ethr =  1.00E-02,  avg # of iterations =  5.0

     negative rho (up, down):  1.107E+00 0.000E+00

     total cpu time spent up to now is        7.8 secs

     total energy              =       9.37164070 Ry
     Harris-Foulkes estimate   =   -6319.90446315 Ry
     estimated scf accuracy    <      44.76476405 Ry

     iteration # 80     ecut=    30.00 Ry     beta=0.70
     Davidson diagonalization with overlap
     ethr =  1.00E-02,  avg # of iterations = 10.0

     negative rho (up, down):  4.396E-01 0.000E+00

     total cpu time spent up to now is        7.8 secs

     total energy              =     103.45285576 Ry
     Harris-Foulkes estimate   =  -19104.59233736 Ry
     estimated scf accuracy    <      27.90315100 Ry

     iteration # 81     ecut=    30.00 Ry     beta=0.70
     Davidson diagonalization with overlap
     ethr =  1.00E-02,  avg # of iterations =  8.0

     negative rho (up, down):  6.577E-01 0.000E+00

     total cpu time spent up to now is        7.9 secs

     total energy              =       1.19226864 Ry
     Harris-Foulkes estimate   =    -810.82406644 Ry
     estimated scf accuracy    <      15.28619870 Ry

     iteration # 82     ecut=    30.00 Ry     beta=0.70
     Davidson diagonalization with overlap
     ethr =  1.00E-02,  avg # of iterations =  7.0

     negative rho (up, down):  6.296E-01 0.000E+00

     total cpu time spent up to now is        8.0 secs

     total energy              =      86.10817085 Ry
     Harris-Foulkes estimate   =    -532.93277112 Ry
     estimated scf accuracy    <      29.66882642 Ry

     iteration # 83     ecut=    30.00 Ry     beta=0.70
     Davidson diagonalization with overlap
     ethr =  1.00E-02,  avg # of iterations =  8.0

     negative rho (up, down):  4.366E-01 0.000E+00

     total cpu time spent up to now is        8.0 secs

     total energy              =     -55.24049540 Ry
     Harris-Foulkes estimate   =    -741.18520837 Ry
     estimated scf accuracy    <      39.05892830 Ry

     iteration # 84     ecut=    30.00 Ry     beta=0.70
     Davidson diagonalization with overlap
     ethr =  1.00E-02,  avg # of iterations =  8.0

     negative rho (up, down):  4.655E-01 0.000E+00

     total cpu time spent up to now is        8.1 secs

     total energy              =      96.69716107 Ry
     Harris-Foulkes estimate   =   -2607.95058828 Ry
     estimated scf accuracy    <      24.82544467 Ry

     iteration # 85     ecut=    30.00 Ry     beta=0.70
     Davidson diagonalization with overlap
     ethr =  1.00E-02,  avg # of iterations =  8.0

     negative rho (up, down):  4.853E-01 0.000E+00

     total cpu time spent up to now is        8.2 secs

     total energy              =      64.79330052 Ry
     Harris-Foulkes estimate   =   -2392.41822255 Ry
     estimated scf accuracy    <      23.91800437 Ry

     iteration # 86     ecut=    30.00 Ry     beta=0.70
     Davidson diagonalization with overlap
     ethr =  1.00E-02,  avg # of iterations =  8.0

     negative rho (up, down):  3.528E-01 0.000E+00

     total cpu time spent up to now is        8.2 secs

     total energy              =      23.74823797 Ry
     Harris-Foulkes estimate   =   -1277.10988946 Ry
     estimated scf accuracy    <      22.96886301 Ry

     iteration # 87     ecut=    30.00 Ry     beta=0.70
     Davidson diagonalization with overlap
     ethr =  1.00E-02,  avg # of iterations = 10.0

     negative rho (up, down):  2.653E-01 0.000E+00

     total cpu time spent up to now is        8.3 secs

     total energy              =      45.61305419 Ry
     Harris-Foulkes estimate   =   -1763.33142815 Ry
     estimated scf accuracy    <      16.89649207 Ry

     iteration # 88     ecut=    30.00 Ry     beta=0.70
     Davidson diagonalization with overlap
     ethr =  1.00E-02,  avg # of iterations =  4.0

     negative rho (up, down):  1.705E-01 0.000E+00

     total cpu time spent up to now is        8.3 secs

     total energy              =     -63.41367148 Ry
     Harris-Foulkes estimate   =    -672.69723635 Ry
     estimated scf accuracy    <      16.14735363 Ry

     iteration # 89     ecut=    30.00 Ry     beta=0.70
     Davidson diagonalization with overlap
     ethr =  1.00E-02,  avg # of iterations =  5.0

     negative rho (up, down):  1.863E-01 0.000E+00

     total cpu time spent up to now is        8.4 secs

     total energy              =      56.07065553 Ry
     Harris-Foulkes estimate   =   -1013.98428907 Ry
     estimated scf accuracy    <      33.20397500 Ry

     iteration # 90     ecut=    30.00 Ry     beta=0.70
     Davidson diagonalization with overlap
     ethr =  1.00E-02,  avg # of iterations = 14.0

     negative rho (up, down):  2.776E-01 0.000E+00

     total cpu time spent up to now is        8.4 secs

     total energy              =    -854.67326798 Ry
     Harris-Foulkes estimate   =   -2571.68030938 Ry
     estimated scf accuracy    <      21.94151503 Ry

     iteration # 91     ecut=    30.00 Ry     beta=0.70
     Davidson diagonalization with overlap
     ethr =  1.00E-02,  avg # of iterations =  4.0

     negative rho (up, down):  4.459E-01 0.000E+00

     total cpu time spent up to now is        8.5 secs

     total energy              =    -266.33543789 Ry
     Harris-Foulkes estimate   =   -3184.97433925 Ry
     estimated scf accuracy    <      19.29982357 Ry

     iteration # 92     ecut=    30.00 Ry     beta=0.70
     Davidson diagonalization with overlap
     ethr =  1.00E-02,  avg # of iterations =  8.0

     negative rho (up, down):  9.819E-02 0.000E+00

     total cpu time spent up to now is        8.5 secs

     total energy              =     119.32607733 Ry
     Harris-Foulkes estimate   =    -949.90064572 Ry
     estimated scf accuracy    <      29.34256522 Ry

     iteration # 93     ecut=    30.00 Ry     beta=0.70
     Davidson diagonalization with overlap
     ethr =  1.00E-02,  avg # of iterations =  6.0

     negative rho (up, down):  2.527E-01 0.000E+00

     total cpu time spent up to now is        8.6 secs

     total energy              =     -63.00210430 Ry
     Harris-Foulkes estimate   =    -141.58400793 Ry
     estimated scf accuracy    <      24.31078062 Ry

     iteration # 94     ecut=    30.00 Ry     beta=0.70
     Davidson diagonalization with overlap
     ethr =  1.00E-02,  avg # of iterations =  7.0

     negative rho (up, down):  4.606E-01 0.000E+00

     total cpu time spent up to now is        8.6 secs

     total energy              =    -125.92886400 Ry
     Harris-Foulkes estimate   =   -1402.33067518 Ry
     estimated scf accuracy    <      31.38751360 Ry

     iteration # 95     ecut=    30.00 Ry     beta=0.70
     Davidson diagonalization with overlap
     ethr =  1.00E-02,  avg # of iterations = 11.0

     negative rho (up, down):  4.902E-01 0.000E+00

     total cpu time spent up to now is        8.7 secs

     total energy              =   -1569.97904198 Ry
     Harris-Foulkes estimate   =   -1427.00411397 Ry
     estimated scf accuracy    <      31.45591161 Ry

     iteration # 96     ecut=    30.00 Ry     beta=0.70
     Davidson diagonalization with overlap
     ethr =  1.00E-02,  avg # of iterations =  5.0

     negative rho (up, down):  5.284E-01 0.000E+00

     total cpu time spent up to now is        8.8 secs

     total energy              =    -940.56312776 Ry
     Harris-Foulkes estimate   =   -4660.42803776 Ry
     estimated scf accuracy    <      34.89830837 Ry

     iteration # 97     ecut=    30.00 Ry     beta=0.70
     Davidson diagonalization with overlap
     ethr =  1.00E-02,  avg # of iterations =  8.0

     negative rho (up, down):  6.142E-01 0.000E+00

     total cpu time spent up to now is        8.8 secs

     total energy              =    -556.99711549 Ry
     Harris-Foulkes estimate   =   -3408.44092182 Ry
     estimated scf accuracy    <      28.89745098 Ry

     iteration # 98     ecut=    30.00 Ry     beta=0.70
     Davidson diagonalization with overlap
     ethr =  1.00E-02,  avg # of iterations =  8.0

     negative rho (up, down):  3.929E-01 0.000E+00

     total cpu time spent up to now is        8.9 secs

     total energy              =     105.43092095 Ry
     Harris-Foulkes estimate   =   -9363.58322290 Ry
     estimated scf accuracy    <      22.98214282 Ry

     iteration # 99     ecut=    30.00 Ry     beta=0.70
     Davidson diagonalization with overlap
     ethr =  1.00E-02,  avg # of iterations = 10.0

     negative rho (up, down):  3.855E-01 0.000E+00

     total cpu time spent up to now is        8.9 secs

     total energy              =      37.57904714 Ry
     Harris-Foulkes estimate   =   -1038.72899623 Ry
     estimated scf accuracy    <      26.30645400 Ry

     iteration #100     ecut=    30.00 Ry     beta=0.70
     Davidson diagonalization with overlap
     ethr =  1.00E-02,  avg # of iterations =  8.0

     negative rho (up, down):  4.768E-01 0.000E+00

     total cpu time spent up to now is        9.0 secs

     total energy              =      43.81633216 Ry
     Harris-Foulkes estimate   =   -2351.00687155 Ry
     estimated scf accuracy    <      31.90281388 Ry

     End of self-consistent calculation

     convergence NOT achieved after 100 iterations: stopping

     Writing output data file pwscf.save
 
     init_run     :      0.09s CPU      0.11s WALL (       1 calls)
     electrons    :      6.67s CPU      8.06s WALL (       3 calls)
     update_pot   :      0.18s CPU      0.31s WALL (       2 calls)
     forces       :      0.05s CPU      0.06s WALL (       2 calls)

     Called by init_run:
     wfcinit      :      0.01s CPU      0.02s WALL (       1 calls)
     potinit      :      0.02s CPU      0.03s WALL (       1 calls)

     Called by electrons:
     c_bands      :      3.44s CPU      3.60s WALL (     150 calls)
     sum_band     :      0.45s CPU      0.47s WALL (     150 calls)
     v_of_rho     :      1.17s CPU      1.26s WALL (     153 calls)
     mix_rho      :      1.24s CPU      2.04s WALL (     150 calls)

     Called by c_bands:
     init_us_2    :      0.01s CPU      0.02s WALL (     301 calls)
     cegterg      :      3.41s CPU      3.53s WALL (     150 calls)

     Called by sum_band:

     Called by *egterg:
     h_psi        :      2.85s CPU      2.94s WALL (     993 calls)
     g_psi        :      0.03s CPU      0.03s WALL (     842 calls)
     cdiaghg      :      0.21s CPU      0.22s WALL (     990 calls)

     Called by h_psi:
     h_psi:pot    :      2.83s CPU      2.92s WALL (     993 calls)
     h_psi:calbec :      0.05s CPU      0.06s WALL (     993 calls)
     vloc_psi     :      2.77s CPU      2.85s WALL (     993 calls)
     add_vuspsi   :      0.01s CPU      0.01s WALL (     993 calls)

     General routines
     calbec       :      0.05s CPU      0.07s WALL (    1002 calls)
     fft          :      0.71s CPU      0.78s WALL (    1687 calls)
     fftw         :      2.80s CPU      2.89s WALL (   12266 calls)
     davcio       :      0.17s CPU      0.69s WALL (    2746 calls)
 
     Parallel routines
     fft_scatter  :      1.30s CPU      1.41s WALL (   13953 calls)
 
     PWSCF        :     7.14s CPU         9.14s WALL

 
   This run was terminated on:   7:48:50  14Feb2018            

=------------------------------------------------------------------------------=
   JOB DONE.
=------------------------------------------------------------------------------=
