
     Program PWSCF v.6.0 (svn rev. 13079) starts on 14Feb2018 at  7:49:59 

     This program is part of the open-source Quantum ESPRESSO suite
     for quantum simulation of materials; please cite
         "P. Giannozzi et al., J. Phys.:Condens. Matter 21 395502 (2009);
          URL http://www.quantum-espresso.org", 
     in publications or presentations arising from this work. More details at
     http://www.quantum-espresso.org/quote

     Parallel version (MPI), running on    28 processors
     R & G space division:  proc/nbgrp/npool/nimage =      28
     Reading input from inputs/MD-H2O-2/211.in

     Current dimensions of program PWSCF are:
     Max number of different atomic species (ntypx) = 10
     Max number of k-points (npk) =  40000
     Max angular momentum in pseudopotentials (lmaxx) =  3

     Subspace diagonalization in iterative solution of the eigenvalue problem:
     a serial algorithm will be used

 
     Parallelization info
     --------------------
     sticks:   dense  smooth     PW     G-vecs:    dense   smooth      PW
     Min         136     136     33                 6338     6338     787
     Max         137     137     34                 6341     6341     792
     Sum        3809    3809    949               177509   177509   22119
 


     bravais-lattice index     =            1
     lattice parameter (alat)  =      20.0000  a.u.
     unit-cell volume          =    8000.0000 (a.u.)^3
     number of atoms/cell      =            3
     number of atomic types    =            2
     number of electrons       =         8.00
     number of Kohn-Sham states=            8
     kinetic-energy cutoff     =      30.0000  Ry
     charge density cutoff     =     120.0000  Ry
     convergence threshold     =      1.0E-08
     mixing beta               =       0.7000
     number of iterations used =            8  plain     mixing
     Exchange-correlation      = BLYP ( 1  3  1  3 0 0)
     nstep                     =         5000


     celldm(1)=  20.000000  celldm(2)=   0.000000  celldm(3)=   0.000000
     celldm(4)=   0.000000  celldm(5)=   0.000000  celldm(6)=   0.000000

     crystal axes: (cart. coord. in units of alat)
               a(1) = (   1.000000   0.000000   0.000000 )  
               a(2) = (   0.000000   1.000000   0.000000 )  
               a(3) = (   0.000000   0.000000   1.000000 )  

     reciprocal axes: (cart. coord. in units 2 pi/alat)
               b(1) = (  1.000000  0.000000  0.000000 )  
               b(2) = (  0.000000  1.000000  0.000000 )  
               b(3) = (  0.000000  0.000000  1.000000 )  


     PseudoPot. # 1 for  H read from file:
     ./H.blyp-hgh.UPF
     MD5 check sum: c576e69559cde411e611be972c763230
     Pseudo is Norm-conserving, Zval =  1.0
     Generated in analytical, separable form
     Using radial grid of  929 points,  0 beta functions with: 

     PseudoPot. # 2 for  O read from file:
     ./O.blyp-hgh.UPF
     MD5 check sum: d0b7156309aa9befef28faac7bc56342
     Pseudo is Norm-conserving, Zval =  6.0
     Generated in analytical, separable form
     Using radial grid of 1095 points,  1 beta functions with: 
                l(1) =   0

     atomic species   valence    mass     pseudopotential
        H              1.00     1.01000      H( 1.00)
        O              6.00    16.00000      O( 1.00)

     No symmetry found



   Cartesian axes

     site n.     atom                  positions (alat units)
         1           H   tau(   1) = (   0.6179956   1.0241458   0.6117963  )
         2           H   tau(   2) = (   0.6142844   1.0251834   0.6161484  )
         3           O   tau(   3) = (   0.6805785  -0.0463299   0.6863130  )

     number of k points=     1  Marzari-Vanderbilt smearing, width (Ry)=  0.0250
                       cart. coord. in units 2pi/alat
        k(    1) = (   0.0000000   0.0000000   0.0000000), wk =   2.0000000

     Dense  grid:   177509 G-vectors     FFT dimensions: (  72,  72,  72)

     Estimated max dynamical RAM per process >       6.09Mb

     Estimated total allocated dynamical RAM >     170.64Mb

     Initial potential from superposition of free atoms
     Check: negative starting charge=   -0.358673

     starting charge    7.99998, renormalised to    8.00000

     negative rho (up, down):  3.587E-01 0.000E+00
     Starting wfc are    6 randomized atomic wfcs +    2 random wfc

     total cpu time spent up to now is        0.3 secs

     per-process dynamical memory:    18.8 Mb

     Self-consistent Calculation

     iteration #  1     ecut=    30.00 Ry     beta=0.70
     Davidson diagonalization with overlap
     ethr =  1.00E-02,  avg # of iterations =  8.0

     negative rho (up, down):  9.883E-02 0.000E+00

     total cpu time spent up to now is        0.3 secs

     total energy              =     -17.36888088 Ry
     Harris-Foulkes estimate   =     -18.28801490 Ry
     estimated scf accuracy    <       1.23121434 Ry

     iteration #  2     ecut=    30.00 Ry     beta=0.70
     Davidson diagonalization with overlap
     ethr =  1.00E-02,  avg # of iterations =  2.0

     negative rho (up, down):  5.316E-02 0.000E+00

     total cpu time spent up to now is        0.4 secs

     total energy              =     -17.59262424 Ry
     Harris-Foulkes estimate   =     -17.83688197 Ry
     estimated scf accuracy    <       0.47486082 Ry

     iteration #  3     ecut=    30.00 Ry     beta=0.70
     Davidson diagonalization with overlap
     ethr =  5.94E-03,  avg # of iterations =  2.0

     negative rho (up, down):  2.540E-03 0.000E+00

     total cpu time spent up to now is        0.4 secs

     total energy              =     -17.76098318 Ry
     Harris-Foulkes estimate   =     -17.72733319 Ry
     estimated scf accuracy    <       0.03055782 Ry

     iteration #  4     ecut=    30.00 Ry     beta=0.70
     Davidson diagonalization with overlap
     ethr =  3.82E-04,  avg # of iterations =  3.0

     negative rho (up, down):  1.212E-03 0.000E+00

     total cpu time spent up to now is        0.4 secs

     total energy              =     -17.76675830 Ry
     Harris-Foulkes estimate   =     -17.76618508 Ry
     estimated scf accuracy    <       0.00046094 Ry

     iteration #  5     ecut=    30.00 Ry     beta=0.70
     Davidson diagonalization with overlap
     ethr =  5.76E-06,  avg # of iterations = 15.0

     negative rho (up, down):  2.036E-05 0.000E+00

     total cpu time spent up to now is        0.5 secs

     total energy              =     -17.76708835 Ry
     Harris-Foulkes estimate   =     -17.76699640 Ry
     estimated scf accuracy    <       0.00006295 Ry

     iteration #  6     ecut=    30.00 Ry     beta=0.70
     Davidson diagonalization with overlap
     ethr =  7.87E-07,  avg # of iterations =  9.0

     negative rho (up, down):  1.095E-06 0.000E+00

     total cpu time spent up to now is        0.5 secs

     total energy              =     -17.76710356 Ry
     Harris-Foulkes estimate   =     -17.76710279 Ry
     estimated scf accuracy    <       0.00000306 Ry

     iteration #  7     ecut=    30.00 Ry     beta=0.70
     Davidson diagonalization with overlap
     ethr =  3.82E-08,  avg # of iterations =  1.0

     total cpu time spent up to now is        0.5 secs

     total energy              =     -17.76710443 Ry
     Harris-Foulkes estimate   =     -17.76710403 Ry
     estimated scf accuracy    <       0.00000033 Ry

     iteration #  8     ecut=    30.00 Ry     beta=0.70
     Davidson diagonalization with overlap
     ethr =  4.14E-09,  avg # of iterations =  1.0

     total cpu time spent up to now is        0.6 secs

     total energy              =     -17.76710464 Ry
     Harris-Foulkes estimate   =     -17.76710448 Ry
     estimated scf accuracy    <       0.00000001 Ry

     iteration #  9     ecut=    30.00 Ry     beta=0.70
     Davidson diagonalization with overlap
     ethr =  1.54E-10,  avg # of iterations =  3.0

     total cpu time spent up to now is        0.6 secs

     End of self-consistent calculation

          k = 0.0000 0.0000 0.0000 ( 22119 PWs)   bands (ev):

   -26.4092 -18.1252  -7.3796  -7.3778  -5.3255  -0.2628   0.9031   1.0348

     the Fermi energy is    -7.0654 ev

!    total energy              =     -17.76710463 Ry
     Harris-Foulkes estimate   =     -17.76710465 Ry
     estimated scf accuracy    <          3.8E-09 Ry

     convergence has been achieved in   9 iterations

     Forces acting on atoms (Ry/au):

     atom    1 type  1   force =    94.18243801  -26.34006196 -110.42527538
     atom    2 type  1   force =   -94.16272994   26.31938465  110.44604012
     atom    3 type  2   force =    -0.01970807    0.02067731   -0.02076473

     Total force =   208.603765     Total SCF correction =     0.000075

     Molecular Dynamics Calculation

     Starting temperature  =  1000.00 K

     temperature is controlled by Andersen thermostat
     Collision frequency = 1.0000/timestep
     mass H                =     1.01
     mass O                =    16.00
     Time step             =   100.00 a.u.,  4.8378 femto-seconds

     Entering Dynamics:    iteration =     1
                           time      =   0.0048 pico-seconds


     Andersen thermostat:    3 collisions

ATOMIC_POSITIONS (bohr)
H      524.141899114-122.306175625-587.735345345
H     -499.151164582 163.686005306 612.019999680
O       13.589783446  -0.951421634  13.743571442


     kinetic energy (Ekin) =     0.01319564 Ry
     temperature           =   694.47456190 K 
     Ekin + Etot (const)   =   -17.75390899 Ry

     Linear momentum :   -0.0000000000    0.0000000000   -0.0000000000

     Writing output data file pwscf.save
     Check: negative starting charge=   -0.358673
     NEW-OLD atomic charge density approx. for the potential
     Check: negative starting charge=   -0.347246

     negative rho (up, down):  4.853E-01 0.000E+00

     total cpu time spent up to now is        1.0 secs

     per-process dynamical memory:    20.4 Mb

     Self-consistent Calculation

     iteration #  1     ecut=    30.00 Ry     beta=0.70
     Davidson diagonalization with overlap
     ethr =  1.00E-06,  avg # of iterations = 11.0

     negative rho (up, down):  2.579E-02 0.000E+00

     total cpu time spent up to now is        1.1 secs

     total energy              =       2.91531498 Ry
     Harris-Foulkes estimate   =     -46.90842602 Ry
     estimated scf accuracy    <      12.88551943 Ry

     iteration #  2     ecut=    30.00 Ry     beta=0.70
     Davidson diagonalization with overlap
     ethr =  1.00E-02,  avg # of iterations =  4.0

     negative rho (up, down):  1.556E-02 0.000E+00

     total cpu time spent up to now is        1.2 secs

     total energy              =     -32.91121712 Ry
     Harris-Foulkes estimate   =     -37.92606612 Ry
     estimated scf accuracy    <       9.97430618 Ry

     iteration #  3     ecut=    30.00 Ry     beta=0.70
     Davidson diagonalization with overlap
     ethr =  1.00E-02,  avg # of iterations =  2.0

     negative rho (up, down):  1.404E-02 0.000E+00

     total cpu time spent up to now is        1.2 secs

     total energy              =     -32.76945181 Ry
     Harris-Foulkes estimate   =     -34.28797576 Ry
     estimated scf accuracy    <       8.03769641 Ry

     iteration #  4     ecut=    30.00 Ry     beta=0.70
     Davidson diagonalization with overlap
     ethr =  1.00E-02,  avg # of iterations =  1.0

     negative rho (up, down):  1.290E-02 0.000E+00

     total cpu time spent up to now is        1.3 secs

     total energy              =     -32.79206906 Ry
     Harris-Foulkes estimate   =     -33.27594642 Ry
     estimated scf accuracy    <       3.68655150 Ry

     iteration #  5     ecut=    30.00 Ry     beta=0.70
     Davidson diagonalization with overlap
     ethr =  1.00E-02,  avg # of iterations =  1.0

     negative rho (up, down):  9.195E-03 0.000E+00

     total cpu time spent up to now is        1.3 secs

     total energy              =     -31.99842924 Ry
     Harris-Foulkes estimate   =     -32.86833673 Ry
     estimated scf accuracy    <       3.93235188 Ry

     iteration #  6     ecut=    30.00 Ry     beta=0.70
     Davidson diagonalization with overlap
     ethr =  1.00E-02,  avg # of iterations =  1.0

     negative rho (up, down):  5.863E-03 0.000E+00

     total cpu time spent up to now is        1.3 secs

     total energy              =     -31.63254748 Ry
     Harris-Foulkes estimate   =     -32.26280593 Ry
     estimated scf accuracy    <       3.68585178 Ry

     iteration #  7     ecut=    30.00 Ry     beta=0.70
     Davidson diagonalization with overlap
     ethr =  1.00E-02,  avg # of iterations =  1.0

     negative rho (up, down):  4.939E-03 0.000E+00

     total cpu time spent up to now is        1.4 secs

     total energy              =     -31.76377130 Ry
     Harris-Foulkes estimate   =     -31.89190978 Ry
     estimated scf accuracy    <       4.76181615 Ry

     iteration #  8     ecut=    30.00 Ry     beta=0.70
     Davidson diagonalization with overlap
     ethr =  1.00E-02,  avg # of iterations =  1.0

     negative rho (up, down):  2.934E-04 0.000E+00

     total cpu time spent up to now is        1.4 secs

     total energy              =     -31.36711602 Ry
     Harris-Foulkes estimate   =     -31.76926252 Ry
     estimated scf accuracy    <       2.92213336 Ry

     iteration #  9     ecut=    30.00 Ry     beta=0.70
     Davidson diagonalization with overlap
     ethr =  1.00E-02,  avg # of iterations =  1.0

     negative rho (up, down):  1.083E-04 0.000E+00

     total cpu time spent up to now is        1.4 secs

     total energy              =     -31.51896557 Ry
     Harris-Foulkes estimate   =     -31.52653122 Ry
     estimated scf accuracy    <       1.71529314 Ry

     iteration # 10     ecut=    30.00 Ry     beta=0.70
     Davidson diagonalization with overlap
     ethr =  1.00E-02,  avg # of iterations =  1.0

     negative rho (up, down):  4.401E-07 0.000E+00

     total cpu time spent up to now is        1.5 secs

     total energy              =     -31.48833414 Ry
     Harris-Foulkes estimate   =     -31.52111288 Ry
     estimated scf accuracy    <       1.24229520 Ry

     iteration # 11     ecut=    30.00 Ry     beta=0.70
     Davidson diagonalization with overlap
     ethr =  1.00E-02,  avg # of iterations =  1.0

     negative rho (up, down):  2.729E-07 0.000E+00

     total cpu time spent up to now is        1.5 secs

     total energy              =     -31.49255764 Ry
     Harris-Foulkes estimate   =     -31.49862105 Ry
     estimated scf accuracy    <       0.10075420 Ry

     iteration # 12     ecut=    30.00 Ry     beta=0.70
     Davidson diagonalization with overlap
     ethr =  1.26E-03,  avg # of iterations =  1.0

     negative rho (up, down):  1.006E-07 0.000E+00

     total cpu time spent up to now is        1.5 secs

     total energy              =     -31.49463694 Ry
     Harris-Foulkes estimate   =     -31.49840582 Ry
     estimated scf accuracy    <       0.20588146 Ry

     iteration # 13     ecut=    30.00 Ry     beta=0.70
     Davidson diagonalization with overlap
     ethr =  1.26E-03,  avg # of iterations =  1.0

     total cpu time spent up to now is        1.6 secs

     total energy              =     -31.49314177 Ry
     Harris-Foulkes estimate   =     -31.49723959 Ry
     estimated scf accuracy    <       0.05074481 Ry

     iteration # 14     ecut=    30.00 Ry     beta=0.70
     Davidson diagonalization with overlap
     ethr =  6.34E-04,  avg # of iterations =  1.0

     negative rho (up, down):  2.328E-08 0.000E+00

     total cpu time spent up to now is        1.6 secs

     total energy              =     -31.49588266 Ry
     Harris-Foulkes estimate   =     -31.50202338 Ry
     estimated scf accuracy    <       0.47465162 Ry

     iteration # 15     ecut=    30.00 Ry     beta=0.70
     Davidson diagonalization with overlap
     ethr =  6.34E-04,  avg # of iterations =  1.0

     negative rho (up, down):  2.716E-08 0.000E+00

     total cpu time spent up to now is        1.6 secs

     total energy              =     -31.49429398 Ry
     Harris-Foulkes estimate   =     -31.49728575 Ry
     estimated scf accuracy    <       0.12572791 Ry

     iteration # 16     ecut=    30.00 Ry     beta=0.70
     Davidson diagonalization with overlap
     ethr =  6.34E-04,  avg # of iterations =  1.0

     total cpu time spent up to now is        1.7 secs

     total energy              =     -31.49544403 Ry
     Harris-Foulkes estimate   =     -31.49558284 Ry
     estimated scf accuracy    <       0.00227728 Ry

     iteration # 17     ecut=    30.00 Ry     beta=0.70
     Davidson diagonalization with overlap
     ethr =  2.85E-05,  avg # of iterations = 16.0

     total cpu time spent up to now is        1.7 secs

     total energy              =     -31.49547283 Ry
     Harris-Foulkes estimate   =     -31.49558374 Ry
     estimated scf accuracy    <       0.00377714 Ry

     iteration # 18     ecut=    30.00 Ry     beta=0.70
     Davidson diagonalization with overlap
     ethr =  2.85E-05,  avg # of iterations =  1.0

     total cpu time spent up to now is        1.8 secs

     total energy              =     -31.49552682 Ry
     Harris-Foulkes estimate   =     -31.49552845 Ry
     estimated scf accuracy    <       0.00001732 Ry

     iteration # 19     ecut=    30.00 Ry     beta=0.70
     Davidson diagonalization with overlap
     ethr =  2.17E-07,  avg # of iterations =  1.0

     total cpu time spent up to now is        1.8 secs

     total energy              =     -31.49552730 Ry
     Harris-Foulkes estimate   =     -31.49552766 Ry
     estimated scf accuracy    <       0.00000481 Ry

     iteration # 20     ecut=    30.00 Ry     beta=0.70
     Davidson diagonalization with overlap
     ethr =  6.01E-08,  avg # of iterations =  1.0

     total cpu time spent up to now is        1.8 secs

     total energy              =     -31.49552745 Ry
     Harris-Foulkes estimate   =     -31.49552748 Ry
     estimated scf accuracy    <       0.00000124 Ry

     iteration # 21     ecut=    30.00 Ry     beta=0.70
     Davidson diagonalization with overlap
     ethr =  1.55E-08,  avg # of iterations =  1.0

     total cpu time spent up to now is        1.9 secs

     total energy              =     -31.49552749 Ry
     Harris-Foulkes estimate   =     -31.49552747 Ry
     estimated scf accuracy    <       0.00000016 Ry

     iteration # 22     ecut=    30.00 Ry     beta=0.70
     Davidson diagonalization with overlap
     ethr =  2.05E-09,  avg # of iterations =  1.0

     total cpu time spent up to now is        1.9 secs

     End of self-consistent calculation

          k = 0.0000 0.0000 0.0000 ( 22119 PWs)   bands (ev):

   -23.6778  -7.1142  -7.0880  -7.0873  -7.0794  -6.8330  -0.2064   0.7265

     the Fermi energy is    -6.9534 ev

!    total energy              =     -31.49552751 Ry
     Harris-Foulkes estimate   =     -31.49552750 Ry
     estimated scf accuracy    <          8.2E-10 Ry

     convergence has been achieved in  22 iterations

     Forces acting on atoms (Ry/au):

     atom    1 type  1   force =    -0.00304819    0.00617917   -0.00030459
     atom    2 type  1   force =     0.00299979   -0.00600398    0.00031779
     atom    3 type  2   force =     0.00004840   -0.00017519   -0.00001320

     Total force =     0.009631     Total SCF correction =     0.000009

     Entering Dynamics:    iteration =     2
                           time      =   0.0097 pico-seconds


     Andersen thermostat:    3 collisions

ATOMIC_POSITIONS (bohr)
H      524.161200408-122.062901634-587.593523449
H     -499.055321483 163.466933566 612.199693024
O       13.582514956  -0.952949401  13.723275792


     kinetic energy (Ekin) =     0.00962676 Ry
     temperature           =   506.64762973 K 
     Ekin + Etot (const)   =   -31.48590075 Ry
     Message from routine dynamics:
     Total linear momentum <> 0

     Linear momentum :   -0.0482643422    0.4839037204    0.0463385468

     Writing output data file pwscf.save

     first order wave-functions extrapolation
     Message from extrapolate_wfcs: 
     the matrix <psi(t-dt)|psi(t)> has  2 small (< 0.1) eigenvalues
     Check: negative starting charge=   -0.347246
     first order charge density extrapolation
     Check: negative starting charge=   -0.347659

     negative rho (up, down):  5.264E-01 0.000E+00

     total cpu time spent up to now is        2.2 secs

     per-process dynamical memory:    20.4 Mb

     Self-consistent Calculation

     iteration #  1     ecut=    30.00 Ry     beta=0.70
     Davidson diagonalization with overlap
     c_bands:  1 eigenvalues not converged
     ethr =  1.00E-06,  avg # of iterations = 20.0

     negative rho (up, down):  4.125E-02 0.000E+00

     total cpu time spent up to now is        2.4 secs

     total energy              =     122.58953426 Ry
     Harris-Foulkes estimate   =    -253.97339844 Ry
     estimated scf accuracy    <      53.15442480 Ry

     iteration #  2     ecut=    30.00 Ry     beta=0.70
     Davidson diagonalization with overlap
     ethr =  1.00E-02,  avg # of iterations = 10.0

     negative rho (up, down):  2.517E-02 0.000E+00

     total cpu time spent up to now is        2.5 secs

     total energy              =     -36.72143897 Ry
     Harris-Foulkes estimate   =     -58.42693037 Ry
     estimated scf accuracy    <      41.29430921 Ry

     iteration #  3     ecut=    30.00 Ry     beta=0.70
     Davidson diagonalization with overlap
     ethr =  1.00E-02,  avg # of iterations =  5.0

     negative rho (up, down):  2.116E-02 0.000E+00

     total cpu time spent up to now is        2.5 secs

     total energy              =     -35.98040336 Ry
     Harris-Foulkes estimate   =     -40.10165386 Ry
     estimated scf accuracy    <      15.20743283 Ry

     iteration #  4     ecut=    30.00 Ry     beta=0.70
     Davidson diagonalization with overlap
     ethr =  1.00E-02,  avg # of iterations =  3.0

     negative rho (up, down):  1.365E-02 0.000E+00

     total cpu time spent up to now is        2.6 secs

     total energy              =     -33.40050884 Ry
     Harris-Foulkes estimate   =     -37.27137348 Ry
     estimated scf accuracy    <      12.44066400 Ry

     iteration #  5     ecut=    30.00 Ry     beta=0.70
     Davidson diagonalization with overlap
     ethr =  1.00E-02,  avg # of iterations =  4.0

     negative rho (up, down):  1.342E-02 0.000E+00

     total cpu time spent up to now is        2.6 secs

     total energy              =      -5.44568841 Ry
     Harris-Foulkes estimate   =    -158.32389645 Ry
     estimated scf accuracy    <      10.34991066 Ry

     iteration #  6     ecut=    30.00 Ry     beta=0.70
     Davidson diagonalization with overlap
     ethr =  1.00E-02,  avg # of iterations =  4.0

     negative rho (up, down):  1.350E-02 0.000E+00

     total cpu time spent up to now is        2.6 secs

     total energy              =     -32.74135135 Ry
     Harris-Foulkes estimate   =     -33.86345279 Ry
     estimated scf accuracy    <       6.93868929 Ry

     iteration #  7     ecut=    30.00 Ry     beta=0.70
     Davidson diagonalization with overlap
     ethr =  1.00E-02,  avg # of iterations =  3.0

     negative rho (up, down):  1.493E-02 0.000E+00

     total cpu time spent up to now is        2.7 secs

     total energy              =     -20.29034347 Ry
     Harris-Foulkes estimate   =     -93.46198919 Ry
     estimated scf accuracy    <       6.55301655 Ry

     iteration #  8     ecut=    30.00 Ry     beta=0.70
     Davidson diagonalization with overlap
     ethr =  1.00E-02,  avg # of iterations =  3.0

     negative rho (up, down):  2.174E-02 0.000E+00

     total cpu time spent up to now is        2.7 secs

     total energy              =     -35.45831235 Ry
     Harris-Foulkes estimate   =     -34.31202903 Ry
     estimated scf accuracy    <       3.89503330 Ry

     iteration #  9     ecut=    30.00 Ry     beta=0.70
     Davidson diagonalization with overlap
     ethr =  1.00E-02,  avg # of iterations =  3.0

     negative rho (up, down):  3.762E-02 0.000E+00

     total cpu time spent up to now is        2.7 secs

     total energy              =     -37.76678222 Ry
     Harris-Foulkes estimate   =     -39.86095218 Ry
     estimated scf accuracy    <       5.54138032 Ry

     iteration # 10     ecut=    30.00 Ry     beta=0.70
     Davidson diagonalization with overlap
     ethr =  1.00E-02,  avg # of iterations =  3.0

     negative rho (up, down):  7.948E-02 0.000E+00

     total cpu time spent up to now is        2.8 secs

     total energy              =    -155.83866374 Ry
     Harris-Foulkes estimate   =     -55.43252136 Ry
     estimated scf accuracy    <       7.25809490 Ry

     iteration # 11     ecut=    30.00 Ry     beta=0.70
     Davidson diagonalization with overlap
     ethr =  1.00E-02,  avg # of iterations =  4.0

     negative rho (up, down):  8.671E-02 0.000E+00

     total cpu time spent up to now is        2.8 secs

     total energy              =    -125.34112926 Ry
     Harris-Foulkes estimate   =    -500.80869253 Ry
     estimated scf accuracy    <      31.67417458 Ry

     iteration # 12     ecut=    30.00 Ry     beta=0.70
     Davidson diagonalization with overlap
     ethr =  1.00E-02,  avg # of iterations =  5.0

     negative rho (up, down):  2.285E-01 0.000E+00

     total cpu time spent up to now is        2.9 secs

     total energy              =   -1259.30363023 Ry
     Harris-Foulkes estimate   =    -338.11266661 Ry
     estimated scf accuracy    <      58.30399268 Ry

     iteration # 13     ecut=    30.00 Ry     beta=0.70
     Davidson diagonalization with overlap
     ethr =  1.00E-02,  avg # of iterations =  4.0

     negative rho (up, down):  1.952E-01 0.000E+00

     total cpu time spent up to now is        2.9 secs

     total energy              =      51.11087048 Ry
     Harris-Foulkes estimate   =   -5182.38362359 Ry
     estimated scf accuracy    <      45.78366385 Ry

     iteration # 14     ecut=    30.00 Ry     beta=0.70
     Davidson diagonalization with overlap
     ethr =  1.00E-02,  avg # of iterations =  8.0

     negative rho (up, down):  2.205E-01 0.000E+00

     total cpu time spent up to now is        3.0 secs

     total energy              =      -5.95544834 Ry
     Harris-Foulkes estimate   =    -201.09219889 Ry
     estimated scf accuracy    <      12.82381282 Ry

     iteration # 15     ecut=    30.00 Ry     beta=0.70
     Davidson diagonalization with overlap
     ethr =  1.00E-02,  avg # of iterations =  6.0

     negative rho (up, down):  4.694E-01 0.000E+00

     total cpu time spent up to now is        3.0 secs

     total energy              =     -91.94231371 Ry
     Harris-Foulkes estimate   =     -81.80850222 Ry
     estimated scf accuracy    <      13.68601758 Ry

     iteration # 16     ecut=    30.00 Ry     beta=0.70
     Davidson diagonalization with overlap
     ethr =  1.00E-02,  avg # of iterations =  7.0

     negative rho (up, down):  6.132E-01 0.000E+00

     total cpu time spent up to now is        3.1 secs

     total energy              =    -852.51876737 Ry
     Harris-Foulkes estimate   =    -478.79565041 Ry
     estimated scf accuracy    <      42.18130548 Ry

     iteration # 17     ecut=    30.00 Ry     beta=0.70
     Davidson diagonalization with overlap
     ethr =  1.00E-02,  avg # of iterations =  6.0

     negative rho (up, down):  7.605E-01 0.000E+00

     total cpu time spent up to now is        3.1 secs

     total energy              =    -541.26371046 Ry
     Harris-Foulkes estimate   =   -5865.15132708 Ry
     estimated scf accuracy    <      39.34364718 Ry

     iteration # 18     ecut=    30.00 Ry     beta=0.70
     Davidson diagonalization with overlap
     ethr =  1.00E-02,  avg # of iterations =  7.0

     negative rho (up, down):  8.223E-01 0.000E+00

     total cpu time spent up to now is        3.2 secs

     total energy              =      53.67434880 Ry
     Harris-Foulkes estimate   =   -1896.50586357 Ry
     estimated scf accuracy    <      43.61198312 Ry

     iteration # 19     ecut=    30.00 Ry     beta=0.70
     Davidson diagonalization with overlap
     ethr =  1.00E-02,  avg # of iterations =  7.0

     negative rho (up, down):  1.035E+00 0.000E+00

     total cpu time spent up to now is        3.2 secs

     total energy              =  -19039.49402241 Ry
     Harris-Foulkes estimate   =   -5240.05528778 Ry
     estimated scf accuracy    <      43.91843585 Ry

     iteration # 20     ecut=    30.00 Ry     beta=0.70
     Davidson diagonalization with overlap
     ethr =  1.00E-02,  avg # of iterations =  6.0

     negative rho (up, down):  8.500E-01 0.000E+00

     total cpu time spent up to now is        3.3 secs

     total energy              =      36.17068822 Ry
     Harris-Foulkes estimate   = -113058.02037569 Ry
     estimated scf accuracy    <      35.71090012 Ry

     iteration # 21     ecut=    30.00 Ry     beta=0.70
     Davidson diagonalization with overlap
     ethr =  1.00E-02,  avg # of iterations =  8.0

     negative rho (up, down):  7.669E-01 0.000E+00

     total cpu time spent up to now is        3.3 secs

     total energy              =     -86.01401184 Ry
     Harris-Foulkes estimate   =    -865.17184656 Ry
     estimated scf accuracy    <      35.93275884 Ry

     iteration # 22     ecut=    30.00 Ry     beta=0.70
     Davidson diagonalization with overlap
     ethr =  1.00E-02,  avg # of iterations =  6.0

     negative rho (up, down):  9.173E-01 0.000E+00

     total cpu time spent up to now is        3.4 secs

     total energy              =      57.57770489 Ry
     Harris-Foulkes estimate   =   -1051.92344187 Ry
     estimated scf accuracy    <      30.08175532 Ry

     iteration # 23     ecut=    30.00 Ry     beta=0.70
     Davidson diagonalization with overlap
     ethr =  1.00E-02,  avg # of iterations =  8.0

     negative rho (up, down):  1.060E+00 0.000E+00

     total cpu time spent up to now is        3.4 secs

     total energy              =   -6722.56012776 Ry
     Harris-Foulkes estimate   =   -1042.11664800 Ry
     estimated scf accuracy    <      31.80050432 Ry

     iteration # 24     ecut=    30.00 Ry     beta=0.70
     Davidson diagonalization with overlap
     ethr =  1.00E-02,  avg # of iterations =  6.0

     negative rho (up, down):  1.077E+00 0.000E+00

     total cpu time spent up to now is        3.5 secs

     total energy              =      27.70177256 Ry
     Harris-Foulkes estimate   =  -24680.02810397 Ry
     estimated scf accuracy    <      20.74799713 Ry

     iteration # 25     ecut=    30.00 Ry     beta=0.70
     Davidson diagonalization with overlap
     ethr =  1.00E-02,  avg # of iterations =  7.0

     negative rho (up, down):  9.136E-02 0.000E+00

     total cpu time spent up to now is        3.5 secs

     total energy              =      20.93345192 Ry
     Harris-Foulkes estimate   =   -8796.70828718 Ry
     estimated scf accuracy    <      26.07920247 Ry

     iteration # 26     ecut=    30.00 Ry     beta=0.70
     Davidson diagonalization with overlap
     ethr =  1.00E-02,  avg # of iterations = 11.0

     negative rho (up, down):  3.154E-02 0.000E+00

     total cpu time spent up to now is        3.6 secs

     total energy              =     116.01868641 Ry
     Harris-Foulkes estimate   =   -1089.75422780 Ry
     estimated scf accuracy    <      18.26939813 Ry

     iteration # 27     ecut=    30.00 Ry     beta=0.70
     Davidson diagonalization with overlap
     ethr =  1.00E-02,  avg # of iterations =  8.0

     negative rho (up, down):  2.174E-02 0.000E+00

     total cpu time spent up to now is        3.7 secs

     total energy              =      55.08885167 Ry
     Harris-Foulkes estimate   =    -153.31694169 Ry
     estimated scf accuracy    <      17.65342330 Ry

     iteration # 28     ecut=    30.00 Ry     beta=0.70
     Davidson diagonalization with overlap
     ethr =  1.00E-02,  avg # of iterations =  8.0

     negative rho (up, down):  2.124E-07 0.000E+00

     total cpu time spent up to now is        3.7 secs

     total energy              =      -5.98548833 Ry
     Harris-Foulkes estimate   =    -608.66818979 Ry
     estimated scf accuracy    <      28.27034698 Ry

     iteration # 29     ecut=    30.00 Ry     beta=0.70
     Davidson diagonalization with overlap
     ethr =  1.00E-02,  avg # of iterations =  5.0

     total cpu time spent up to now is        3.8 secs

     total energy              =     -43.63324416 Ry
     Harris-Foulkes estimate   =     -48.53949244 Ry
     estimated scf accuracy    <      28.42748942 Ry

     iteration # 30     ecut=    30.00 Ry     beta=0.70
     Davidson diagonalization with overlap
     ethr =  1.00E-02,  avg # of iterations =  1.0

     negative rho (up, down):  8.026E-03 0.000E+00

     total cpu time spent up to now is        3.8 secs

     total energy              =     -42.98903620 Ry
     Harris-Foulkes estimate   =     -44.06336404 Ry
     estimated scf accuracy    <      18.37309645 Ry

     iteration # 31     ecut=    30.00 Ry     beta=0.70
     Davidson diagonalization with overlap
     ethr =  1.00E-02,  avg # of iterations =  2.0

     negative rho (up, down):  8.067E-02 0.000E+00

     total cpu time spent up to now is        3.8 secs

     total energy              =     -44.66267164 Ry
     Harris-Foulkes estimate   =     -43.69333384 Ry
     estimated scf accuracy    <      20.63795220 Ry

     iteration # 32     ecut=    30.00 Ry     beta=0.70
     Davidson diagonalization with overlap
     ethr =  1.00E-02,  avg # of iterations =  6.0

     negative rho (up, down):  5.364E-02 0.000E+00

     total cpu time spent up to now is        3.9 secs

     total energy              =    -112.31556512 Ry
     Harris-Foulkes estimate   =    -461.41217503 Ry
     estimated scf accuracy    <       8.21017199 Ry

     iteration # 33     ecut=    30.00 Ry     beta=0.70
     Davidson diagonalization with overlap
     ethr =  1.00E-02,  avg # of iterations =  5.0

     negative rho (up, down):  3.549E-01 0.000E+00

     total cpu time spent up to now is        3.9 secs

     total energy              =    -215.22636464 Ry
     Harris-Foulkes estimate   =    -340.99222038 Ry
     estimated scf accuracy    <       9.48056106 Ry

     iteration # 34     ecut=    30.00 Ry     beta=0.70
     Davidson diagonalization with overlap
     ethr =  1.00E-02,  avg # of iterations =  6.0

     negative rho (up, down):  3.004E-01 0.000E+00

     total cpu time spent up to now is        4.0 secs

     total energy              =      57.01838707 Ry
     Harris-Foulkes estimate   =   -4691.74278039 Ry
     estimated scf accuracy    <      33.36877352 Ry

     iteration # 35     ecut=    30.00 Ry     beta=0.70
     Davidson diagonalization with overlap
     ethr =  1.00E-02,  avg # of iterations =  7.0

     negative rho (up, down):  3.597E-01 0.000E+00

     total cpu time spent up to now is        4.0 secs

     total energy              =      41.87735137 Ry
     Harris-Foulkes estimate   =   -1881.05045658 Ry
     estimated scf accuracy    <      43.49559431 Ry

     iteration # 36     ecut=    30.00 Ry     beta=0.70
     Davidson diagonalization with overlap
     ethr =  1.00E-02,  avg # of iterations =  5.0

     negative rho (up, down):  1.354E-01 0.000E+00

     total cpu time spent up to now is        4.1 secs

     total energy              =      74.43532681 Ry
     Harris-Foulkes estimate   =   -6435.65565032 Ry
     estimated scf accuracy    <      33.56238147 Ry

     iteration # 37     ecut=    30.00 Ry     beta=0.70
     Davidson diagonalization with overlap
     ethr =  1.00E-02,  avg # of iterations =  7.0

     total cpu time spent up to now is        4.1 secs

     total energy              =      60.45121280 Ry
     Harris-Foulkes estimate   =    -241.96033285 Ry
     estimated scf accuracy    <      19.09628765 Ry

     iteration # 38     ecut=    30.00 Ry     beta=0.70
     Davidson diagonalization with overlap
     ethr =  1.00E-02,  avg # of iterations =  6.0

     negative rho (up, down):  6.440E-08 0.000E+00

     total cpu time spent up to now is        4.2 secs

     total energy              =     -36.08622163 Ry
     Harris-Foulkes estimate   =     -37.56880813 Ry
     estimated scf accuracy    <      10.38874823 Ry

     iteration # 39     ecut=    30.00 Ry     beta=0.70
     Davidson diagonalization with overlap
     ethr =  1.00E-02,  avg # of iterations =  1.0

     negative rho (up, down):  3.612E-05 0.000E+00

     total cpu time spent up to now is        4.2 secs

     total energy              =     -34.80498275 Ry
     Harris-Foulkes estimate   =     -36.16440338 Ry
     estimated scf accuracy    <       7.45051067 Ry

     iteration # 40     ecut=    30.00 Ry     beta=0.70
     Davidson diagonalization with overlap
     ethr =  1.00E-02,  avg # of iterations =  1.0

     negative rho (up, down):  1.806E-04 0.000E+00

     total cpu time spent up to now is        4.2 secs

     total energy              =     -33.86167351 Ry
     Harris-Foulkes estimate   =     -35.25750005 Ry
     estimated scf accuracy    <       6.87182448 Ry

     iteration # 41     ecut=    30.00 Ry     beta=0.70
     Davidson diagonalization with overlap
     ethr =  1.00E-02,  avg # of iterations =  1.0

     negative rho (up, down):  3.551E-03 0.000E+00

     total cpu time spent up to now is        4.3 secs

     total energy              =     -31.69591182 Ry
     Harris-Foulkes estimate   =     -33.92322340 Ry
     estimated scf accuracy    <       5.00791817 Ry

     iteration # 42     ecut=    30.00 Ry     beta=0.70
     Davidson diagonalization with overlap
     ethr =  1.00E-02,  avg # of iterations =  5.0

     negative rho (up, down):  6.784E-03 0.000E+00

     total cpu time spent up to now is        4.3 secs

     total energy              =     -41.47130121 Ry
     Harris-Foulkes estimate   =     -34.38453638 Ry
     estimated scf accuracy    <       3.17479931 Ry

     iteration # 43     ecut=    30.00 Ry     beta=0.70
     Davidson diagonalization with overlap
     ethr =  1.00E-02,  avg # of iterations =  3.0

     negative rho (up, down):  9.358E-02 0.000E+00

     total cpu time spent up to now is        4.4 secs

     total energy              =    -267.65032954 Ry
     Harris-Foulkes estimate   =     -82.59359609 Ry
     estimated scf accuracy    <      22.42656882 Ry

     iteration # 44     ecut=    30.00 Ry     beta=0.70
     Davidson diagonalization with overlap
     ethr =  1.00E-02,  avg # of iterations =  5.0

     negative rho (up, down):  2.005E-01 0.000E+00

     total cpu time spent up to now is        4.4 secs

     total energy              =     110.07649241 Ry
     Harris-Foulkes estimate   =    -919.24553965 Ry
     estimated scf accuracy    <      58.59669863 Ry

     iteration # 45     ecut=    30.00 Ry     beta=0.70
     Davidson diagonalization with overlap
     ethr =  1.00E-02,  avg # of iterations =  7.0

     negative rho (up, down):  3.505E-01 0.000E+00

     total cpu time spent up to now is        4.5 secs

     total energy              =       2.99472121 Ry
     Harris-Foulkes estimate   =    -164.35925403 Ry
     estimated scf accuracy    <      50.81254968 Ry

     iteration # 46     ecut=    30.00 Ry     beta=0.70
     Davidson diagonalization with overlap
     ethr =  1.00E-02,  avg # of iterations =  6.0

     negative rho (up, down):  3.686E-01 0.000E+00

     total cpu time spent up to now is        4.5 secs

     total energy              =      30.53200432 Ry
     Harris-Foulkes estimate   =    -204.19285185 Ry
     estimated scf accuracy    <      51.64204379 Ry

     iteration # 47     ecut=    30.00 Ry     beta=0.70
     Davidson diagonalization with overlap
     ethr =  1.00E-02,  avg # of iterations =  4.0

     negative rho (up, down):  5.460E-02 0.000E+00

     total cpu time spent up to now is        4.6 secs

     total energy              =     -77.82041693 Ry
     Harris-Foulkes estimate   =    -226.47208057 Ry
     estimated scf accuracy    <      49.99840230 Ry

     iteration # 48     ecut=    30.00 Ry     beta=0.70
     Davidson diagonalization with overlap
     ethr =  1.00E-02,  avg # of iterations =  9.0

     negative rho (up, down):  1.927E-01 0.000E+00

     total cpu time spent up to now is        4.6 secs

     total energy              =    -133.23664756 Ry
     Harris-Foulkes estimate   =    -528.84984992 Ry
     estimated scf accuracy    <      20.84036489 Ry

     iteration # 49     ecut=    30.00 Ry     beta=0.70
     Davidson diagonalization with overlap
     ethr =  1.00E-02,  avg # of iterations =  5.0

     negative rho (up, down):  1.423E-01 0.000E+00

     total cpu time spent up to now is        4.7 secs

     total energy              =     -98.73199870 Ry
     Harris-Foulkes estimate   =   -4406.08859311 Ry
     estimated scf accuracy    <      36.78890844 Ry

     iteration # 50     ecut=    30.00 Ry     beta=0.70
     Davidson diagonalization with overlap
     ethr =  1.00E-02,  avg # of iterations =  5.0

     negative rho (up, down):  6.254E-01 0.000E+00

     total cpu time spent up to now is        4.7 secs

     total energy              =   -1148.31766251 Ry
     Harris-Foulkes estimate   =    -824.99403696 Ry
     estimated scf accuracy    <      39.45613071 Ry

     iteration # 51     ecut=    30.00 Ry     beta=0.70
     Davidson diagonalization with overlap
     ethr =  1.00E-02,  avg # of iterations =  8.0

     negative rho (up, down):  1.781E+00 0.000E+00

     total cpu time spent up to now is        4.8 secs

     total energy              =      -6.01772762 Ry
     Harris-Foulkes estimate   =  -18243.42929944 Ry
     estimated scf accuracy    <      42.95823454 Ry

     iteration # 52     ecut=    30.00 Ry     beta=0.70
     Davidson diagonalization with overlap
     ethr =  1.00E-02,  avg # of iterations =  8.0

     negative rho (up, down):  2.049E+00 0.000E+00

     total cpu time spent up to now is        4.8 secs

     total energy              =    -241.65038477 Ry
     Harris-Foulkes estimate   =   -2650.37627089 Ry
     estimated scf accuracy    <      28.97924739 Ry

     iteration # 53     ecut=    30.00 Ry     beta=0.70
     Davidson diagonalization with overlap
     ethr =  1.00E-02,  avg # of iterations =  6.0

     negative rho (up, down):  1.929E+00 0.000E+00

     total cpu time spent up to now is        4.9 secs

     total energy              =     -70.95816626 Ry
     Harris-Foulkes estimate   =   -9712.14938340 Ry
     estimated scf accuracy    <      25.30894754 Ry

     iteration # 54     ecut=    30.00 Ry     beta=0.70
     Davidson diagonalization with overlap
     ethr =  1.00E-02,  avg # of iterations =  7.0

     negative rho (up, down):  1.509E+00 0.000E+00

     total cpu time spent up to now is        5.0 secs

     total energy              =      44.56214216 Ry
     Harris-Foulkes estimate   =   -6774.22416532 Ry
     estimated scf accuracy    <      29.08664854 Ry

     iteration # 55     ecut=    30.00 Ry     beta=0.70
     Davidson diagonalization with overlap
     ethr =  1.00E-02,  avg # of iterations =  7.0

     negative rho (up, down):  1.327E+00 0.000E+00

     total cpu time spent up to now is        5.0 secs

     total energy              =     -15.53061045 Ry
     Harris-Foulkes estimate   =  -57947.08076393 Ry
     estimated scf accuracy    <      22.74327691 Ry

     iteration # 56     ecut=    30.00 Ry     beta=0.70
     Davidson diagonalization with overlap
     ethr =  1.00E-02,  avg # of iterations =  8.0

     negative rho (up, down):  9.491E-01 0.000E+00

     total cpu time spent up to now is        5.1 secs

     total energy              =    -218.17523876 Ry
     Harris-Foulkes estimate   =   -2251.69603047 Ry
     estimated scf accuracy    <      23.56873455 Ry

     iteration # 57     ecut=    30.00 Ry     beta=0.70
     Davidson diagonalization with overlap
     ethr =  1.00E-02,  avg # of iterations =  7.0

     negative rho (up, down):  4.796E-01 0.000E+00

     total cpu time spent up to now is        5.1 secs

     total energy              =    1975.31148356 Ry
     Harris-Foulkes estimate   =   -2635.71914235 Ry
     estimated scf accuracy    <      20.90566833 Ry

     iteration # 58     ecut=    30.00 Ry     beta=0.70
     Davidson diagonalization with overlap
     ethr =  1.00E-02,  avg # of iterations =  9.0

     negative rho (up, down):  4.928E-01 0.000E+00

     total cpu time spent up to now is        5.2 secs

     total energy              =      80.72912070 Ry
     Harris-Foulkes estimate   =   -1058.44449743 Ry
     estimated scf accuracy    <      15.99535335 Ry

     iteration # 59     ecut=    30.00 Ry     beta=0.70
     Davidson diagonalization with overlap
     ethr =  1.00E-02,  avg # of iterations =  5.0

     negative rho (up, down):  2.526E-01 0.000E+00

     total cpu time spent up to now is        5.2 secs

     total energy              =      71.25453622 Ry
     Harris-Foulkes estimate   =   -2484.94209058 Ry
     estimated scf accuracy    <      29.90955971 Ry

     iteration # 60     ecut=    30.00 Ry     beta=0.70
     Davidson diagonalization with overlap
     ethr =  1.00E-02,  avg # of iterations =  9.0

     negative rho (up, down):  5.212E-03 0.000E+00

     total cpu time spent up to now is        5.3 secs

     total energy              =      74.17347014 Ry
     Harris-Foulkes estimate   =    -330.74274715 Ry
     estimated scf accuracy    <      17.46918146 Ry

     iteration # 61     ecut=    30.00 Ry     beta=0.70
     Davidson diagonalization with overlap
     ethr =  1.00E-02,  avg # of iterations = 10.0

     negative rho (up, down):  4.879E-03 0.000E+00

     total cpu time spent up to now is        5.3 secs

     total energy              =      26.82751692 Ry
     Harris-Foulkes estimate   =    -187.43461081 Ry
     estimated scf accuracy    <      19.89915508 Ry

     iteration # 62     ecut=    30.00 Ry     beta=0.70
     Davidson diagonalization with overlap
     ethr =  1.00E-02,  avg # of iterations =  8.0

     negative rho (up, down):  1.080E-04 0.000E+00

     total cpu time spent up to now is        5.4 secs

     total energy              =     -13.95300154 Ry
     Harris-Foulkes estimate   =     -64.85265470 Ry
     estimated scf accuracy    <      20.99252533 Ry

     iteration # 63     ecut=    30.00 Ry     beta=0.70
     Davidson diagonalization with overlap
     ethr =  1.00E-02,  avg # of iterations =  5.0

     negative rho (up, down):  1.081E-03 0.000E+00

     total cpu time spent up to now is        5.4 secs

     total energy              =     -48.19890931 Ry
     Harris-Foulkes estimate   =     -48.68672203 Ry
     estimated scf accuracy    <      29.04373795 Ry

     iteration # 64     ecut=    30.00 Ry     beta=0.70
     Davidson diagonalization with overlap
     ethr =  1.00E-02,  avg # of iterations =  1.0

     negative rho (up, down):  1.787E-02 0.000E+00

     total cpu time spent up to now is        5.5 secs

     total energy              =     -48.61565369 Ry
     Harris-Foulkes estimate   =     -48.22197110 Ry
     estimated scf accuracy    <      28.54475177 Ry

     iteration # 65     ecut=    30.00 Ry     beta=0.70
     Davidson diagonalization with overlap
     ethr =  1.00E-02,  avg # of iterations =  5.0

     negative rho (up, down):  5.173E-02 0.000E+00

     total cpu time spent up to now is        5.5 secs

     total energy              =    -114.01632907 Ry
     Harris-Foulkes estimate   =    -360.51160000 Ry
     estimated scf accuracy    <      15.61396375 Ry

     iteration # 66     ecut=    30.00 Ry     beta=0.70
     Davidson diagonalization with overlap
     ethr =  1.00E-02,  avg # of iterations =  6.0

     negative rho (up, down):  7.640E-02 0.000E+00

     total cpu time spent up to now is        5.6 secs

     total energy              =      17.05437626 Ry
     Harris-Foulkes estimate   =   -1512.86948960 Ry
     estimated scf accuracy    <      31.71775077 Ry

     iteration # 67     ecut=    30.00 Ry     beta=0.70
     Davidson diagonalization with overlap
     ethr =  1.00E-02,  avg # of iterations =  5.0

     negative rho (up, down):  9.080E-02 0.000E+00

     total cpu time spent up to now is        5.7 secs

     total energy              =      36.30139612 Ry
     Harris-Foulkes estimate   =   -2364.19591424 Ry
     estimated scf accuracy    <      17.25311496 Ry

     iteration # 68     ecut=    30.00 Ry     beta=0.70
     Davidson diagonalization with overlap
     ethr =  1.00E-02,  avg # of iterations =  7.0

     negative rho (up, down):  4.727E-02 0.000E+00

     total cpu time spent up to now is        5.7 secs

     total energy              =      30.49520040 Ry
     Harris-Foulkes estimate   =    -258.59785931 Ry
     estimated scf accuracy    <      23.22554331 Ry

     iteration # 69     ecut=    30.00 Ry     beta=0.70
     Davidson diagonalization with overlap
     ethr =  1.00E-02,  avg # of iterations =  9.0

     negative rho (up, down):  1.707E-02 0.000E+00

     total cpu time spent up to now is        5.8 secs

     total energy              =      86.34344381 Ry
     Harris-Foulkes estimate   =   -4585.58150121 Ry
     estimated scf accuracy    <      16.99689107 Ry

     iteration # 70     ecut=    30.00 Ry     beta=0.70
     Davidson diagonalization with overlap
     ethr =  1.00E-02,  avg # of iterations =  8.0

     negative rho (up, down):  7.360E-03 0.000E+00

     total cpu time spent up to now is        5.9 secs

     total energy              =     -34.84511617 Ry
     Harris-Foulkes estimate   =     -63.19121068 Ry
     estimated scf accuracy    <      32.65119920 Ry

     iteration # 71     ecut=    30.00 Ry     beta=0.70
     Davidson diagonalization with overlap
     ethr =  1.00E-02,  avg # of iterations =  6.0

     negative rho (up, down):  2.226E-02 0.000E+00

     total cpu time spent up to now is        5.9 secs

     total energy              =     -30.00654521 Ry
     Harris-Foulkes estimate   =     -56.94280959 Ry
     estimated scf accuracy    <      25.55846917 Ry

     iteration # 72     ecut=    30.00 Ry     beta=0.70
     Davidson diagonalization with overlap
     ethr =  1.00E-02,  avg # of iterations =  6.0

     negative rho (up, down):  4.676E-03 0.000E+00

     total cpu time spent up to now is        6.0 secs

     total energy              =      26.51694009 Ry
     Harris-Foulkes estimate   =    -131.26773544 Ry
     estimated scf accuracy    <      28.15399655 Ry

     iteration # 73     ecut=    30.00 Ry     beta=0.70
     Davidson diagonalization with overlap
     ethr =  1.00E-02,  avg # of iterations =  7.0

     negative rho (up, down):  5.128E-02 0.000E+00

     total cpu time spent up to now is        6.0 secs

     total energy              =    -237.98473649 Ry
     Harris-Foulkes estimate   =     -61.66464330 Ry
     estimated scf accuracy    <      20.66369407 Ry

     iteration # 74     ecut=    30.00 Ry     beta=0.70
     Davidson diagonalization with overlap
     ethr =  1.00E-02,  avg # of iterations =  5.0

     negative rho (up, down):  1.200E-01 0.000E+00

     total cpu time spent up to now is        6.1 secs

     total energy              =      18.07046857 Ry
     Harris-Foulkes estimate   =   -3859.19389174 Ry
     estimated scf accuracy    <      31.27602249 Ry

     iteration # 75     ecut=    30.00 Ry     beta=0.70
     Davidson diagonalization with overlap
     ethr =  1.00E-02,  avg # of iterations =  7.0

     negative rho (up, down):  1.256E-01 0.000E+00

     total cpu time spent up to now is        6.1 secs

     total energy              =      40.60184584 Ry
     Harris-Foulkes estimate   =    -205.51354199 Ry
     estimated scf accuracy    <      52.17882815 Ry

     iteration # 76     ecut=    30.00 Ry     beta=0.70
     Davidson diagonalization with overlap
     ethr =  1.00E-02,  avg # of iterations = 12.0

     negative rho (up, down):  2.102E-01 0.000E+00

     total cpu time spent up to now is        6.2 secs

     total energy              =     -89.23626515 Ry
     Harris-Foulkes estimate   =     -56.38131276 Ry
     estimated scf accuracy    <      23.24206185 Ry

     iteration # 77     ecut=    30.00 Ry     beta=0.70
     Davidson diagonalization with overlap
     ethr =  1.00E-02,  avg # of iterations =  9.0

     negative rho (up, down):  1.220E-01 0.000E+00

     total cpu time spent up to now is        6.3 secs

     total energy              =    -266.49986573 Ry
     Harris-Foulkes estimate   =    -902.00139456 Ry
     estimated scf accuracy    <      17.98843540 Ry

     iteration # 78     ecut=    30.00 Ry     beta=0.70
     Davidson diagonalization with overlap
     ethr =  1.00E-02,  avg # of iterations =  7.0

     negative rho (up, down):  2.972E-01 0.000E+00

     total cpu time spent up to now is        6.3 secs

     total energy              =      12.27276449 Ry
     Harris-Foulkes estimate   =  -15193.92924003 Ry
     estimated scf accuracy    <      38.78593633 Ry

     iteration # 79     ecut=    30.00 Ry     beta=0.70
     Davidson diagonalization with overlap
     ethr =  1.00E-02,  avg # of iterations =  8.0

     negative rho (up, down):  4.866E-01 0.000E+00

     total cpu time spent up to now is        6.4 secs

     total energy              =   -1610.97469887 Ry
     Harris-Foulkes estimate   =    -582.51464872 Ry
     estimated scf accuracy    <      21.15337688 Ry

     iteration # 80     ecut=    30.00 Ry     beta=0.70
     Davidson diagonalization with overlap
     ethr =  1.00E-02,  avg # of iterations =  8.0

     negative rho (up, down):  5.324E-01 0.000E+00

     total cpu time spent up to now is        6.4 secs

     total energy              =   -1366.37646174 Ry
     Harris-Foulkes estimate   =   -8811.38753615 Ry
     estimated scf accuracy    <      26.84034749 Ry

     iteration # 81     ecut=    30.00 Ry     beta=0.70
     Davidson diagonalization with overlap
     ethr =  1.00E-02,  avg # of iterations =  7.0

     negative rho (up, down):  6.120E-01 0.000E+00

     total cpu time spent up to now is        6.5 secs

     total energy              =     104.22954095 Ry
     Harris-Foulkes estimate   =   -5095.44268811 Ry
     estimated scf accuracy    <      45.42921014 Ry

     iteration # 82     ecut=    30.00 Ry     beta=0.70
     Davidson diagonalization with overlap
     ethr =  1.00E-02,  avg # of iterations =  7.0

     negative rho (up, down):  4.342E-01 0.000E+00

     total cpu time spent up to now is        6.6 secs

     total energy              =    -136.95686828 Ry
     Harris-Foulkes estimate   =    -392.30519820 Ry
     estimated scf accuracy    <      20.98230082 Ry

     iteration # 83     ecut=    30.00 Ry     beta=0.70
     Davidson diagonalization with overlap
     ethr =  1.00E-02,  avg # of iterations =  9.0

     negative rho (up, down):  3.360E-01 0.000E+00

     total cpu time spent up to now is        6.6 secs

     total energy              =     -16.87462981 Ry
     Harris-Foulkes estimate   =   -6916.79758400 Ry
     estimated scf accuracy    <      18.09540981 Ry

     iteration # 84     ecut=    30.00 Ry     beta=0.70
     Davidson diagonalization with overlap
     ethr =  1.00E-02,  avg # of iterations =  5.0

     negative rho (up, down):  1.193E-01 0.000E+00

     total cpu time spent up to now is        6.7 secs

     total energy              =    -214.22646684 Ry
     Harris-Foulkes estimate   =    -541.80923756 Ry
     estimated scf accuracy    <      15.34248113 Ry

     iteration # 85     ecut=    30.00 Ry     beta=0.70
     Davidson diagonalization with overlap
     ethr =  1.00E-02,  avg # of iterations =  8.0

     negative rho (up, down):  2.063E-01 0.000E+00

     total cpu time spent up to now is        6.7 secs

     total energy              =    -103.23900405 Ry
     Harris-Foulkes estimate   =   -2266.73497553 Ry
     estimated scf accuracy    <      44.08879923 Ry

     iteration # 86     ecut=    30.00 Ry     beta=0.70
     Davidson diagonalization with overlap
     ethr =  1.00E-02,  avg # of iterations =  8.0

     negative rho (up, down):  3.788E-01 0.000E+00

     total cpu time spent up to now is        6.8 secs

     total energy              =      23.57366583 Ry
     Harris-Foulkes estimate   =   -1210.45057313 Ry
     estimated scf accuracy    <      32.72634564 Ry

     iteration # 87     ecut=    30.00 Ry     beta=0.70
     Davidson diagonalization with overlap
     ethr =  1.00E-02,  avg # of iterations =  9.0

     negative rho (up, down):  4.282E-01 0.000E+00

     total cpu time spent up to now is        6.9 secs

     total energy              =    -494.30197566 Ry
     Harris-Foulkes estimate   =   -1004.62987786 Ry
     estimated scf accuracy    <      27.21622333 Ry

     iteration # 88     ecut=    30.00 Ry     beta=0.70
     Davidson diagonalization with overlap
     ethr =  1.00E-02,  avg # of iterations =  8.0

     negative rho (up, down):  4.613E-01 0.000E+00

     total cpu time spent up to now is        6.9 secs

     total energy              =      -3.27487613 Ry
     Harris-Foulkes estimate   =   -4227.52201454 Ry
     estimated scf accuracy    <      18.54159181 Ry

     iteration # 89     ecut=    30.00 Ry     beta=0.70
     Davidson diagonalization with overlap
     ethr =  1.00E-02,  avg # of iterations = 10.0

     negative rho (up, down):  4.408E-01 0.000E+00

     total cpu time spent up to now is        7.0 secs

     total energy              =   -1089.53023938 Ry
     Harris-Foulkes estimate   =   -2337.44099442 Ry
     estimated scf accuracy    <      19.40259672 Ry

     iteration # 90     ecut=    30.00 Ry     beta=0.70
     Davidson diagonalization with overlap
     ethr =  1.00E-02,  avg # of iterations =  7.0

     negative rho (up, down):  6.057E-02 0.000E+00

     total cpu time spent up to now is        7.0 secs

     total energy              =     104.85104708 Ry
     Harris-Foulkes estimate   =   -9191.16453409 Ry
     estimated scf accuracy    <      21.43879631 Ry

     iteration # 91     ecut=    30.00 Ry     beta=0.70
     Davidson diagonalization with overlap
     ethr =  1.00E-02,  avg # of iterations = 11.0

     negative rho (up, down):  9.317E-02 0.000E+00

     total cpu time spent up to now is        7.1 secs

     total energy              =      12.39626213 Ry
     Harris-Foulkes estimate   =     -76.64784999 Ry
     estimated scf accuracy    <      15.91654471 Ry

     iteration # 92     ecut=    30.00 Ry     beta=0.70
     Davidson diagonalization with overlap
     ethr =  1.00E-02,  avg # of iterations =  5.0

     negative rho (up, down):  1.006E-01 0.000E+00

     total cpu time spent up to now is        7.2 secs

     total energy              =      13.69061990 Ry
     Harris-Foulkes estimate   =    -263.86383686 Ry
     estimated scf accuracy    <      16.66336908 Ry

     iteration # 93     ecut=    30.00 Ry     beta=0.70
     Davidson diagonalization with overlap
     ethr =  1.00E-02,  avg # of iterations =  6.0

     negative rho (up, down):  6.017E-02 0.000E+00

     total cpu time spent up to now is        7.2 secs

     total energy              =      -2.05090296 Ry
     Harris-Foulkes estimate   =     -72.45290679 Ry
     estimated scf accuracy    <      19.25565815 Ry

     iteration # 94     ecut=    30.00 Ry     beta=0.70
     Davidson diagonalization with overlap
     ethr =  1.00E-02,  avg # of iterations =  5.0

     negative rho (up, down):  6.815E-02 0.000E+00

     total cpu time spent up to now is        7.3 secs

     total energy              =       2.01700236 Ry
     Harris-Foulkes estimate   =     -67.75239638 Ry
     estimated scf accuracy    <      13.16033725 Ry

     iteration # 95     ecut=    30.00 Ry     beta=0.70
     Davidson diagonalization with overlap
     ethr =  1.00E-02,  avg # of iterations =  5.0

     negative rho (up, down):  4.753E-02 0.000E+00

     total cpu time spent up to now is        7.3 secs

     total energy              =      10.57094763 Ry
     Harris-Foulkes estimate   =    -101.18862992 Ry
     estimated scf accuracy    <      16.30947497 Ry

     iteration # 96     ecut=    30.00 Ry     beta=0.70
     Davidson diagonalization with overlap
     ethr =  1.00E-02,  avg # of iterations =  5.0

     negative rho (up, down):  1.613E-03 0.000E+00

     total cpu time spent up to now is        7.3 secs

     total energy              =     -11.30547886 Ry
     Harris-Foulkes estimate   =     -51.45216439 Ry
     estimated scf accuracy    <      12.84766302 Ry

     iteration # 97     ecut=    30.00 Ry     beta=0.70
     Davidson diagonalization with overlap
     ethr =  1.00E-02,  avg # of iterations =  4.0

     negative rho (up, down):  2.995E-03 0.000E+00

     total cpu time spent up to now is        7.4 secs

     total energy              =     -38.33019401 Ry
     Harris-Foulkes estimate   =     -39.57612314 Ry
     estimated scf accuracy    <      14.35843765 Ry

     iteration # 98     ecut=    30.00 Ry     beta=0.70
     Davidson diagonalization with overlap
     ethr =  1.00E-02,  avg # of iterations =  1.0

     negative rho (up, down):  4.432E-03 0.000E+00

     total cpu time spent up to now is        7.4 secs

     total energy              =     -36.72161628 Ry
     Harris-Foulkes estimate   =     -38.48379583 Ry
     estimated scf accuracy    <      12.00527901 Ry

     iteration # 99     ecut=    30.00 Ry     beta=0.70
     Davidson diagonalization with overlap
     ethr =  1.00E-02,  avg # of iterations =  5.0

     negative rho (up, down):  9.427E-03 0.000E+00

     total cpu time spent up to now is        7.5 secs

     total energy              =     -10.29059019 Ry
     Harris-Foulkes estimate   =     -45.38181285 Ry
     estimated scf accuracy    <      12.52056016 Ry

     iteration #100     ecut=    30.00 Ry     beta=0.70
     Davidson diagonalization with overlap
     ethr =  1.00E-02,  avg # of iterations =  4.0

     negative rho (up, down):  6.666E-03 0.000E+00

     total cpu time spent up to now is        7.5 secs

     total energy              =       4.68223959 Ry
     Harris-Foulkes estimate   =     -75.14395735 Ry
     estimated scf accuracy    <      10.50966539 Ry

     End of self-consistent calculation

     convergence NOT achieved after 100 iterations: stopping

     Writing output data file pwscf.save
 
     init_run     :      0.09s CPU      0.11s WALL (       1 calls)
     electrons    :      5.54s CPU      6.71s WALL (       3 calls)
     update_pot   :      0.19s CPU      0.25s WALL (       2 calls)
     forces       :      0.05s CPU      0.05s WALL (       2 calls)

     Called by init_run:
     wfcinit      :      0.01s CPU      0.02s WALL (       1 calls)
     potinit      :      0.02s CPU      0.03s WALL (       1 calls)

     Called by electrons:
     c_bands      :      2.92s CPU      3.03s WALL (     131 calls)
     sum_band     :      0.38s CPU      0.41s WALL (     131 calls)
     v_of_rho     :      1.01s CPU      1.07s WALL (     134 calls)
     mix_rho      :      0.95s CPU      1.67s WALL (     131 calls)

     Called by c_bands:
     init_us_2    :      0.01s CPU      0.01s WALL (     263 calls)
     cegterg      :      2.90s CPU      2.97s WALL (     131 calls)

     Called by sum_band:

     Called by *egterg:
     h_psi        :      2.42s CPU      2.47s WALL (     851 calls)
     g_psi        :      0.03s CPU      0.03s WALL (     719 calls)
     cdiaghg      :      0.19s CPU      0.19s WALL (     848 calls)

     Called by h_psi:
     h_psi:pot    :      2.40s CPU      2.45s WALL (     851 calls)
     h_psi:calbec :      0.04s CPU      0.04s WALL (     851 calls)
     vloc_psi     :      2.35s CPU      2.40s WALL (     851 calls)
     add_vuspsi   :      0.01s CPU      0.01s WALL (     851 calls)

     General routines
     calbec       :      0.05s CPU      0.05s WALL (     860 calls)
     fft          :      0.65s CPU      0.69s WALL (    1478 calls)
     fftw         :      2.37s CPU      2.44s WALL (   10402 calls)
     davcio       :      0.14s CPU      0.59s WALL (    2366 calls)
 
     Parallel routines
     fft_scatter  :      1.20s CPU      1.28s WALL (   11880 calls)
 
     PWSCF        :     6.00s CPU         7.58s WALL

 
   This run was terminated on:   7:50: 7  14Feb2018            

=------------------------------------------------------------------------------=
   JOB DONE.
=------------------------------------------------------------------------------=
