
     Program PWSCF v.6.0 (svn rev. 13079) starts on 14Feb2018 at  7:50: 8 

     This program is part of the open-source Quantum ESPRESSO suite
     for quantum simulation of materials; please cite
         "P. Giannozzi et al., J. Phys.:Condens. Matter 21 395502 (2009);
          URL http://www.quantum-espresso.org", 
     in publications or presentations arising from this work. More details at
     http://www.quantum-espresso.org/quote

     Parallel version (MPI), running on    28 processors
     R & G space division:  proc/nbgrp/npool/nimage =      28
     Reading input from inputs/MD-H2O-2/212.in

     Current dimensions of program PWSCF are:
     Max number of different atomic species (ntypx) = 10
     Max number of k-points (npk) =  40000
     Max angular momentum in pseudopotentials (lmaxx) =  3

     Subspace diagonalization in iterative solution of the eigenvalue problem:
     a serial algorithm will be used

 
     Parallelization info
     --------------------
     sticks:   dense  smooth     PW     G-vecs:    dense   smooth      PW
     Min         136     136     33                 6338     6338     787
     Max         137     137     34                 6341     6341     792
     Sum        3809    3809    949               177509   177509   22119
 


     bravais-lattice index     =            1
     lattice parameter (alat)  =      20.0000  a.u.
     unit-cell volume          =    8000.0000 (a.u.)^3
     number of atoms/cell      =            3
     number of atomic types    =            2
     number of electrons       =         8.00
     number of Kohn-Sham states=            8
     kinetic-energy cutoff     =      30.0000  Ry
     charge density cutoff     =     120.0000  Ry
     convergence threshold     =      1.0E-08
     mixing beta               =       0.7000
     number of iterations used =            8  plain     mixing
     Exchange-correlation      = BLYP ( 1  3  1  3 0 0)
     nstep                     =         5000


     celldm(1)=  20.000000  celldm(2)=   0.000000  celldm(3)=   0.000000
     celldm(4)=   0.000000  celldm(5)=   0.000000  celldm(6)=   0.000000

     crystal axes: (cart. coord. in units of alat)
               a(1) = (   1.000000   0.000000   0.000000 )  
               a(2) = (   0.000000   1.000000   0.000000 )  
               a(3) = (   0.000000   0.000000   1.000000 )  

     reciprocal axes: (cart. coord. in units 2 pi/alat)
               b(1) = (  1.000000  0.000000  0.000000 )  
               b(2) = (  0.000000  1.000000  0.000000 )  
               b(3) = (  0.000000  0.000000  1.000000 )  


     PseudoPot. # 1 for  H read from file:
     ./H.blyp-hgh.UPF
     MD5 check sum: c576e69559cde411e611be972c763230
     Pseudo is Norm-conserving, Zval =  1.0
     Generated in analytical, separable form
     Using radial grid of  929 points,  0 beta functions with: 

     PseudoPot. # 2 for  O read from file:
     ./O.blyp-hgh.UPF
     MD5 check sum: d0b7156309aa9befef28faac7bc56342
     Pseudo is Norm-conserving, Zval =  6.0
     Generated in analytical, separable form
     Using radial grid of 1095 points,  1 beta functions with: 
                l(1) =   0

     atomic species   valence    mass     pseudopotential
        H              1.00     1.01000      H( 1.00)
        O              6.00    16.00000      O( 1.00)

     No symmetry found



   Cartesian axes

     site n.     atom                  positions (alat units)
         1           H   tau(   1) = (   0.1730809   0.5973789   0.8563365  )
         2           H   tau(   2) = (   1.0083909   0.5327989   0.4001710  )
         3           O   tau(   3) = (   0.0809070   0.4660694   0.3875716  )

     number of k points=     1  Marzari-Vanderbilt smearing, width (Ry)=  0.0250
                       cart. coord. in units 2pi/alat
        k(    1) = (   0.0000000   0.0000000   0.0000000), wk =   2.0000000

     Dense  grid:   177509 G-vectors     FFT dimensions: (  72,  72,  72)

     Estimated max dynamical RAM per process >       6.09Mb

     Estimated total allocated dynamical RAM >     170.64Mb

     Initial potential from superposition of free atoms
     Check: negative starting charge=   -0.345855

     starting charge    7.99998, renormalised to    8.00000

     negative rho (up, down):  3.459E-01 0.000E+00
     Starting wfc are    6 randomized atomic wfcs +    2 random wfc

     total cpu time spent up to now is        0.2 secs

     per-process dynamical memory:    18.8 Mb

     Self-consistent Calculation

     iteration #  1     ecut=    30.00 Ry     beta=0.70
     Davidson diagonalization with overlap
     ethr =  1.00E-02,  avg # of iterations =  7.0

     negative rho (up, down):  8.992E-02 0.000E+00

     total cpu time spent up to now is        0.3 secs

     total energy              =     -30.39611849 Ry
     Harris-Foulkes estimate   =     -32.23130611 Ry
     estimated scf accuracy    <       2.11836719 Ry

     iteration #  2     ecut=    30.00 Ry     beta=0.70
     Davidson diagonalization with overlap
     ethr =  1.00E-02,  avg # of iterations =  3.0

     negative rho (up, down):  6.543E-02 0.000E+00

     total cpu time spent up to now is        0.3 secs

     total energy              =     -32.27271595 Ry
     Harris-Foulkes estimate   =     -34.50275790 Ry
     estimated scf accuracy    <       5.44079423 Ry

     iteration #  3     ecut=    30.00 Ry     beta=0.70
     Davidson diagonalization with overlap
     ethr =  1.00E-02,  avg # of iterations =  2.0

     negative rho (up, down):  6.283E-02 0.000E+00

     total cpu time spent up to now is        0.3 secs

     total energy              =     -32.41919206 Ry
     Harris-Foulkes estimate   =     -32.50526866 Ry
     estimated scf accuracy    <       1.75256946 Ry

     iteration #  4     ecut=    30.00 Ry     beta=0.70
     Davidson diagonalization with overlap
     ethr =  1.00E-02,  avg # of iterations =  1.0

     negative rho (up, down):  1.191E-02 0.000E+00

     total cpu time spent up to now is        0.4 secs

     total energy              =     -31.32650235 Ry
     Harris-Foulkes estimate   =     -32.41952777 Ry
     estimated scf accuracy    <       1.63246101 Ry

     iteration #  5     ecut=    30.00 Ry     beta=0.70
     Davidson diagonalization with overlap
     ethr =  1.00E-02,  avg # of iterations =  3.0

     negative rho (up, down):  1.445E-02 0.000E+00

     total cpu time spent up to now is        0.4 secs

     total energy              =     -33.17242256 Ry
     Harris-Foulkes estimate   =     -33.13380415 Ry
     estimated scf accuracy    <       5.30278361 Ry

     iteration #  6     ecut=    30.00 Ry     beta=0.70
     Davidson diagonalization with overlap
     ethr =  1.00E-02,  avg # of iterations =  1.0

     negative rho (up, down):  1.463E-02 0.000E+00

     total cpu time spent up to now is        0.4 secs

     total energy              =     -32.93354030 Ry
     Harris-Foulkes estimate   =     -33.18043353 Ry
     estimated scf accuracy    <       6.49881584 Ry

     iteration #  7     ecut=    30.00 Ry     beta=0.70
     Davidson diagonalization with overlap
     ethr =  1.00E-02,  avg # of iterations =  1.0

     negative rho (up, down):  1.090E-02 0.000E+00

     total cpu time spent up to now is        0.5 secs

     total energy              =     -32.75974142 Ry
     Harris-Foulkes estimate   =     -32.98519426 Ry
     estimated scf accuracy    <       3.17863459 Ry

     iteration #  8     ecut=    30.00 Ry     beta=0.70
     Davidson diagonalization with overlap
     ethr =  1.00E-02,  avg # of iterations =  1.0

     negative rho (up, down):  1.396E-02 0.000E+00

     total cpu time spent up to now is        0.5 secs

     total energy              =     -32.28279879 Ry
     Harris-Foulkes estimate   =     -32.76409579 Ry
     estimated scf accuracy    <       2.68803326 Ry

     iteration #  9     ecut=    30.00 Ry     beta=0.70
     Davidson diagonalization with overlap
     ethr =  1.00E-02,  avg # of iterations =  1.0

     negative rho (up, down):  1.240E-02 0.000E+00

     total cpu time spent up to now is        0.5 secs

     total energy              =     -31.88885776 Ry
     Harris-Foulkes estimate   =     -32.29855765 Ry
     estimated scf accuracy    <       1.78557665 Ry

     iteration # 10     ecut=    30.00 Ry     beta=0.70
     Davidson diagonalization with overlap
     ethr =  1.00E-02,  avg # of iterations =  1.0

     negative rho (up, down):  2.262E-02 0.000E+00

     total cpu time spent up to now is        0.6 secs

     total energy              =     -31.87034494 Ry
     Harris-Foulkes estimate   =     -31.95976159 Ry
     estimated scf accuracy    <       0.61020351 Ry

     iteration # 11     ecut=    30.00 Ry     beta=0.70
     Davidson diagonalization with overlap
     ethr =  7.63E-03,  avg # of iterations =  1.0

     negative rho (up, down):  1.976E-02 0.000E+00

     total cpu time spent up to now is        0.6 secs

     total energy              =     -32.09043385 Ry
     Harris-Foulkes estimate   =     -32.03217517 Ry
     estimated scf accuracy    <       1.27789046 Ry

     iteration # 12     ecut=    30.00 Ry     beta=0.70
     Davidson diagonalization with overlap
     ethr =  7.63E-03,  avg # of iterations =  1.0

     negative rho (up, down):  3.336E-02 0.000E+00

     total cpu time spent up to now is        0.6 secs

     total energy              =     -32.04072505 Ry
     Harris-Foulkes estimate   =     -32.09101593 Ry
     estimated scf accuracy    <       1.38456227 Ry

     iteration # 13     ecut=    30.00 Ry     beta=0.70
     Davidson diagonalization with overlap
     ethr =  7.63E-03,  avg # of iterations =  1.0

     negative rho (up, down):  3.036E-02 0.000E+00

     total cpu time spent up to now is        0.7 secs

     total energy              =     -32.00083003 Ry
     Harris-Foulkes estimate   =     -32.04103517 Ry
     estimated scf accuracy    <       1.30066636 Ry

     iteration # 14     ecut=    30.00 Ry     beta=0.70
     Davidson diagonalization with overlap
     ethr =  7.63E-03,  avg # of iterations =  1.0

     negative rho (up, down):  3.279E-02 0.000E+00

     total cpu time spent up to now is        0.7 secs

     total energy              =     -32.01204739 Ry
     Harris-Foulkes estimate   =     -32.00052752 Ry
     estimated scf accuracy    <       1.38962684 Ry

     iteration # 15     ecut=    30.00 Ry     beta=0.70
     Davidson diagonalization with overlap
     ethr =  7.63E-03,  avg # of iterations =  1.0

     negative rho (up, down):  4.831E-03 0.000E+00

     total cpu time spent up to now is        0.7 secs

     total energy              =     -31.88116285 Ry
     Harris-Foulkes estimate   =     -32.01180805 Ry
     estimated scf accuracy    <       1.29561566 Ry

     iteration # 16     ecut=    30.00 Ry     beta=0.70
     Davidson diagonalization with overlap
     ethr =  7.63E-03,  avg # of iterations =  1.0

     negative rho (up, down):  8.590E-04 0.000E+00

     total cpu time spent up to now is        0.8 secs

     total energy              =     -31.95261374 Ry
     Harris-Foulkes estimate   =     -31.97670893 Ry
     estimated scf accuracy    <       0.86914450 Ry

     iteration # 17     ecut=    30.00 Ry     beta=0.70
     Davidson diagonalization with overlap
     ethr =  7.63E-03,  avg # of iterations =  1.0

     negative rho (up, down):  1.366E-03 0.000E+00

     total cpu time spent up to now is        0.8 secs

     total energy              =     -31.92480742 Ry
     Harris-Foulkes estimate   =     -31.95486343 Ry
     estimated scf accuracy    <       0.44591862 Ry

     iteration # 18     ecut=    30.00 Ry     beta=0.70
     Davidson diagonalization with overlap
     ethr =  5.57E-03,  avg # of iterations =  1.0

     negative rho (up, down):  1.492E-04 0.000E+00

     total cpu time spent up to now is        0.8 secs

     total energy              =     -31.91908326 Ry
     Harris-Foulkes estimate   =     -31.95755155 Ry
     estimated scf accuracy    <       0.79613564 Ry

     iteration # 19     ecut=    30.00 Ry     beta=0.70
     Davidson diagonalization with overlap
     ethr =  5.57E-03,  avg # of iterations =  1.0

     negative rho (up, down):  1.885E-05 0.000E+00

     total cpu time spent up to now is        0.9 secs

     total energy              =     -31.93758462 Ry
     Harris-Foulkes estimate   =     -31.95335344 Ry
     estimated scf accuracy    <       0.38115556 Ry

     iteration # 20     ecut=    30.00 Ry     beta=0.70
     Davidson diagonalization with overlap
     ethr =  4.76E-03,  avg # of iterations =  1.0

     negative rho (up, down):  1.551E-06 0.000E+00

     total cpu time spent up to now is        0.9 secs

     total energy              =     -31.95027214 Ry
     Harris-Foulkes estimate   =     -31.94735786 Ry
     estimated scf accuracy    <       0.05140375 Ry

     iteration # 21     ecut=    30.00 Ry     beta=0.70
     Davidson diagonalization with overlap
     ethr =  6.43E-04,  avg # of iterations =  1.0

     negative rho (up, down):  9.689E-06 0.000E+00

     total cpu time spent up to now is        0.9 secs

     total energy              =     -31.93802760 Ry
     Harris-Foulkes estimate   =     -31.95333632 Ry
     estimated scf accuracy    <       0.50877917 Ry

     iteration # 22     ecut=    30.00 Ry     beta=0.70
     Davidson diagonalization with overlap
     ethr =  6.43E-04,  avg # of iterations =  1.0

     negative rho (up, down):  2.500E-07 0.000E+00

     total cpu time spent up to now is        1.0 secs

     total energy              =     -31.94682139 Ry
     Harris-Foulkes estimate   =     -31.94687313 Ry
     estimated scf accuracy    <       0.01322701 Ry

     iteration # 23     ecut=    30.00 Ry     beta=0.70
     Davidson diagonalization with overlap
     ethr =  1.65E-04,  avg # of iterations =  1.0

     total cpu time spent up to now is        1.0 secs

     total energy              =     -31.94669786 Ry
     Harris-Foulkes estimate   =     -31.94682678 Ry
     estimated scf accuracy    <       0.00972794 Ry

     iteration # 24     ecut=    30.00 Ry     beta=0.70
     Davidson diagonalization with overlap
     ethr =  1.22E-04,  avg # of iterations =  1.0

     total cpu time spent up to now is        1.0 secs

     total energy              =     -31.94669552 Ry
     Harris-Foulkes estimate   =     -31.94672906 Ry
     estimated scf accuracy    <       0.00255653 Ry

     iteration # 25     ecut=    30.00 Ry     beta=0.70
     Davidson diagonalization with overlap
     ethr =  3.20E-05,  avg # of iterations =  4.0

     total cpu time spent up to now is        1.1 secs

     total energy              =     -31.94671610 Ry
     Harris-Foulkes estimate   =     -31.94670367 Ry
     estimated scf accuracy    <       0.00066670 Ry

     iteration # 26     ecut=    30.00 Ry     beta=0.70
     Davidson diagonalization with overlap
     ethr =  8.33E-06,  avg # of iterations =  4.0

     total cpu time spent up to now is        1.1 secs

     total energy              =     -31.94670722 Ry
     Harris-Foulkes estimate   =     -31.94672039 Ry
     estimated scf accuracy    <       0.00191026 Ry

     iteration # 27     ecut=    30.00 Ry     beta=0.70
     Davidson diagonalization with overlap
     ethr =  8.33E-06,  avg # of iterations =  1.0

     negative rho (up, down):  1.046E-07 0.000E+00

     total cpu time spent up to now is        1.1 secs

     total energy              =     -31.94669428 Ry
     Harris-Foulkes estimate   =     -31.94670908 Ry
     estimated scf accuracy    <       0.00103518 Ry

     iteration # 28     ecut=    30.00 Ry     beta=0.70
     Davidson diagonalization with overlap
     ethr =  8.33E-06,  avg # of iterations =  1.0

     total cpu time spent up to now is        1.2 secs

     total energy              =     -31.94669179 Ry
     Harris-Foulkes estimate   =     -31.94669807 Ry
     estimated scf accuracy    <       0.00023462 Ry

     iteration # 29     ecut=    30.00 Ry     beta=0.70
     Davidson diagonalization with overlap
     ethr =  2.93E-06,  avg # of iterations =  1.0

     total cpu time spent up to now is        1.2 secs

     total energy              =     -31.94669491 Ry
     Harris-Foulkes estimate   =     -31.94669485 Ry
     estimated scf accuracy    <       0.00000002 Ry

     iteration # 30     ecut=    30.00 Ry     beta=0.70
     Davidson diagonalization with overlap
     ethr =  3.12E-10,  avg # of iterations =  2.0

     total cpu time spent up to now is        1.2 secs

     End of self-consistent calculation

          k = 0.0000 0.0000 0.0000 ( 22119 PWs)   bands (ev):

   -24.7749 -10.6256  -7.0328  -7.0317  -6.8895  -0.6870   0.3603   0.8029

     the Fermi energy is    -6.8608 ev

!    total energy              =     -31.94669472 Ry
     Harris-Foulkes estimate   =     -31.94669491 Ry
     estimated scf accuracy    <          1.4E-09 Ry

     convergence has been achieved in  30 iterations

     Forces acting on atoms (Ry/au):

     atom    1 type  1   force =     0.00048119    0.00026178    0.00016757
     atom    2 type  1   force =    -0.01313786    0.01278875    0.00265035
     atom    3 type  2   force =     0.01265667   -0.01305053   -0.00281792

     Total force =     0.026114     Total SCF correction =     0.000089

     Molecular Dynamics Calculation

     Starting temperature  =  1000.00 K

     temperature is controlled by Andersen thermostat
     Collision frequency = 1.0000/timestep
     mass H                =     1.01
     mass O                =    16.00
     Time step             =   100.00 a.u.,  4.8378 femto-seconds

     Entering Dynamics:    iteration =     1
                           time      =   0.0048 pico-seconds


     Andersen thermostat:    3 collisions

ATOMIC_POSITIONS (bohr)
H        3.699281233  11.890463977  16.959021531
H       20.184105711  10.727046918   7.432872815
O        1.602109220   9.320507160   7.798035451


     kinetic energy (Ekin) =     0.02207385 Ry
     temperature           =  1161.72686920 K 
     Ekin + Etot (const)   =   -31.92462087 Ry

     Linear momentum :    0.0000000000   -0.0000000000   -0.0000000000

     Writing output data file pwscf.save
     Check: negative starting charge=   -0.345855
     NEW-OLD atomic charge density approx. for the potential
     Check: negative starting charge=   -0.346137

     negative rho (up, down):  9.855E-02 0.000E+00

     total cpu time spent up to now is        1.5 secs

     per-process dynamical memory:    20.4 Mb

     Self-consistent Calculation

     iteration #  1     ecut=    30.00 Ry     beta=0.70
     Davidson diagonalization with overlap
     c_bands:  1 eigenvalues not converged
     ethr =  1.00E-06,  avg # of iterations = 20.0

     negative rho (up, down):  2.336E-02 0.000E+00

     total cpu time spent up to now is        1.7 secs

     total energy              =     -31.91367058 Ry
     Harris-Foulkes estimate   =     -31.87577483 Ry
     estimated scf accuracy    <       0.01914196 Ry

     iteration #  2     ecut=    30.00 Ry     beta=0.70
     Davidson diagonalization with overlap
     ethr =  2.39E-04,  avg # of iterations =  4.0

     negative rho (up, down):  2.146E-02 0.000E+00

     total cpu time spent up to now is        1.7 secs

     total energy              =     -31.91415580 Ry
     Harris-Foulkes estimate   =     -32.04442038 Ry
     estimated scf accuracy    <       1.07661366 Ry

     iteration #  3     ecut=    30.00 Ry     beta=0.70
     Davidson diagonalization with overlap
     ethr =  2.39E-04,  avg # of iterations =  2.0

     negative rho (up, down):  8.207E-03 0.000E+00

     total cpu time spent up to now is        1.8 secs

     total energy              =     -31.93362488 Ry
     Harris-Foulkes estimate   =     -31.92740729 Ry
     estimated scf accuracy    <       0.05559355 Ry

     iteration #  4     ecut=    30.00 Ry     beta=0.70
     Davidson diagonalization with overlap
     ethr =  2.39E-04,  avg # of iterations =  1.0

     negative rho (up, down):  2.503E-03 0.000E+00

     total cpu time spent up to now is        1.8 secs

     total energy              =     -31.92810808 Ry
     Harris-Foulkes estimate   =     -31.95001601 Ry
     estimated scf accuracy    <       0.74921401 Ry

     iteration #  5     ecut=    30.00 Ry     beta=0.70
     Davidson diagonalization with overlap
     ethr =  2.39E-04,  avg # of iterations =  3.0

     negative rho (up, down):  4.314E-04 0.000E+00

     total cpu time spent up to now is        1.8 secs

     total energy              =     -31.94468876 Ry
     Harris-Foulkes estimate   =     -31.94698408 Ry
     estimated scf accuracy    <       0.10122347 Ry

     iteration #  6     ecut=    30.00 Ry     beta=0.70
     Davidson diagonalization with overlap
     ethr =  2.39E-04,  avg # of iterations =  1.0

     negative rho (up, down):  4.996E-07 0.000E+00

     total cpu time spent up to now is        1.9 secs

     total energy              =     -31.94653368 Ry
     Harris-Foulkes estimate   =     -31.94676441 Ry
     estimated scf accuracy    <       0.00497494 Ry

     iteration #  7     ecut=    30.00 Ry     beta=0.70
     Davidson diagonalization with overlap
     ethr =  6.22E-05,  avg # of iterations =  8.0

     total cpu time spent up to now is        1.9 secs

     total energy              =     -31.94660570 Ry
     Harris-Foulkes estimate   =     -31.94678783 Ry
     estimated scf accuracy    <       0.00450308 Ry

     iteration #  8     ecut=    30.00 Ry     beta=0.70
     Davidson diagonalization with overlap
     ethr =  5.63E-05,  avg # of iterations =  1.0

     total cpu time spent up to now is        1.9 secs

     total energy              =     -31.94671612 Ry
     Harris-Foulkes estimate   =     -31.94674093 Ry
     estimated scf accuracy    <       0.00116472 Ry

     iteration #  9     ecut=    30.00 Ry     beta=0.70
     Davidson diagonalization with overlap
     ethr =  1.46E-05,  avg # of iterations =  3.0

     total cpu time spent up to now is        2.0 secs

     total energy              =     -31.94672355 Ry
     Harris-Foulkes estimate   =     -31.94672569 Ry
     estimated scf accuracy    <       0.00005146 Ry

     iteration # 10     ecut=    30.00 Ry     beta=0.70
     Davidson diagonalization with overlap
     ethr =  6.43E-07,  avg # of iterations = 12.0

     total cpu time spent up to now is        2.0 secs

     total energy              =     -31.94672405 Ry
     Harris-Foulkes estimate   =     -31.94672486 Ry
     estimated scf accuracy    <       0.00000765 Ry

     iteration # 11     ecut=    30.00 Ry     beta=0.70
     Davidson diagonalization with overlap
     ethr =  9.56E-08,  avg # of iterations =  1.0

     total cpu time spent up to now is        2.1 secs

     total energy              =     -31.94672424 Ry
     Harris-Foulkes estimate   =     -31.94672441 Ry
     estimated scf accuracy    <       0.00000580 Ry

     iteration # 12     ecut=    30.00 Ry     beta=0.70
     Davidson diagonalization with overlap
     ethr =  7.24E-08,  avg # of iterations =  1.0

     total cpu time spent up to now is        2.1 secs

     End of self-consistent calculation

          k = 0.0000 0.0000 0.0000 ( 22119 PWs)   bands (ev):

   -24.6641 -10.5570  -7.0173  -7.0160  -6.8738  -0.7375   0.3368   0.7961

     the Fermi energy is    -6.8451 ev

!    total energy              =     -31.94672431 Ry
     Harris-Foulkes estimate   =     -31.94672432 Ry
     estimated scf accuracy    <          3.2E-09 Ry

     convergence has been achieved in  12 iterations

     Forces acting on atoms (Ry/au):

     atom    1 type  1   force =     0.00039632    0.00018355   -0.00024890
     atom    2 type  1   force =     0.01543396   -0.01483032    0.00361089
     atom    3 type  2   force =    -0.01583029    0.01464677   -0.00336200

     Total force =     0.030787     Total SCF correction =     0.000023

     Entering Dynamics:    iteration =     2
                           time      =   0.0097 pico-seconds


     Andersen thermostat:    3 collisions

ATOMIC_POSITIONS (bohr)
H        3.707042250  11.741424612  16.673807604
H       20.765933733  10.827110185   7.371355966
O        1.564891412   9.323598777   7.819922832


     kinetic energy (Ekin) =     0.02206628 Ry
     temperature           =  1161.32844979 K 
     Ekin + Etot (const)   =   -31.92465804 Ry
     Message from routine dynamics:
     Total linear momentum <> 0

     Linear momentum :    0.3164193902    0.0011991561    0.3795789566

     Writing output data file pwscf.save

     first order wave-functions extrapolation
     Check: negative starting charge=   -0.346137
     first order charge density extrapolation
     Check: negative starting charge=   -0.346467

     negative rho (up, down):  1.029E-01 0.000E+00

     total cpu time spent up to now is        2.7 secs

     per-process dynamical memory:    20.4 Mb

     Self-consistent Calculation

     iteration #  1     ecut=    30.00 Ry     beta=0.70
     Davidson diagonalization with overlap
     ethr =  1.00E-06,  avg # of iterations = 20.0

     negative rho (up, down):  2.352E-02 0.000E+00

     total cpu time spent up to now is        2.8 secs

     total energy              =     -31.22860512 Ry
     Harris-Foulkes estimate   =     -31.86845404 Ry
     estimated scf accuracy    <       0.89620102 Ry

     iteration #  2     ecut=    30.00 Ry     beta=0.70
     Davidson diagonalization with overlap
     ethr =  1.00E-02,  avg # of iterations =  3.0

     negative rho (up, down):  2.651E-04 0.000E+00

     total cpu time spent up to now is        2.9 secs

     total energy              =     -31.21001108 Ry
     Harris-Foulkes estimate   =     -33.95585300 Ry
     estimated scf accuracy    <      10.47919141 Ry

     iteration #  3     ecut=    30.00 Ry     beta=0.70
     Davidson diagonalization with overlap
     ethr =  1.00E-02,  avg # of iterations =  3.0

     negative rho (up, down):  7.510E-04 0.000E+00

     total cpu time spent up to now is        3.0 secs

     total energy              =     -32.03299509 Ry
     Harris-Foulkes estimate   =     -32.17885972 Ry
     estimated scf accuracy    <       1.83602179 Ry

     iteration #  4     ecut=    30.00 Ry     beta=0.70
     Davidson diagonalization with overlap
     ethr =  1.00E-02,  avg # of iterations =  1.0

     negative rho (up, down):  2.266E-02 0.000E+00

     total cpu time spent up to now is        3.0 secs

     total energy              =     -31.77937404 Ry
     Harris-Foulkes estimate   =     -32.03621513 Ry
     estimated scf accuracy    <       1.54914115 Ry

     iteration #  5     ecut=    30.00 Ry     beta=0.70
     Davidson diagonalization with overlap
     ethr =  1.00E-02,  avg # of iterations =  4.0

     negative rho (up, down):  1.459E-02 0.000E+00

     total cpu time spent up to now is        3.1 secs

     total energy              =     -31.92357426 Ry
     Harris-Foulkes estimate   =     -31.93639627 Ry
     estimated scf accuracy    <       0.59641369 Ry

     iteration #  6     ecut=    30.00 Ry     beta=0.70
     Davidson diagonalization with overlap
     ethr =  7.46E-03,  avg # of iterations =  1.0

     negative rho (up, down):  1.253E-02 0.000E+00

     total cpu time spent up to now is        3.1 secs

     total energy              =     -31.93010747 Ry
     Harris-Foulkes estimate   =     -31.92859485 Ry
     estimated scf accuracy    <       0.17224478 Ry

     iteration #  7     ecut=    30.00 Ry     beta=0.70
     Davidson diagonalization with overlap
     ethr =  2.15E-03,  avg # of iterations =  1.0

     total cpu time spent up to now is        3.1 secs

     total energy              =     -31.88786991 Ry
     Harris-Foulkes estimate   =     -31.93041472 Ry
     estimated scf accuracy    <       0.13882611 Ry

     iteration #  8     ecut=    30.00 Ry     beta=0.70
     Davidson diagonalization with overlap
     ethr =  1.74E-03,  avg # of iterations =  1.0

     negative rho (up, down):  1.168E-08 0.000E+00

     total cpu time spent up to now is        3.2 secs

     total energy              =     -31.94798331 Ry
     Harris-Foulkes estimate   =     -32.03003365 Ry
     estimated scf accuracy    <       1.36186743 Ry

     iteration #  9     ecut=    30.00 Ry     beta=0.70
     Davidson diagonalization with overlap
     ethr =  1.74E-03,  avg # of iterations =  1.0

     negative rho (up, down):  4.743E-03 0.000E+00

     total cpu time spent up to now is        3.2 secs

     total energy              =     -31.92284851 Ry
     Harris-Foulkes estimate   =     -31.94724810 Ry
     estimated scf accuracy    <       1.60427512 Ry

     iteration # 10     ecut=    30.00 Ry     beta=0.70
     Davidson diagonalization with overlap
     ethr =  1.74E-03,  avg # of iterations =  1.0

     total cpu time spent up to now is        3.2 secs

     total energy              =     -31.93234396 Ry
     Harris-Foulkes estimate   =     -31.92500100 Ry
     estimated scf accuracy    <       0.89090191 Ry

     iteration # 11     ecut=    30.00 Ry     beta=0.70
     Davidson diagonalization with overlap
     ethr =  1.74E-03,  avg # of iterations =  1.0

     negative rho (up, down):  2.381E-06 0.000E+00

     total cpu time spent up to now is        3.2 secs

     total energy              =     -31.95219688 Ry
     Harris-Foulkes estimate   =     -31.93317464 Ry
     estimated scf accuracy    <       1.30944531 Ry

     iteration # 12     ecut=    30.00 Ry     beta=0.70
     Davidson diagonalization with overlap
     ethr =  1.74E-03,  avg # of iterations =  1.0

     negative rho (up, down):  4.652E-05 0.000E+00

     total cpu time spent up to now is        3.3 secs

     total energy              =     -31.81223976 Ry
     Harris-Foulkes estimate   =     -31.95361070 Ry
     estimated scf accuracy    <       1.56955002 Ry

     iteration # 13     ecut=    30.00 Ry     beta=0.70
     Davidson diagonalization with overlap
     ethr =  1.74E-03,  avg # of iterations =  1.0

     negative rho (up, down):  6.456E-05 0.000E+00

     total cpu time spent up to now is        3.3 secs

     total energy              =     -31.92051835 Ry
     Harris-Foulkes estimate   =     -31.95918008 Ry
     estimated scf accuracy    <       0.90714727 Ry

     iteration # 14     ecut=    30.00 Ry     beta=0.70
     Davidson diagonalization with overlap
     ethr =  1.74E-03,  avg # of iterations =  1.0

     negative rho (up, down):  2.013E-04 0.000E+00

     total cpu time spent up to now is        3.3 secs

     total energy              =     -31.93283632 Ry
     Harris-Foulkes estimate   =     -31.92257106 Ry
     estimated scf accuracy    <       0.51818062 Ry

     iteration # 15     ecut=    30.00 Ry     beta=0.70
     Davidson diagonalization with overlap
     ethr =  1.74E-03,  avg # of iterations =  1.0

     negative rho (up, down):  1.218E-05 0.000E+00

     total cpu time spent up to now is        3.4 secs

     total energy              =     -31.92336530 Ry
     Harris-Foulkes estimate   =     -31.93415375 Ry
     estimated scf accuracy    <       0.78451183 Ry

     iteration # 16     ecut=    30.00 Ry     beta=0.70
     Davidson diagonalization with overlap
     ethr =  1.74E-03,  avg # of iterations =  1.0

     negative rho (up, down):  8.024E-07 0.000E+00

     total cpu time spent up to now is        3.4 secs

     total energy              =     -31.89694656 Ry
     Harris-Foulkes estimate   =     -31.92412705 Ry
     estimated scf accuracy    <       0.56723460 Ry

     iteration # 17     ecut=    30.00 Ry     beta=0.70
     Davidson diagonalization with overlap
     ethr =  1.74E-03,  avg # of iterations =  1.0

     total cpu time spent up to now is        3.4 secs

     total energy              =     -31.91301814 Ry
     Harris-Foulkes estimate   =     -31.91416171 Ry
     estimated scf accuracy    <       0.13056652 Ry

     iteration # 18     ecut=    30.00 Ry     beta=0.70
     Davidson diagonalization with overlap
     ethr =  1.63E-03,  avg # of iterations =  1.0

     total cpu time spent up to now is        3.5 secs

     total energy              =     -31.90888718 Ry
     Harris-Foulkes estimate   =     -31.91321775 Ry
     estimated scf accuracy    <       0.05620713 Ry

     iteration # 19     ecut=    30.00 Ry     beta=0.70
     Davidson diagonalization with overlap
     ethr =  7.03E-04,  avg # of iterations =  1.0

     total cpu time spent up to now is        3.5 secs

     total energy              =     -31.91332522 Ry
     Harris-Foulkes estimate   =     -31.91525791 Ry
     estimated scf accuracy    <       0.17847546 Ry

     iteration # 20     ecut=    30.00 Ry     beta=0.70
     Davidson diagonalization with overlap
     ethr =  7.03E-04,  avg # of iterations =  1.0

     total cpu time spent up to now is        3.5 secs

     total energy              =     -31.91269289 Ry
     Harris-Foulkes estimate   =     -31.91363890 Ry
     estimated scf accuracy    <       0.07892526 Ry

     iteration # 21     ecut=    30.00 Ry     beta=0.70
     Davidson diagonalization with overlap
     ethr =  7.03E-04,  avg # of iterations =  1.0

     total cpu time spent up to now is        3.6 secs

     total energy              =     -31.91264712 Ry
     Harris-Foulkes estimate   =     -31.91288078 Ry
     estimated scf accuracy    <       0.02776778 Ry

     iteration # 22     ecut=    30.00 Ry     beta=0.70
     Davidson diagonalization with overlap
     ethr =  3.47E-04,  avg # of iterations =  1.0

     total cpu time spent up to now is        3.6 secs

     total energy              =     -31.91236861 Ry
     Harris-Foulkes estimate   =     -31.91268139 Ry
     estimated scf accuracy    <       0.01367600 Ry

     iteration # 23     ecut=    30.00 Ry     beta=0.70
     Davidson diagonalization with overlap
     ethr =  1.71E-04,  avg # of iterations =  1.0

     total cpu time spent up to now is        3.6 secs

     total energy              =     -31.91248827 Ry
     Harris-Foulkes estimate   =     -31.91249854 Ry
     estimated scf accuracy    <       0.00034378 Ry

     iteration # 24     ecut=    30.00 Ry     beta=0.70
     Davidson diagonalization with overlap
     ethr =  4.30E-06,  avg # of iterations =  7.0

     total cpu time spent up to now is        3.7 secs

     total energy              =     -31.91249335 Ry
     Harris-Foulkes estimate   =     -31.91249423 Ry
     estimated scf accuracy    <       0.00000653 Ry

     iteration # 25     ecut=    30.00 Ry     beta=0.70
     Davidson diagonalization with overlap
     ethr =  8.16E-08,  avg # of iterations =  1.0

     total cpu time spent up to now is        3.7 secs

     total energy              =     -31.91249363 Ry
     Harris-Foulkes estimate   =     -31.91249403 Ry
     estimated scf accuracy    <       0.00002016 Ry

     iteration # 26     ecut=    30.00 Ry     beta=0.70
     Davidson diagonalization with overlap
     ethr =  8.16E-08,  avg # of iterations =  1.0

     total cpu time spent up to now is        3.8 secs

     total energy              =     -31.91249382 Ry
     Harris-Foulkes estimate   =     -31.91249380 Ry
     estimated scf accuracy    <       0.00000079 Ry

     iteration # 27     ecut=    30.00 Ry     beta=0.70
     Davidson diagonalization with overlap
     ethr =  9.83E-09,  avg # of iterations =  1.0

     total cpu time spent up to now is        3.8 secs

     total energy              =     -31.91249377 Ry
     Harris-Foulkes estimate   =     -31.91249382 Ry
     estimated scf accuracy    <       0.00000076 Ry

     iteration # 28     ecut=    30.00 Ry     beta=0.70
     Davidson diagonalization with overlap
     ethr =  9.46E-09,  avg # of iterations =  1.0

     total cpu time spent up to now is        3.8 secs

     End of self-consistent calculation

          k = 0.0000 0.0000 0.0000 ( 22119 PWs)   bands (ev):

   -25.4834 -10.9096  -7.1011  -7.0987  -6.9530  -0.5103   0.4880   0.7873

     the Fermi energy is    -6.9270 ev

!    total energy              =     -31.91249373 Ry
     Harris-Foulkes estimate   =     -31.91249378 Ry
     estimated scf accuracy    <          3.0E-09 Ry

     convergence has been achieved in  28 iterations

     Forces acting on atoms (Ry/au):

     atom    1 type  1   force =     0.00023214    0.00011826   -0.00049705
     atom    2 type  1   force =    -0.13941660    0.26286672   -0.07855770
     atom    3 type  2   force =     0.13918446   -0.26298498    0.07905475

     Total force =     0.435305     Total SCF correction =     0.000123

     Entering Dynamics:    iteration =     3
                           time      =   0.0145 pico-seconds


     Andersen thermostat:    3 collisions

ATOMIC_POSITIONS (bohr)
H        3.696806366  11.849951682  16.978297543
H       19.084993766  13.758756121   6.028504823
O        1.671646888   9.131687856   7.885469383


     kinetic energy (Ekin) =     0.20330488 Ry
     temperature           = 10699.75466260 K 
     Ekin + Etot (const)   =   -31.70918885 Ry
     Message from routine dynamics:
     Total linear momentum <> 0

     Linear momentum :    0.4189667478    0.4315169386   -0.2628394712

     Writing output data file pwscf.save

     second order wave-functions extrapolation
     Check: negative starting charge=   -0.346467
     second order charge density extrapolation
     Check: negative starting charge=   -0.339746

     negative rho (up, down):  4.670E-01 0.000E+00

     total cpu time spent up to now is        4.2 secs

     per-process dynamical memory:    20.4 Mb

     Self-consistent Calculation

     iteration #  1     ecut=    30.00 Ry     beta=0.70
     Davidson diagonalization with overlap
     ethr =  1.00E-06,  avg # of iterations = 13.0

     negative rho (up, down):  1.051E-01 0.000E+00

     total cpu time spent up to now is        4.3 secs

     total energy              =     -20.38892848 Ry
     Harris-Foulkes estimate   =     -33.92898381 Ry
     estimated scf accuracy    <       7.76073085 Ry

     iteration #  2     ecut=    30.00 Ry     beta=0.70
     Davidson diagonalization with overlap
     ethr =  1.00E-02,  avg # of iterations =  4.0

     negative rho (up, down):  7.462E-02 0.000E+00

     total cpu time spent up to now is        4.4 secs

     total energy              =     -32.88247043 Ry
     Harris-Foulkes estimate   =     -39.89872851 Ry
     estimated scf accuracy    <      16.37440708 Ry

     iteration #  3     ecut=    30.00 Ry     beta=0.70
     Davidson diagonalization with overlap
     ethr =  1.00E-02,  avg # of iterations =  3.0

     negative rho (up, down):  5.332E-02 0.000E+00

     total cpu time spent up to now is        4.4 secs

     total energy              =     -31.47654815 Ry
     Harris-Foulkes estimate   =     -33.34716505 Ry
     estimated scf accuracy    <       5.78918096 Ry

     iteration #  4     ecut=    30.00 Ry     beta=0.70
     Davidson diagonalization with overlap
     ethr =  1.00E-02,  avg # of iterations =  3.0

     negative rho (up, down):  4.619E-02 0.000E+00

     total cpu time spent up to now is        4.5 secs

     total energy              =     -31.46080226 Ry
     Harris-Foulkes estimate   =     -31.74491723 Ry
     estimated scf accuracy    <       1.50747852 Ry

     iteration #  5     ecut=    30.00 Ry     beta=0.70
     Davidson diagonalization with overlap
     ethr =  1.00E-02,  avg # of iterations =  2.0

     negative rho (up, down):  1.046E-02 0.000E+00

     total cpu time spent up to now is        4.5 secs

     total energy              =     -30.77333622 Ry
     Harris-Foulkes estimate   =     -31.95730432 Ry
     estimated scf accuracy    <       3.38929522 Ry

     iteration #  6     ecut=    30.00 Ry     beta=0.70
     Davidson diagonalization with overlap
     ethr =  1.00E-02,  avg # of iterations =  2.0

     negative rho (up, down):  1.775E-02 0.000E+00

     total cpu time spent up to now is        4.5 secs

     total energy              =     -31.83783887 Ry
     Harris-Foulkes estimate   =     -32.55693984 Ry
     estimated scf accuracy    <       5.14657988 Ry

     iteration #  7     ecut=    30.00 Ry     beta=0.70
     Davidson diagonalization with overlap
     ethr =  1.00E-02,  avg # of iterations =  1.0

     negative rho (up, down):  1.601E-02 0.000E+00

     total cpu time spent up to now is        4.6 secs

     total energy              =     -31.98788644 Ry
     Harris-Foulkes estimate   =     -31.87114460 Ry
     estimated scf accuracy    <       3.26363100 Ry

     iteration #  8     ecut=    30.00 Ry     beta=0.70
     Davidson diagonalization with overlap
     ethr =  1.00E-02,  avg # of iterations =  1.0

     negative rho (up, down):  1.569E-02 0.000E+00

     total cpu time spent up to now is        4.6 secs

     total energy              =     -32.02504948 Ry
     Harris-Foulkes estimate   =     -31.99049185 Ry
     estimated scf accuracy    <       3.74475411 Ry

     iteration #  9     ecut=    30.00 Ry     beta=0.70
     Davidson diagonalization with overlap
     ethr =  1.00E-02,  avg # of iterations =  1.0

     negative rho (up, down):  1.619E-02 0.000E+00

     total cpu time spent up to now is        4.6 secs

     total energy              =     -31.97252609 Ry
     Harris-Foulkes estimate   =     -32.02528082 Ry
     estimated scf accuracy    <       3.87548657 Ry

     iteration # 10     ecut=    30.00 Ry     beta=0.70
     Davidson diagonalization with overlap
     ethr =  1.00E-02,  avg # of iterations =  1.0

     negative rho (up, down):  2.630E-01 0.000E+00

     total cpu time spent up to now is        4.7 secs

     total energy              =     -33.81052327 Ry
     Harris-Foulkes estimate   =     -31.97283446 Ry
     estimated scf accuracy    <       3.70996648 Ry

     iteration # 11     ecut=    30.00 Ry     beta=0.70
     Davidson diagonalization with overlap
     ethr =  1.00E-02,  avg # of iterations =  8.0

     negative rho (up, down):  3.326E-01 0.000E+00

     total cpu time spent up to now is        4.7 secs

     total energy              =     -34.82918959 Ry
     Harris-Foulkes estimate   =     -34.61140338 Ry
     estimated scf accuracy    <      16.47685049 Ry

     iteration # 12     ecut=    30.00 Ry     beta=0.70
     Davidson diagonalization with overlap
     ethr =  1.00E-02,  avg # of iterations =  2.0

     negative rho (up, down):  7.032E-01 0.000E+00

     total cpu time spent up to now is        4.8 secs

     total energy              =     -35.20959812 Ry
     Harris-Foulkes estimate   =     -35.02229590 Ry
     estimated scf accuracy    <      16.91787761 Ry

     iteration # 13     ecut=    30.00 Ry     beta=0.70
     Davidson diagonalization with overlap
     ethr =  1.00E-02,  avg # of iterations =  6.0

     negative rho (up, down):  3.223E-01 0.000E+00

     total cpu time spent up to now is        4.8 secs

     total energy              =     -33.05774876 Ry
     Harris-Foulkes estimate   =     -37.33213752 Ry
     estimated scf accuracy    <      26.14319864 Ry

     iteration # 14     ecut=    30.00 Ry     beta=0.70
     Davidson diagonalization with overlap
     ethr =  1.00E-02,  avg # of iterations =  3.0

     negative rho (up, down):  2.766E-01 0.000E+00

     total cpu time spent up to now is        4.9 secs

     total energy              =     -28.11872707 Ry
     Harris-Foulkes estimate   =     -34.32874346 Ry
     estimated scf accuracy    <      16.83934021 Ry

     iteration # 15     ecut=    30.00 Ry     beta=0.70
     Davidson diagonalization with overlap
     ethr =  1.00E-02,  avg # of iterations =  9.0

     negative rho (up, down):  1.844E-01 0.000E+00

     total cpu time spent up to now is        4.9 secs

     total energy              =     -31.25960902 Ry
     Harris-Foulkes estimate   =     -32.34705738 Ry
     estimated scf accuracy    <       3.98538101 Ry

     iteration # 16     ecut=    30.00 Ry     beta=0.70
     Davidson diagonalization with overlap
     ethr =  1.00E-02,  avg # of iterations =  2.0

     negative rho (up, down):  2.342E-01 0.000E+00

     total cpu time spent up to now is        4.9 secs

     total energy              =     -31.49620608 Ry
     Harris-Foulkes estimate   =     -31.71910492 Ry
     estimated scf accuracy    <       1.38359014 Ry

     iteration # 17     ecut=    30.00 Ry     beta=0.70
     Davidson diagonalization with overlap
     ethr =  1.00E-02,  avg # of iterations =  1.0

     negative rho (up, down):  1.724E-01 0.000E+00

     total cpu time spent up to now is        5.0 secs

     total energy              =     -31.54290857 Ry
     Harris-Foulkes estimate   =     -31.53525289 Ry
     estimated scf accuracy    <       0.42497620 Ry

     iteration # 18     ecut=    30.00 Ry     beta=0.70
     Davidson diagonalization with overlap
     ethr =  5.31E-03,  avg # of iterations =  1.0

     negative rho (up, down):  1.459E-01 0.000E+00

     total cpu time spent up to now is        5.0 secs

     total energy              =     -31.50769120 Ry
     Harris-Foulkes estimate   =     -31.56181185 Ry
     estimated scf accuracy    <       1.51707237 Ry

     iteration # 19     ecut=    30.00 Ry     beta=0.70
     Davidson diagonalization with overlap
     ethr =  5.31E-03,  avg # of iterations =  1.0

     negative rho (up, down):  1.358E-01 0.000E+00

     total cpu time spent up to now is        5.0 secs

     total energy              =     -31.53516801 Ry
     Harris-Foulkes estimate   =     -31.51919178 Ry
     estimated scf accuracy    <       0.17696882 Ry

     iteration # 20     ecut=    30.00 Ry     beta=0.70
     Davidson diagonalization with overlap
     ethr =  2.21E-03,  avg # of iterations =  1.0

     negative rho (up, down):  1.206E-01 0.000E+00

     total cpu time spent up to now is        5.1 secs

     total energy              =     -31.56488685 Ry
     Harris-Foulkes estimate   =     -31.57090453 Ry
     estimated scf accuracy    <       1.32694406 Ry

     iteration # 21     ecut=    30.00 Ry     beta=0.70
     Davidson diagonalization with overlap
     ethr =  2.21E-03,  avg # of iterations =  1.0

     negative rho (up, down):  1.072E-01 0.000E+00

     total cpu time spent up to now is        5.1 secs

     total energy              =     -31.54399795 Ry
     Harris-Foulkes estimate   =     -31.56505848 Ry
     estimated scf accuracy    <       1.22262371 Ry

     iteration # 22     ecut=    30.00 Ry     beta=0.70
     Davidson diagonalization with overlap
     ethr =  2.21E-03,  avg # of iterations =  1.0

     negative rho (up, down):  7.312E-02 0.000E+00

     total cpu time spent up to now is        5.1 secs

     total energy              =     -31.48506230 Ry
     Harris-Foulkes estimate   =     -31.54424948 Ry
     estimated scf accuracy    <       1.12037510 Ry

     iteration # 23     ecut=    30.00 Ry     beta=0.70
     Davidson diagonalization with overlap
     ethr =  2.21E-03,  avg # of iterations =  1.0

     negative rho (up, down):  1.396E-02 0.000E+00

     total cpu time spent up to now is        5.2 secs

     total energy              =     -31.54126113 Ry
     Harris-Foulkes estimate   =     -31.53126153 Ry
     estimated scf accuracy    <       0.79580958 Ry

     iteration # 24     ecut=    30.00 Ry     beta=0.70
     Davidson diagonalization with overlap
     ethr =  2.21E-03,  avg # of iterations =  1.0

     negative rho (up, down):  2.907E-03 0.000E+00

     total cpu time spent up to now is        5.2 secs

     total energy              =     -31.49381220 Ry
     Harris-Foulkes estimate   =     -31.54398016 Ry
     estimated scf accuracy    <       1.51619706 Ry

     iteration # 25     ecut=    30.00 Ry     beta=0.70
     Davidson diagonalization with overlap
     ethr =  2.21E-03,  avg # of iterations =  1.0

     negative rho (up, down):  3.816E-04 0.000E+00

     total cpu time spent up to now is        5.2 secs

     total energy              =     -31.52842784 Ry
     Harris-Foulkes estimate   =     -31.52679308 Ry
     estimated scf accuracy    <       0.16664833 Ry

     iteration # 26     ecut=    30.00 Ry     beta=0.70
     Davidson diagonalization with overlap
     ethr =  2.08E-03,  avg # of iterations =  1.0

     negative rho (up, down):  3.090E-05 0.000E+00

     total cpu time spent up to now is        5.3 secs

     total energy              =     -31.52578302 Ry
     Harris-Foulkes estimate   =     -31.52890974 Ry
     estimated scf accuracy    <       0.32203477 Ry

     iteration # 27     ecut=    30.00 Ry     beta=0.70
     Davidson diagonalization with overlap
     ethr =  2.08E-03,  avg # of iterations =  1.0

     negative rho (up, down):  8.376E-06 0.000E+00

     total cpu time spent up to now is        5.3 secs

     total energy              =     -31.52137162 Ry
     Harris-Foulkes estimate   =     -31.52627032 Ry
     estimated scf accuracy    <       0.14698578 Ry

     iteration # 28     ecut=    30.00 Ry     beta=0.70
     Davidson diagonalization with overlap
     ethr =  1.84E-03,  avg # of iterations =  1.0

     negative rho (up, down):  1.200E-06 0.000E+00

     total cpu time spent up to now is        5.3 secs

     total energy              =     -31.52412389 Ry
     Harris-Foulkes estimate   =     -31.52448909 Ry
     estimated scf accuracy    <       0.01259307 Ry

     iteration # 29     ecut=    30.00 Ry     beta=0.70
     Davidson diagonalization with overlap
     ethr =  1.57E-04,  avg # of iterations =  1.0

     total cpu time spent up to now is        5.4 secs

     total energy              =     -31.52427427 Ry
     Harris-Foulkes estimate   =     -31.52428109 Ry
     estimated scf accuracy    <       0.00019748 Ry

     iteration # 30     ecut=    30.00 Ry     beta=0.70
     Davidson diagonalization with overlap
     c_bands:  1 eigenvalues not converged
     ethr =  2.47E-06,  avg # of iterations = 20.0

     total cpu time spent up to now is        5.4 secs

     total energy              =     -31.52428164 Ry
     Harris-Foulkes estimate   =     -31.52428041 Ry
     estimated scf accuracy    <       0.00003969 Ry

     iteration # 31     ecut=    30.00 Ry     beta=0.70
     Davidson diagonalization with overlap
     ethr =  4.96E-07,  avg # of iterations =  1.0

     total cpu time spent up to now is        5.5 secs

     total energy              =     -31.52428242 Ry
     Harris-Foulkes estimate   =     -31.52428192 Ry
     estimated scf accuracy    <       0.00000407 Ry

     iteration # 32     ecut=    30.00 Ry     beta=0.70
     Davidson diagonalization with overlap
     ethr =  5.09E-08,  avg # of iterations =  1.0

     total cpu time spent up to now is        5.5 secs

     total energy              =     -31.52428240 Ry
     Harris-Foulkes estimate   =     -31.52428258 Ry
     estimated scf accuracy    <       0.00000179 Ry

     iteration # 33     ecut=    30.00 Ry     beta=0.70
     Davidson diagonalization with overlap
     ethr =  2.23E-08,  avg # of iterations =  1.0

     total cpu time spent up to now is        5.5 secs

     total energy              =     -31.52428240 Ry
     Harris-Foulkes estimate   =     -31.52428244 Ry
     estimated scf accuracy    <       0.00000026 Ry

     iteration # 34     ecut=    30.00 Ry     beta=0.70
     Davidson diagonalization with overlap
     ethr =  3.29E-09,  avg # of iterations =  1.0

     total cpu time spent up to now is        5.6 secs

     total energy              =     -31.52428243 Ry
     Harris-Foulkes estimate   =     -31.52428240 Ry
     estimated scf accuracy    <       0.00000003 Ry

     iteration # 35     ecut=    30.00 Ry     beta=0.70
     Davidson diagonalization with overlap
     ethr =  3.82E-10,  avg # of iterations =  1.0

     total cpu time spent up to now is        5.6 secs

     End of self-consistent calculation

          k = 0.0000 0.0000 0.0000 ( 22119 PWs)   bands (ev):

   -23.6241  -7.3446  -7.0199  -7.0172  -6.9054  -6.5923  -0.1572   0.6362

     the Fermi energy is    -6.8781 ev

!    total energy              =     -31.52428243 Ry
     Harris-Foulkes estimate   =     -31.52428243 Ry
     estimated scf accuracy    <          2.5E-10 Ry

     convergence has been achieved in  35 iterations

     Forces acting on atoms (Ry/au):

     atom    1 type  1   force =    -0.00002659    0.00013332   -0.00064424
     atom    2 type  1   force =     0.01906241   -0.03357384    0.01303930
     atom    3 type  2   force =    -0.01903582    0.03344052   -0.01239506

     Total force =     0.057405     Total SCF correction =     0.000008

     Entering Dynamics:    iteration =     4
                           time      =   0.0194 pico-seconds


     Andersen thermostat:    3 collisions

ATOMIC_POSITIONS (bohr)
H        3.484023944  11.933446962  17.315881479
H       19.187739337  13.506124539   6.165361341
O        1.678592964   9.142364585   7.855520329


     kinetic energy (Ekin) =     0.01183641 Ry
     temperature           =   622.93945398 K 
     Ekin + Etot (const)   =   -31.51244602 Ry
     Message from routine dynamics:
     Total linear momentum <> 0

     Linear momentum :    0.0634537004    0.4115104620    0.2765918689

     Writing output data file pwscf.save

     second order wave-functions extrapolation
     Check: negative starting charge=   -0.339746
     second order charge density extrapolation
     Check: negative starting charge=   -0.339048

     negative rho (up, down):  5.088E-02 0.000E+00

     total cpu time spent up to now is        6.1 secs

     per-process dynamical memory:    20.4 Mb

     Self-consistent Calculation

     iteration #  1     ecut=    30.00 Ry     beta=0.70
     Davidson diagonalization with overlap
     c_bands:  1 eigenvalues not converged
     ethr =  1.00E-06,  avg # of iterations = 20.0

     negative rho (up, down):  1.185E-02 0.000E+00

     total cpu time spent up to now is        6.2 secs

     total energy              =     -31.47638421 Ry
     Harris-Foulkes estimate   =     -31.48984563 Ry
     estimated scf accuracy    <       0.06473373 Ry

     iteration #  2     ecut=    30.00 Ry     beta=0.70
     Davidson diagonalization with overlap
     ethr =  8.09E-04,  avg # of iterations =  2.0

     negative rho (up, down):  1.067E-02 0.000E+00

     total cpu time spent up to now is        6.3 secs

     total energy              =     -31.49559318 Ry
     Harris-Foulkes estimate   =     -32.03398371 Ry
     estimated scf accuracy    <       4.14607232 Ry

     iteration #  3     ecut=    30.00 Ry     beta=0.70
     Davidson diagonalization with overlap
     ethr =  8.09E-04,  avg # of iterations =  2.0

     negative rho (up, down):  1.094E-02 0.000E+00

     total cpu time spent up to now is        6.3 secs

     total energy              =     -31.54660807 Ry
     Harris-Foulkes estimate   =     -31.53882369 Ry
     estimated scf accuracy    <       0.86952040 Ry

     iteration #  4     ecut=    30.00 Ry     beta=0.70
     Davidson diagonalization with overlap
     ethr =  8.09E-04,  avg # of iterations =  1.0

     negative rho (up, down):  9.144E-03 0.000E+00

     total cpu time spent up to now is        6.4 secs

     total energy              =     -31.52045281 Ry
     Harris-Foulkes estimate   =     -31.54860333 Ry
     estimated scf accuracy    <       1.60790020 Ry

     iteration #  5     ecut=    30.00 Ry     beta=0.70
     Davidson diagonalization with overlap
     ethr =  8.09E-04,  avg # of iterations =  1.0

     negative rho (up, down):  1.341E-03 0.000E+00

     total cpu time spent up to now is        6.4 secs

     total energy              =     -31.53575230 Ry
     Harris-Foulkes estimate   =     -31.53069861 Ry
     estimated scf accuracy    <       0.12817605 Ry

     iteration #  6     ecut=    30.00 Ry     beta=0.70
     Davidson diagonalization with overlap
     ethr =  8.09E-04,  avg # of iterations =  3.0

     negative rho (up, down):  1.242E-04 0.000E+00

     total cpu time spent up to now is        6.4 secs

     total energy              =     -31.53777454 Ry
     Harris-Foulkes estimate   =     -31.53745149 Ry
     estimated scf accuracy    <       0.00047933 Ry

     iteration #  7     ecut=    30.00 Ry     beta=0.70
     Davidson diagonalization with overlap
     ethr =  5.99E-06,  avg # of iterations = 10.0

     negative rho (up, down):  2.264E-06 0.000E+00

     total cpu time spent up to now is        6.5 secs

     total energy              =     -31.53781337 Ry
     Harris-Foulkes estimate   =     -31.53800793 Ry
     estimated scf accuracy    <       0.01469884 Ry

     iteration #  8     ecut=    30.00 Ry     beta=0.70
     Davidson diagonalization with overlap
     ethr =  5.99E-06,  avg # of iterations =  1.0

     total cpu time spent up to now is        6.5 secs

     total energy              =     -31.53784234 Ry
     Harris-Foulkes estimate   =     -31.53787510 Ry
     estimated scf accuracy    <       0.00247629 Ry

     iteration #  9     ecut=    30.00 Ry     beta=0.70
     Davidson diagonalization with overlap
     ethr =  5.99E-06,  avg # of iterations =  1.0

     total cpu time spent up to now is        6.5 secs

     total energy              =     -31.53785084 Ry
     Harris-Foulkes estimate   =     -31.53785189 Ry
     estimated scf accuracy    <       0.00048340 Ry

     iteration # 10     ecut=    30.00 Ry     beta=0.70
     Davidson diagonalization with overlap
     ethr =  5.99E-06,  avg # of iterations =  1.0

     total cpu time spent up to now is        6.6 secs

     total energy              =     -31.53783149 Ry
     Harris-Foulkes estimate   =     -31.53785108 Ry
     estimated scf accuracy    <       0.00061382 Ry

     iteration # 11     ecut=    30.00 Ry     beta=0.70
     Davidson diagonalization with overlap
     ethr =  5.99E-06,  avg # of iterations =  1.0

     total cpu time spent up to now is        6.6 secs

     total energy              =     -31.53784290 Ry
     Harris-Foulkes estimate   =     -31.53784439 Ry
     estimated scf accuracy    <       0.00006965 Ry

     iteration # 12     ecut=    30.00 Ry     beta=0.70
     Davidson diagonalization with overlap
     ethr =  8.71E-07,  avg # of iterations =  1.0

     total cpu time spent up to now is        6.6 secs

     total energy              =     -31.53784326 Ry
     Harris-Foulkes estimate   =     -31.53784347 Ry
     estimated scf accuracy    <       0.00000220 Ry

     iteration # 13     ecut=    30.00 Ry     beta=0.70
     Davidson diagonalization with overlap
     ethr =  2.75E-08,  avg # of iterations =  1.0

     total cpu time spent up to now is        6.6 secs

     End of self-consistent calculation

          k = 0.0000 0.0000 0.0000 ( 22119 PWs)   bands (ev):

   -23.6211  -7.4760  -6.9913  -6.9894  -6.8700  -6.5268  -0.1501   0.6443

     the Fermi energy is    -6.8409 ev

!    total energy              =     -31.53784327 Ry
     Harris-Foulkes estimate   =     -31.53784329 Ry
     estimated scf accuracy    <          2.9E-09 Ry

     convergence has been achieved in  13 iterations

     Forces acting on atoms (Ry/au):

     atom    1 type  1   force =    -0.00005870    0.00008829   -0.00097825
     atom    2 type  1   force =     0.02088645   -0.03722176    0.01357758
     atom    3 type  2   force =    -0.02082775    0.03713347   -0.01259934

     Total force =     0.063075     Total SCF correction =     0.000095

     Entering Dynamics:    iteration =     5
                           time      =   0.0242 pico-seconds


     Andersen thermostat:    3 collisions

ATOMIC_POSITIONS (bohr)
H        3.480277215  11.693312914  17.171391570
H       19.161216029  13.009094685   6.539944311
O        1.680503760   9.188898056   7.840995704


     kinetic energy (Ekin) =     0.01445004 Ry
     temperature           =   760.49267596 K 
     Ekin + Etot (const)   =   -31.52339323 Ry
     Message from routine dynamics:
     Total linear momentum <> 0

     Linear momentum :    0.1901051470   -0.0400811940    0.1802307339

     Writing output data file pwscf.save

     second order wave-functions extrapolation
     Check: negative starting charge=   -0.339048
     second order charge density extrapolation
     Check: negative starting charge=   -0.338796

     negative rho (up, down):  7.247E-02 0.000E+00

     total cpu time spent up to now is        7.0 secs

     per-process dynamical memory:    20.4 Mb

     Self-consistent Calculation

     iteration #  1     ecut=    30.00 Ry     beta=0.70
     Davidson diagonalization with overlap
     c_bands:  1 eigenvalues not converged
     ethr =  1.00E-06,  avg # of iterations = 20.0

     negative rho (up, down):  1.706E-02 0.000E+00

     total cpu time spent up to now is        7.1 secs

     total energy              =     -31.15933002 Ry
     Harris-Foulkes estimate   =     -31.51526715 Ry
     estimated scf accuracy    <       0.50062405 Ry

     iteration #  2     ecut=    30.00 Ry     beta=0.70
     Davidson diagonalization with overlap
     ethr =  6.26E-03,  avg # of iterations =  2.0

     negative rho (up, down):  1.408E-02 0.000E+00

     total cpu time spent up to now is        7.2 secs

     total energy              =     -31.62902183 Ry
     Harris-Foulkes estimate   =     -32.92445846 Ry
     estimated scf accuracy    <       4.74810061 Ry

     iteration #  3     ecut=    30.00 Ry     beta=0.70
     Davidson diagonalization with overlap
     ethr =  6.26E-03,  avg # of iterations =  2.0

     negative rho (up, down):  1.236E-02 0.000E+00

     total cpu time spent up to now is        7.3 secs

     total energy              =     -31.66256664 Ry
     Harris-Foulkes estimate   =     -31.82437035 Ry
     estimated scf accuracy    <       1.06840980 Ry

     iteration #  4     ecut=    30.00 Ry     beta=0.70
     Davidson diagonalization with overlap
     ethr =  6.26E-03,  avg # of iterations =  1.0

     negative rho (up, down):  1.205E-02 0.000E+00

     total cpu time spent up to now is        7.4 secs

     total energy              =     -31.66692935 Ry
     Harris-Foulkes estimate   =     -31.70640885 Ry
     estimated scf accuracy    <       1.51178542 Ry

     iteration #  5     ecut=    30.00 Ry     beta=0.70
     Davidson diagonalization with overlap
     ethr =  6.26E-03,  avg # of iterations =  1.0

     negative rho (up, down):  1.377E-02 0.000E+00

     total cpu time spent up to now is        7.4 secs

     total energy              =     -31.82742216 Ry
     Harris-Foulkes estimate   =     -31.66779278 Ry
     estimated scf accuracy    <       1.31137790 Ry

     iteration #  6     ecut=    30.00 Ry     beta=0.70
     Davidson diagonalization with overlap
     ethr =  6.26E-03,  avg # of iterations =  1.0

     negative rho (up, down):  1.000E-02 0.000E+00

     total cpu time spent up to now is        7.4 secs

     total energy              =     -31.48558935 Ry
     Harris-Foulkes estimate   =     -31.83061536 Ry
     estimated scf accuracy    <       1.79712504 Ry

     iteration #  7     ecut=    30.00 Ry     beta=0.70
     Davidson diagonalization with overlap
     ethr =  6.26E-03,  avg # of iterations =  1.0

     negative rho (up, down):  1.768E-03 0.000E+00

     total cpu time spent up to now is        7.4 secs

     total energy              =     -31.66365397 Ry
     Harris-Foulkes estimate   =     -31.61214970 Ry
     estimated scf accuracy    <       1.28408966 Ry

     iteration #  8     ecut=    30.00 Ry     beta=0.70
     Davidson diagonalization with overlap
     ethr =  6.26E-03,  avg # of iterations =  1.0

     negative rho (up, down):  6.442E-04 0.000E+00

     total cpu time spent up to now is        7.5 secs

     total energy              =     -31.62852634 Ry
     Harris-Foulkes estimate   =     -31.66698463 Ry
     estimated scf accuracy    <       1.47079965 Ry

     iteration #  9     ecut=    30.00 Ry     beta=0.70
     Davidson diagonalization with overlap
     ethr =  6.26E-03,  avg # of iterations =  1.0

     negative rho (up, down):  5.330E-05 0.000E+00

     total cpu time spent up to now is        7.5 secs

     total energy              =     -31.39124859 Ry
     Harris-Foulkes estimate   =     -31.62839584 Ry
     estimated scf accuracy    <       1.46889021 Ry

     iteration # 10     ecut=    30.00 Ry     beta=0.70
     Davidson diagonalization with overlap
     ethr =  6.26E-03,  avg # of iterations =  1.0

     total cpu time spent up to now is        7.5 secs

     total energy              =     -31.63543628 Ry
     Harris-Foulkes estimate   =     -31.70339944 Ry
     estimated scf accuracy    <       1.22335132 Ry

     iteration # 11     ecut=    30.00 Ry     beta=0.70
     Davidson diagonalization with overlap
     ethr =  6.26E-03,  avg # of iterations =  1.0

     negative rho (up, down):  2.081E-05 0.000E+00

     total cpu time spent up to now is        7.6 secs

     total energy              =     -31.54486706 Ry
     Harris-Foulkes estimate   =     -31.63593332 Ry
     estimated scf accuracy    <       1.05243662 Ry

     iteration # 12     ecut=    30.00 Ry     beta=0.70
     Davidson diagonalization with overlap
     ethr =  6.26E-03,  avg # of iterations =  1.0

     negative rho (up, down):  2.059E-04 0.000E+00

     total cpu time spent up to now is        7.6 secs

     total energy              =     -31.56601241 Ry
     Harris-Foulkes estimate   =     -31.56988891 Ry
     estimated scf accuracy    <       0.11180249 Ry

     iteration # 13     ecut=    30.00 Ry     beta=0.70
     Davidson diagonalization with overlap
     ethr =  1.40E-03,  avg # of iterations =  1.0

     negative rho (up, down):  5.817E-06 0.000E+00

     total cpu time spent up to now is        7.6 secs

     total energy              =     -31.57318389 Ry
     Harris-Foulkes estimate   =     -31.56880877 Ry
     estimated scf accuracy    <       0.01796459 Ry

     iteration # 14     ecut=    30.00 Ry     beta=0.70
     Davidson diagonalization with overlap
     ethr =  2.25E-04,  avg # of iterations =  1.0

     negative rho (up, down):  4.948E-07 0.000E+00

     total cpu time spent up to now is        7.7 secs

     total energy              =     -31.59646285 Ry
     Harris-Foulkes estimate   =     -31.58482111 Ry
     estimated scf accuracy    <       0.70499553 Ry

     iteration # 15     ecut=    30.00 Ry     beta=0.70
     Davidson diagonalization with overlap
     ethr =  2.25E-04,  avg # of iterations =  1.0

     negative rho (up, down):  2.955E-07 0.000E+00

     total cpu time spent up to now is        7.7 secs

     total energy              =     -31.58446374 Ry
     Harris-Foulkes estimate   =     -31.59715687 Ry
     estimated scf accuracy    <       0.87650636 Ry

     iteration # 16     ecut=    30.00 Ry     beta=0.70
     Davidson diagonalization with overlap
     ethr =  2.25E-04,  avg # of iterations =  1.0

     negative rho (up, down):  1.256E-05 0.000E+00

     total cpu time spent up to now is        7.7 secs

     total energy              =     -31.58222592 Ry
     Harris-Foulkes estimate   =     -31.58489826 Ry
     estimated scf accuracy    <       0.70745747 Ry

     iteration # 17     ecut=    30.00 Ry     beta=0.70
     Davidson diagonalization with overlap
     ethr =  2.25E-04,  avg # of iterations =  1.0

     negative rho (up, down):  3.738E-05 0.000E+00

     total cpu time spent up to now is        7.8 secs

     total energy              =     -31.57515457 Ry
     Harris-Foulkes estimate   =     -31.58228608 Ry
     estimated scf accuracy    <       0.63995593 Ry

     iteration # 18     ecut=    30.00 Ry     beta=0.70
     Davidson diagonalization with overlap
     ethr =  2.25E-04,  avg # of iterations =  1.0

     negative rho (up, down):  7.495E-06 0.000E+00

     total cpu time spent up to now is        7.8 secs

     total energy              =     -31.54629072 Ry
     Harris-Foulkes estimate   =     -31.57577910 Ry
     estimated scf accuracy    <       0.41377730 Ry

     iteration # 19     ecut=    30.00 Ry     beta=0.70
     Davidson diagonalization with overlap
     ethr =  2.25E-04,  avg # of iterations =  1.0

     negative rho (up, down):  2.304E-06 0.000E+00

     total cpu time spent up to now is        7.9 secs

     total energy              =     -31.55152416 Ry
     Harris-Foulkes estimate   =     -31.58190641 Ry
     estimated scf accuracy    <       0.96688023 Ry

     iteration # 20     ecut=    30.00 Ry     beta=0.70
     Davidson diagonalization with overlap
     ethr =  2.25E-04,  avg # of iterations =  1.0

     total cpu time spent up to now is        7.9 secs

     total energy              =     -31.56762533 Ry
     Harris-Foulkes estimate   =     -31.56899819 Ry
     estimated scf accuracy    <       0.03477874 Ry

     iteration # 21     ecut=    30.00 Ry     beta=0.70
     Davidson diagonalization with overlap
     ethr =  2.25E-04,  avg # of iterations =  1.0

     negative rho (up, down):  1.397E-07 0.000E+00

     total cpu time spent up to now is        7.9 secs

     total energy              =     -31.56859317 Ry
     Harris-Foulkes estimate   =     -31.56864296 Ry
     estimated scf accuracy    <       0.00880630 Ry

     iteration # 22     ecut=    30.00 Ry     beta=0.70
     Davidson diagonalization with overlap
     ethr =  1.10E-04,  avg # of iterations =  1.0

     total cpu time spent up to now is        8.0 secs

     total energy              =     -31.56846518 Ry
     Harris-Foulkes estimate   =     -31.56859969 Ry
     estimated scf accuracy    <       0.00511079 Ry

     iteration # 23     ecut=    30.00 Ry     beta=0.70
     Davidson diagonalization with overlap
     ethr =  6.39E-05,  avg # of iterations =  3.0

     total cpu time spent up to now is        8.0 secs

     total energy              =     -31.56853167 Ry
     Harris-Foulkes estimate   =     -31.56853200 Ry
     estimated scf accuracy    <       0.00000095 Ry

     iteration # 24     ecut=    30.00 Ry     beta=0.70
     Davidson diagonalization with overlap
     ethr =  1.18E-08,  avg # of iterations = 12.0

     total cpu time spent up to now is        8.0 secs

     total energy              =     -31.56853184 Ry
     Harris-Foulkes estimate   =     -31.56853191 Ry
     estimated scf accuracy    <       0.00001253 Ry

     iteration # 25     ecut=    30.00 Ry     beta=0.70
     Davidson diagonalization with overlap
     ethr =  1.18E-08,  avg # of iterations =  1.0

     total cpu time spent up to now is        8.1 secs

     total energy              =     -31.56853122 Ry
     Harris-Foulkes estimate   =     -31.56853189 Ry
     estimated scf accuracy    <       0.00002982 Ry

     iteration # 26     ecut=    30.00 Ry     beta=0.70
     Davidson diagonalization with overlap
     ethr =  1.18E-08,  avg # of iterations =  1.0

     total cpu time spent up to now is        8.1 secs

     total energy              =     -31.56853142 Ry
     Harris-Foulkes estimate   =     -31.56853149 Ry
     estimated scf accuracy    <       0.00000087 Ry

     iteration # 27     ecut=    30.00 Ry     beta=0.70
     Davidson diagonalization with overlap
     ethr =  1.09E-08,  avg # of iterations =  1.0

     total cpu time spent up to now is        8.1 secs

     total energy              =     -31.56853157 Ry
     Harris-Foulkes estimate   =     -31.56853150 Ry
     estimated scf accuracy    <       0.00000249 Ry

     iteration # 28     ecut=    30.00 Ry     beta=0.70
     Davidson diagonalization with overlap
     ethr =  1.09E-08,  avg # of iterations =  1.0

     total cpu time spent up to now is        8.2 secs

     total energy              =     -31.56853163 Ry
     Harris-Foulkes estimate   =     -31.56853161 Ry
     estimated scf accuracy    <       0.00000002 Ry

     iteration # 29     ecut=    30.00 Ry     beta=0.70
     Davidson diagonalization with overlap
     ethr =  2.16E-10,  avg # of iterations =  1.0

     total cpu time spent up to now is        8.2 secs

     total energy              =     -31.56853166 Ry
     Harris-Foulkes estimate   =     -31.56853163 Ry
     estimated scf accuracy    <       0.00000004 Ry

     iteration # 30     ecut=    30.00 Ry     beta=0.70
     Davidson diagonalization with overlap
     ethr =  2.16E-10,  avg # of iterations =  1.0

     total cpu time spent up to now is        8.3 secs

     End of self-consistent calculation

          k = 0.0000 0.0000 0.0000 ( 22119 PWs)   bands (ev):

   -23.5925  -7.7514  -6.9215  -6.9196  -6.7845  -6.3301  -0.1366   0.6689

     the Fermi energy is    -6.7535 ev

!    total energy              =     -31.56853158 Ry
     Harris-Foulkes estimate   =     -31.56853166 Ry
     estimated scf accuracy    <          6.6E-09 Ry

     convergence has been achieved in  30 iterations

     Forces acting on atoms (Ry/au):

     atom    1 type  1   force =    -0.00015547   -0.00051975   -0.00104442
     atom    2 type  1   force =     0.03854645   -0.05913621    0.01910122
     atom    3 type  2   force =    -0.03839098    0.05965597   -0.01805680

     Total force =     0.103479     Total SCF correction =     0.000171

     Entering Dynamics:    iteration =     6
                           time      =   0.0290 pico-seconds


     Andersen thermostat:    3 collisions

ATOMIC_POSITIONS (bohr)
H        3.541465352  12.067230175  17.343794042
H       19.210817945  12.184499267   6.546212679
O        1.673510138   9.217347115   7.829717108


     kinetic energy (Ekin) =     0.02240325 Ry
     temperature           =  1179.06330439 K 
     Ekin + Etot (const)   =   -31.54612833 Ry
     Message from routine dynamics:
     Total linear momentum <> 0

     Linear momentum :   -0.1765377778   -0.1858455979   -0.0726265230

     Writing output data file pwscf.save

     second order wave-functions extrapolation
     Check: negative starting charge=   -0.338796
     second order charge density extrapolation
     Check: negative starting charge=   -0.339823

     negative rho (up, down):  7.420E-02 0.000E+00

     total cpu time spent up to now is        8.7 secs

     per-process dynamical memory:    20.4 Mb

     Self-consistent Calculation

     iteration #  1     ecut=    30.00 Ry     beta=0.70
     Davidson diagonalization with overlap
     c_bands:  1 eigenvalues not converged
     ethr =  1.00E-06,  avg # of iterations = 20.0

     negative rho (up, down):  1.739E-02 0.000E+00

     total cpu time spent up to now is        8.9 secs

     total energy              =     -22.73485500 Ry
     Harris-Foulkes estimate   =     -34.74883890 Ry
     estimated scf accuracy    <       3.86799798 Ry

     iteration #  2     ecut=    30.00 Ry     beta=0.70
     Davidson diagonalization with overlap
     ethr =  1.00E-02,  avg # of iterations =  3.0

     negative rho (up, down):  1.095E-02 0.000E+00

     total cpu time spent up to now is        8.9 secs

     total energy              =     -31.89330392 Ry
     Harris-Foulkes estimate   =     -33.84572289 Ry
     estimated scf accuracy    <       4.49991701 Ry

     iteration #  3     ecut=    30.00 Ry     beta=0.70
     Davidson diagonalization with overlap
     ethr =  1.00E-02,  avg # of iterations =  1.0

     negative rho (up, down):  9.905E-03 0.000E+00

     total cpu time spent up to now is        8.9 secs

     total energy              =     -31.87295410 Ry
     Harris-Foulkes estimate   =     -32.56066404 Ry
     estimated scf accuracy    <       3.62663079 Ry

     iteration #  4     ecut=    30.00 Ry     beta=0.70
     Davidson diagonalization with overlap
     ethr =  1.00E-02,  avg # of iterations =  1.0

     negative rho (up, down):  7.874E-03 0.000E+00

     total cpu time spent up to now is        9.0 secs

     total energy              =     -31.78716078 Ry
     Harris-Foulkes estimate   =     -32.05399544 Ry
     estimated scf accuracy    <       1.74829547 Ry

     iteration #  5     ecut=    30.00 Ry     beta=0.70
     Davidson diagonalization with overlap
     ethr =  1.00E-02,  avg # of iterations =  1.0

     negative rho (up, down):  5.455E-03 0.000E+00

     total cpu time spent up to now is        9.0 secs

     total energy              =     -31.61094378 Ry
     Harris-Foulkes estimate   =     -31.85318057 Ry
     estimated scf accuracy    <       1.53941760 Ry

     iteration #  6     ecut=    30.00 Ry     beta=0.70
     Davidson diagonalization with overlap
     ethr =  1.00E-02,  avg # of iterations =  1.0

     negative rho (up, down):  3.892E-03 0.000E+00

     total cpu time spent up to now is        9.0 secs

     total energy              =     -31.72416114 Ry
     Harris-Foulkes estimate   =     -31.82669035 Ry
     estimated scf accuracy    <       1.34227087 Ry

     iteration #  7     ecut=    30.00 Ry     beta=0.70
     Davidson diagonalization with overlap
     ethr =  1.00E-02,  avg # of iterations =  1.0

     negative rho (up, down):  3.385E-03 0.000E+00

     total cpu time spent up to now is        9.1 secs

     total energy              =     -31.65331244 Ry
     Harris-Foulkes estimate   =     -31.72765369 Ry
     estimated scf accuracy    <       1.29783595 Ry

     iteration #  8     ecut=    30.00 Ry     beta=0.70
     Davidson diagonalization with overlap
     ethr =  1.00E-02,  avg # of iterations =  1.0

     negative rho (up, down):  2.636E-03 0.000E+00

     total cpu time spent up to now is        9.1 secs

     total energy              =     -31.63865218 Ry
     Harris-Foulkes estimate   =     -31.66151689 Ry
     estimated scf accuracy    <       0.17595509 Ry

     iteration #  9     ecut=    30.00 Ry     beta=0.70
     Davidson diagonalization with overlap
     ethr =  2.20E-03,  avg # of iterations =  1.0

     negative rho (up, down):  2.201E-03 0.000E+00

     total cpu time spent up to now is        9.1 secs

     total energy              =     -31.63123785 Ry
     Harris-Foulkes estimate   =     -31.64428583 Ry
     estimated scf accuracy    <       0.24521350 Ry

     iteration # 10     ecut=    30.00 Ry     beta=0.70
     Davidson diagonalization with overlap
     ethr =  2.20E-03,  avg # of iterations =  1.0

     negative rho (up, down):  6.089E-05 0.000E+00

     total cpu time spent up to now is        9.2 secs

     total energy              =     -31.62096824 Ry
     Harris-Foulkes estimate   =     -31.63879909 Ry
     estimated scf accuracy    <       0.21371627 Ry

     iteration # 11     ecut=    30.00 Ry     beta=0.70
     Davidson diagonalization with overlap
     ethr =  2.20E-03,  avg # of iterations =  1.0

     negative rho (up, down):  2.990E-05 0.000E+00

     total cpu time spent up to now is        9.2 secs

     total energy              =     -31.63444687 Ry
     Harris-Foulkes estimate   =     -31.63360525 Ry
     estimated scf accuracy    <       0.18257024 Ry

     iteration # 12     ecut=    30.00 Ry     beta=0.70
     Davidson diagonalization with overlap
     ethr =  2.20E-03,  avg # of iterations =  1.0

     negative rho (up, down):  1.910E-05 0.000E+00

     total cpu time spent up to now is        9.2 secs

     total energy              =     -31.63577229 Ry
     Harris-Foulkes estimate   =     -31.63471878 Ry
     estimated scf accuracy    <       0.24897227 Ry

     iteration # 13     ecut=    30.00 Ry     beta=0.70
     Davidson diagonalization with overlap
     ethr =  2.20E-03,  avg # of iterations =  1.0

     negative rho (up, down):  2.706E-06 0.000E+00

     total cpu time spent up to now is        9.3 secs

     total energy              =     -31.63285673 Ry
     Harris-Foulkes estimate   =     -31.63585329 Ry
     estimated scf accuracy    <       0.31602722 Ry

     iteration # 14     ecut=    30.00 Ry     beta=0.70
     Davidson diagonalization with overlap
     ethr =  2.20E-03,  avg # of iterations =  1.0

     negative rho (up, down):  3.751E-08 0.000E+00

     total cpu time spent up to now is        9.3 secs

     total energy              =     -31.62917410 Ry
     Harris-Foulkes estimate   =     -31.63326540 Ry
[...]
     Harris-Foulkes estimate   =  -19617.39652726 Ry
     estimated scf accuracy    <      57.37240802 Ry

     iteration # 59     ecut=    30.00 Ry     beta=0.70
     Davidson diagonalization with overlap
     ethr =  1.00E-02,  avg # of iterations =  6.0

     negative rho (up, down):  2.948E-01 0.000E+00

     total cpu time spent up to now is       15.6 secs

     total energy              =      74.31227706 Ry
     Harris-Foulkes estimate   =    -506.10150493 Ry
     estimated scf accuracy    <      56.97999887 Ry

     iteration # 60     ecut=    30.00 Ry     beta=0.70
     Davidson diagonalization with overlap
     ethr =  1.00E-02,  avg # of iterations =  8.0

     negative rho (up, down):  1.152E+00 0.000E+00

     total cpu time spent up to now is       15.7 secs

     total energy              =     -68.36379347 Ry
     Harris-Foulkes estimate   =    -289.30144238 Ry
     estimated scf accuracy    <      53.58041386 Ry

     iteration # 61     ecut=    30.00 Ry     beta=0.70
     Davidson diagonalization with overlap
     ethr =  1.00E-02,  avg # of iterations = 13.0

     negative rho (up, down):  1.495E+00 0.000E+00

     total cpu time spent up to now is       15.7 secs

     total energy              =      64.98032555 Ry
     Harris-Foulkes estimate   =   -6406.84115547 Ry
     estimated scf accuracy    <      41.03707487 Ry

     iteration # 62     ecut=    30.00 Ry     beta=0.70
     Davidson diagonalization with overlap
     ethr =  1.00E-02,  avg # of iterations = 12.0

     negative rho (up, down):  1.863E+00 0.000E+00

     total cpu time spent up to now is       15.8 secs

     total energy              =      -7.43176810 Ry
     Harris-Foulkes estimate   =    -778.23846906 Ry
     estimated scf accuracy    <      43.75809751 Ry

     iteration # 63     ecut=    30.00 Ry     beta=0.70
     Davidson diagonalization with overlap
     ethr =  1.00E-02,  avg # of iterations =  8.0

     negative rho (up, down):  2.130E+00 0.000E+00

     total cpu time spent up to now is       15.9 secs

     total energy              =    -107.77121579 Ry
     Harris-Foulkes estimate   =   -2012.43599942 Ry
     estimated scf accuracy    <      39.90627988 Ry

     iteration # 64     ecut=    30.00 Ry     beta=0.70
     Davidson diagonalization with overlap
     ethr =  1.00E-02,  avg # of iterations =  8.0

     negative rho (up, down):  2.140E+00 0.000E+00

     total cpu time spent up to now is       15.9 secs

     total energy              =     102.04004134 Ry
     Harris-Foulkes estimate   =  -12450.76794513 Ry
     estimated scf accuracy    <      37.04619237 Ry

     iteration # 65     ecut=    30.00 Ry     beta=0.70
     Davidson diagonalization with overlap
     ethr =  1.00E-02,  avg # of iterations =  9.0

     negative rho (up, down):  2.425E+00 0.000E+00

     total cpu time spent up to now is       16.0 secs

     total energy              =    -815.57766350 Ry
     Harris-Foulkes estimate   =    -781.35950221 Ry
     estimated scf accuracy    <      35.55074396 Ry

     iteration # 66     ecut=    30.00 Ry     beta=0.70
     Davidson diagonalization with overlap
     ethr =  1.00E-02,  avg # of iterations =  9.0

     negative rho (up, down):  1.103E+00 0.000E+00

     total cpu time spent up to now is       16.0 secs

     total energy              =    -489.85087203 Ry
     Harris-Foulkes estimate   =   -9085.86252709 Ry
     estimated scf accuracy    <      43.31433596 Ry

     iteration # 67     ecut=    30.00 Ry     beta=0.70
     Davidson diagonalization with overlap
     ethr =  1.00E-02,  avg # of iterations =  5.0

     negative rho (up, down):  4.810E-01 0.000E+00

     total cpu time spent up to now is       16.1 secs

     total energy              =     149.04371668 Ry
     Harris-Foulkes estimate   =  -46606.85334445 Ry
     estimated scf accuracy    <      24.25749170 Ry

     iteration # 68     ecut=    30.00 Ry     beta=0.70
     Davidson diagonalization with overlap
     ethr =  1.00E-02,  avg # of iterations = 12.0

     negative rho (up, down):  2.638E-02 0.000E+00

     total cpu time spent up to now is       16.2 secs

     total energy              =      35.35443821 Ry
     Harris-Foulkes estimate   =    -254.00839759 Ry
     estimated scf accuracy    <      29.19184102 Ry

     iteration # 69     ecut=    30.00 Ry     beta=0.70
     Davidson diagonalization with overlap
     ethr =  1.00E-02,  avg # of iterations =  5.0

     negative rho (up, down):  1.407E-01 0.000E+00

     total cpu time spent up to now is       16.2 secs

     total energy              =     -51.14557271 Ry
     Harris-Foulkes estimate   =     -79.66408720 Ry
     estimated scf accuracy    <      24.94998666 Ry

     iteration # 70     ecut=    30.00 Ry     beta=0.70
     Davidson diagonalization with overlap
     ethr =  1.00E-02,  avg # of iterations =  6.0

     negative rho (up, down):  2.646E-01 0.000E+00

     total cpu time spent up to now is       16.3 secs

     total energy              =    -581.78616485 Ry
     Harris-Foulkes estimate   =   -4873.58384223 Ry
     estimated scf accuracy    <      13.21054837 Ry

     iteration # 71     ecut=    30.00 Ry     beta=0.70
     Davidson diagonalization with overlap
     ethr =  1.00E-02,  avg # of iterations =  5.0

     negative rho (up, down):  2.654E-01 0.000E+00

     total cpu time spent up to now is       16.3 secs

     total energy              =   -1180.13694635 Ry
     Harris-Foulkes estimate   =  -13748.75127604 Ry
     estimated scf accuracy    <      33.03717769 Ry

     iteration # 72     ecut=    30.00 Ry     beta=0.70
     Davidson diagonalization with overlap
     ethr =  1.00E-02,  avg # of iterations =  7.0

     negative rho (up, down):  2.599E-01 0.000E+00

     total cpu time spent up to now is       16.4 secs

     total energy              =   -2012.01902188 Ry
     Harris-Foulkes estimate   =   -4506.00969168 Ry
     estimated scf accuracy    <      46.80196040 Ry

     iteration # 73     ecut=    30.00 Ry     beta=0.70
     Davidson diagonalization with overlap
     ethr =  1.00E-02,  avg # of iterations =  9.0

     negative rho (up, down):  1.522E-01 0.000E+00

     total cpu time spent up to now is       16.4 secs

     total energy              =     148.51082074 Ry
     Harris-Foulkes estimate   =  -10546.30200697 Ry
     estimated scf accuracy    <      25.29774563 Ry

     iteration # 74     ecut=    30.00 Ry     beta=0.70
     Davidson diagonalization with overlap
     ethr =  1.00E-02,  avg # of iterations = 10.0

     negative rho (up, down):  2.879E-02 0.000E+00

     total cpu time spent up to now is       16.5 secs

     total energy              =      29.27342096 Ry
     Harris-Foulkes estimate   =    -351.01399239 Ry
     estimated scf accuracy    <      22.28369030 Ry

     iteration # 75     ecut=    30.00 Ry     beta=0.70
     Davidson diagonalization with overlap
     ethr =  1.00E-02,  avg # of iterations =  6.0

     negative rho (up, down):  9.239E-02 0.000E+00

     total cpu time spent up to now is       16.5 secs

     total energy              =     -19.78575269 Ry
     Harris-Foulkes estimate   =   -5421.79941798 Ry
     estimated scf accuracy    <      24.55941526 Ry

     iteration # 76     ecut=    30.00 Ry     beta=0.70
     Davidson diagonalization with overlap
     ethr =  1.00E-02,  avg # of iterations =  8.0

     negative rho (up, down):  1.399E-01 0.000E+00

     total cpu time spent up to now is       16.6 secs

     total energy              =    -906.61521339 Ry
     Harris-Foulkes estimate   =    -226.95970024 Ry
     estimated scf accuracy    <      22.56618795 Ry

     iteration # 77     ecut=    30.00 Ry     beta=0.70
     Davidson diagonalization with overlap
     ethr =  1.00E-02,  avg # of iterations =  8.0

     negative rho (up, down):  1.213E-01 0.000E+00

     total cpu time spent up to now is       16.6 secs

     total energy              =      78.05482179 Ry
     Harris-Foulkes estimate   =   -1425.58661065 Ry
     estimated scf accuracy    <      13.06027715 Ry

     iteration # 78     ecut=    30.00 Ry     beta=0.70
     Davidson diagonalization with overlap
     ethr =  1.00E-02,  avg # of iterations =  5.0

     negative rho (up, down):  1.011E-01 0.000E+00

     total cpu time spent up to now is       16.7 secs

     total energy              =      50.31229176 Ry
     Harris-Foulkes estimate   =    -439.66851032 Ry
     estimated scf accuracy    <      21.89563127 Ry

     iteration # 79     ecut=    30.00 Ry     beta=0.70
     Davidson diagonalization with overlap
     ethr =  1.00E-02,  avg # of iterations =  5.0

     negative rho (up, down):  7.090E-02 0.000E+00

     total cpu time spent up to now is       16.7 secs

     total energy              =      20.00716914 Ry
     Harris-Foulkes estimate   =    -359.35558109 Ry
     estimated scf accuracy    <      24.32949810 Ry

     iteration # 80     ecut=    30.00 Ry     beta=0.70
     Davidson diagonalization with overlap
     ethr =  1.00E-02,  avg # of iterations =  6.0

     negative rho (up, down):  1.819E-01 0.000E+00

     total cpu time spent up to now is       16.8 secs

     total energy              =     -26.65262114 Ry
     Harris-Foulkes estimate   =    -666.85716929 Ry
     estimated scf accuracy    <      22.19014790 Ry

     iteration # 81     ecut=    30.00 Ry     beta=0.70
     Davidson diagonalization with overlap
     ethr =  1.00E-02,  avg # of iterations =  7.0

     negative rho (up, down):  1.672E-01 0.000E+00

     total cpu time spent up to now is       16.8 secs

     total energy              =     141.12648263 Ry
     Harris-Foulkes estimate   =   -1130.40029450 Ry
     estimated scf accuracy    <      35.79289617 Ry

     iteration # 82     ecut=    30.00 Ry     beta=0.70
     Davidson diagonalization with overlap
     ethr =  1.00E-02,  avg # of iterations =  8.0

     negative rho (up, down):  1.964E-01 0.000E+00

     total cpu time spent up to now is       16.9 secs

     total energy              =    -909.37406544 Ry
     Harris-Foulkes estimate   =    -638.38340490 Ry
     estimated scf accuracy    <      19.58922850 Ry

     iteration # 83     ecut=    30.00 Ry     beta=0.70
     Davidson diagonalization with overlap
     ethr =  1.00E-02,  avg # of iterations = 10.0

     negative rho (up, down):  2.816E-01 0.000E+00

     total cpu time spent up to now is       16.9 secs

     total energy              =    -369.86627392 Ry
     Harris-Foulkes estimate   =   -3086.20510733 Ry
     estimated scf accuracy    <      43.28542186 Ry

     iteration # 84     ecut=    30.00 Ry     beta=0.70
     Davidson diagonalization with overlap
     ethr =  1.00E-02,  avg # of iterations =  7.0

     negative rho (up, down):  6.580E-01 0.000E+00

     total cpu time spent up to now is       17.0 secs

     total energy              =      49.17978290 Ry
     Harris-Foulkes estimate   =   -1126.00036891 Ry
     estimated scf accuracy    <      31.72953240 Ry

     iteration # 85     ecut=    30.00 Ry     beta=0.70
     Davidson diagonalization with overlap
     ethr =  1.00E-02,  avg # of iterations =  9.0

     negative rho (up, down):  7.424E-01 0.000E+00

     total cpu time spent up to now is       17.0 secs

     total energy              =    -352.52499020 Ry
     Harris-Foulkes estimate   =    -722.19788889 Ry
     estimated scf accuracy    <      42.31362651 Ry

     iteration # 86     ecut=    30.00 Ry     beta=0.70
     Davidson diagonalization with overlap
     ethr =  1.00E-02,  avg # of iterations =  6.0

     negative rho (up, down):  1.024E+00 0.000E+00

     total cpu time spent up to now is       17.1 secs

     total energy              =     108.58740869 Ry
     Harris-Foulkes estimate   =   -1812.56791070 Ry
     estimated scf accuracy    <      40.44002822 Ry

     iteration # 87     ecut=    30.00 Ry     beta=0.70
     Davidson diagonalization with overlap
     ethr =  1.00E-02,  avg # of iterations =  9.0

     negative rho (up, down):  1.319E+00 0.000E+00

     total cpu time spent up to now is       17.1 secs

     total energy              =    -804.06622906 Ry
     Harris-Foulkes estimate   =   -6206.56462191 Ry
     estimated scf accuracy    <      30.65554707 Ry

     iteration # 88     ecut=    30.00 Ry     beta=0.70
     Davidson diagonalization with overlap
     ethr =  1.00E-02,  avg # of iterations =  9.0

     negative rho (up, down):  7.760E-01 0.000E+00

     total cpu time spent up to now is       17.2 secs

     total energy              =     135.59621211 Ry
     Harris-Foulkes estimate   =   -2740.19654492 Ry
     estimated scf accuracy    <      24.08311543 Ry

     iteration # 89     ecut=    30.00 Ry     beta=0.70
     Davidson diagonalization with overlap
     ethr =  1.00E-02,  avg # of iterations = 13.0

     negative rho (up, down):  8.932E-01 0.000E+00

     total cpu time spent up to now is       17.3 secs

     total energy              =      43.93629566 Ry
     Harris-Foulkes estimate   =    -508.48501342 Ry
     estimated scf accuracy    <      28.49596686 Ry

     iteration # 90     ecut=    30.00 Ry     beta=0.70
     Davidson diagonalization with overlap
     ethr =  1.00E-02,  avg # of iterations =  9.0

     negative rho (up, down):  1.060E+00 0.000E+00

     total cpu time spent up to now is       17.3 secs

     total energy              =     114.03468652 Ry
     Harris-Foulkes estimate   =   -8493.63544710 Ry
     estimated scf accuracy    <      35.19070005 Ry

     iteration # 91     ecut=    30.00 Ry     beta=0.70
     Davidson diagonalization with overlap
     ethr =  1.00E-02,  avg # of iterations = 12.0

     negative rho (up, down):  8.847E-01 0.000E+00

     total cpu time spent up to now is       17.4 secs

     total energy              =    -111.73848660 Ry
     Harris-Foulkes estimate   =   -1035.02859278 Ry
     estimated scf accuracy    <      33.29058948 Ry

     iteration # 92     ecut=    30.00 Ry     beta=0.70
     Davidson diagonalization with overlap
     ethr =  1.00E-02,  avg # of iterations =  9.0

     negative rho (up, down):  3.540E-01 0.000E+00

     total cpu time spent up to now is       17.4 secs

     total energy              =    -179.91345627 Ry
     Harris-Foulkes estimate   =   -2320.11195128 Ry
     estimated scf accuracy    <      20.56796505 Ry

     iteration # 93     ecut=    30.00 Ry     beta=0.70
     Davidson diagonalization with overlap
     ethr =  1.00E-02,  avg # of iterations = 11.0

     negative rho (up, down):  5.476E-01 0.000E+00

     total cpu time spent up to now is       17.5 secs

     total energy              =      76.83196007 Ry
     Harris-Foulkes estimate   =   -5656.11812834 Ry
     estimated scf accuracy    <      25.71777654 Ry

     iteration # 94     ecut=    30.00 Ry     beta=0.70
     Davidson diagonalization with overlap
     ethr =  1.00E-02,  avg # of iterations =  8.0

     negative rho (up, down):  1.131E-01 0.000E+00

     total cpu time spent up to now is       17.6 secs

     total energy              =     150.47986400 Ry
     Harris-Foulkes estimate   =   -3439.30288623 Ry
     estimated scf accuracy    <      18.87596711 Ry

     iteration # 95     ecut=    30.00 Ry     beta=0.70
     Davidson diagonalization with overlap
     ethr =  1.00E-02,  avg # of iterations = 10.0

     negative rho (up, down):  1.671E-01 0.000E+00

     total cpu time spent up to now is       17.6 secs

     total energy              =      75.45368527 Ry
     Harris-Foulkes estimate   =    -310.61875204 Ry
     estimated scf accuracy    <      23.91525015 Ry

     iteration # 96     ecut=    30.00 Ry     beta=0.70
     Davidson diagonalization with overlap
     ethr =  1.00E-02,  avg # of iterations =  6.0

     negative rho (up, down):  5.694E-02 0.000E+00

     total cpu time spent up to now is       17.7 secs

     total energy              =      36.39277009 Ry
     Harris-Foulkes estimate   =    -706.94816259 Ry
     estimated scf accuracy    <      27.66544937 Ry

     iteration # 97     ecut=    30.00 Ry     beta=0.70
     Davidson diagonalization with overlap
     ethr =  1.00E-02,  avg # of iterations =  8.0

     negative rho (up, down):  1.192E-02 0.000E+00

     total cpu time spent up to now is       17.7 secs

     total energy              =      84.32563055 Ry
     Harris-Foulkes estimate   =    -706.50240054 Ry
     estimated scf accuracy    <      25.28458807 Ry

     iteration # 98     ecut=    30.00 Ry     beta=0.70
     Davidson diagonalization with overlap
     ethr =  1.00E-02,  avg # of iterations = 10.0

     negative rho (up, down):  8.738E-03 0.000E+00

     total cpu time spent up to now is       17.8 secs

     total energy              =     -70.02688051 Ry
     Harris-Foulkes estimate   =     -76.76376446 Ry
     estimated scf accuracy    <      60.68529944 Ry

     iteration # 99     ecut=    30.00 Ry     beta=0.70
     Davidson diagonalization with overlap
     ethr =  1.00E-02,  avg # of iterations =  8.0

     negative rho (up, down):  2.921E-05 0.000E+00

     total cpu time spent up to now is       17.8 secs

     total energy              =     -27.36991701 Ry
     Harris-Foulkes estimate   =     -92.76988411 Ry
     estimated scf accuracy    <      30.44139880 Ry

     iteration #100     ecut=    30.00 Ry     beta=0.70
     Davidson diagonalization with overlap
     ethr =  1.00E-02,  avg # of iterations =  4.0

     negative rho (up, down):  3.446E-03 0.000E+00

     total cpu time spent up to now is       17.9 secs

     total energy              =     -14.92743277 Ry
     Harris-Foulkes estimate   =    -245.92005226 Ry
     estimated scf accuracy    <      27.87896527 Ry

     End of self-consistent calculation

     convergence NOT achieved after 100 iterations: stopping

     Writing output data file pwscf.save
 
     init_run     :      0.10s CPU      0.11s WALL (       1 calls)
     electrons    :     11.54s CPU     14.59s WALL (      10 calls)
     update_pot   :      1.15s CPU      2.10s WALL (       9 calls)
     forces       :      0.25s CPU      0.27s WALL (       9 calls)

     Called by init_run:
     wfcinit      :      0.01s CPU      0.02s WALL (       1 calls)
     potinit      :      0.02s CPU      0.03s WALL (       1 calls)

     Called by electrons:
     c_bands      :      5.30s CPU      5.57s WALL (     311 calls)
     sum_band     :      0.92s CPU      0.97s WALL (     311 calls)
     v_of_rho     :      2.22s CPU      2.35s WALL (     321 calls)
     mix_rho      :      2.17s CPU      3.80s WALL (     311 calls)

     Called by c_bands:
     init_us_2    :      0.03s CPU      0.03s WALL (     623 calls)
     cegterg      :      5.24s CPU      5.41s WALL (     311 calls)

     Called by sum_band:

     Called by *egterg:
     h_psi        :      4.38s CPU      4.50s WALL (    1630 calls)
     g_psi        :      0.04s CPU      0.05s WALL (    1318 calls)
     cdiaghg      :      0.32s CPU      0.34s WALL (    1620 calls)

     Called by h_psi:
     h_psi:pot    :      4.35s CPU      4.48s WALL (    1630 calls)
     h_psi:calbec :      0.04s CPU      0.05s WALL (    1630 calls)
     vloc_psi     :      4.29s CPU      4.40s WALL (    1630 calls)
     add_vuspsi   :      0.01s CPU      0.01s WALL (    1630 calls)

     General routines
     calbec       :      0.14s CPU      0.25s WALL (    1674 calls)
     fft          :      1.48s CPU      1.58s WALL (    3549 calls)
     fftw         :      4.46s CPU      4.59s WALL (   19722 calls)
     davcio       :      0.32s CPU      1.29s WALL (    5343 calls)
 
     Parallel routines
     fft_scatter  :      2.23s CPU      2.36s WALL (   23271 calls)
 
     PWSCF        :    13.33s CPU        18.04s WALL

 
   This run was terminated on:   7:50:26  14Feb2018            

=------------------------------------------------------------------------------=
   JOB DONE.
=------------------------------------------------------------------------------=
