
     Program PWSCF v.6.0 (svn rev. 13079) starts on 14Feb2018 at  7:55:19 

     This program is part of the open-source Quantum ESPRESSO suite
     for quantum simulation of materials; please cite
         "P. Giannozzi et al., J. Phys.:Condens. Matter 21 395502 (2009);
          URL http://www.quantum-espresso.org", 
     in publications or presentations arising from this work. More details at
     http://www.quantum-espresso.org/quote

     Parallel version (MPI), running on    28 processors
     R & G space division:  proc/nbgrp/npool/nimage =      28
     Reading input from inputs/MD-H2O-2/228.in

     Current dimensions of program PWSCF are:
     Max number of different atomic species (ntypx) = 10
     Max number of k-points (npk) =  40000
     Max angular momentum in pseudopotentials (lmaxx) =  3

     Subspace diagonalization in iterative solution of the eigenvalue problem:
     a serial algorithm will be used

 
     Parallelization info
     --------------------
     sticks:   dense  smooth     PW     G-vecs:    dense   smooth      PW
     Min         136     136     33                 6338     6338     787
     Max         137     137     34                 6341     6341     792
     Sum        3809    3809    949               177509   177509   22119
 


     bravais-lattice index     =            1
     lattice parameter (alat)  =      20.0000  a.u.
     unit-cell volume          =    8000.0000 (a.u.)^3
     number of atoms/cell      =            3
     number of atomic types    =            2
     number of electrons       =         8.00
     number of Kohn-Sham states=            8
     kinetic-energy cutoff     =      30.0000  Ry
     charge density cutoff     =     120.0000  Ry
     convergence threshold     =      1.0E-08
     mixing beta               =       0.7000
     number of iterations used =            8  plain     mixing
     Exchange-correlation      = BLYP ( 1  3  1  3 0 0)
     nstep                     =         5000


     celldm(1)=  20.000000  celldm(2)=   0.000000  celldm(3)=   0.000000
     celldm(4)=   0.000000  celldm(5)=   0.000000  celldm(6)=   0.000000

     crystal axes: (cart. coord. in units of alat)
               a(1) = (   1.000000   0.000000   0.000000 )  
               a(2) = (   0.000000   1.000000   0.000000 )  
               a(3) = (   0.000000   0.000000   1.000000 )  

     reciprocal axes: (cart. coord. in units 2 pi/alat)
               b(1) = (  1.000000  0.000000  0.000000 )  
               b(2) = (  0.000000  1.000000  0.000000 )  
               b(3) = (  0.000000  0.000000  1.000000 )  


     PseudoPot. # 1 for  H read from file:
     ./H.blyp-hgh.UPF
     MD5 check sum: c576e69559cde411e611be972c763230
     Pseudo is Norm-conserving, Zval =  1.0
     Generated in analytical, separable form
     Using radial grid of  929 points,  0 beta functions with: 

     PseudoPot. # 2 for  O read from file:
     ./O.blyp-hgh.UPF
     MD5 check sum: d0b7156309aa9befef28faac7bc56342
     Pseudo is Norm-conserving, Zval =  6.0
     Generated in analytical, separable form
     Using radial grid of 1095 points,  1 beta functions with: 
                l(1) =   0

     atomic species   valence    mass     pseudopotential
        H              1.00     1.01000      H( 1.00)
        O              6.00    16.00000      O( 1.00)

     No symmetry found



   Cartesian axes

     site n.     atom                  positions (alat units)
         1           H   tau(   1) = (   0.2117719   0.6717606   0.5171732  )
         2           H   tau(   2) = (   0.4425277   0.9924727   0.8333328  )
         3           O   tau(   3) = (   0.2073447   0.5725650   0.5149959  )

     number of k points=     1  Marzari-Vanderbilt smearing, width (Ry)=  0.0250
                       cart. coord. in units 2pi/alat
        k(    1) = (   0.0000000   0.0000000   0.0000000), wk =   2.0000000

     Dense  grid:   177509 G-vectors     FFT dimensions: (  72,  72,  72)

     Estimated max dynamical RAM per process >       6.09Mb

     Estimated total allocated dynamical RAM >     170.64Mb

     Initial potential from superposition of free atoms
     Check: negative starting charge=   -0.348446

     starting charge    7.99998, renormalised to    8.00000

     negative rho (up, down):  3.484E-01 0.000E+00
     Starting wfc are    6 randomized atomic wfcs +    2 random wfc

     total cpu time spent up to now is        0.2 secs

     per-process dynamical memory:    18.8 Mb

     Self-consistent Calculation

     iteration #  1     ecut=    30.00 Ry     beta=0.70
     Davidson diagonalization with overlap
     ethr =  1.00E-02,  avg # of iterations =  7.0

     negative rho (up, down):  9.115E-02 0.000E+00

     total cpu time spent up to now is        0.3 secs

     total energy              =     -30.34385881 Ry
     Harris-Foulkes estimate   =     -32.23967131 Ry
     estimated scf accuracy    <       2.17701657 Ry

     iteration #  2     ecut=    30.00 Ry     beta=0.70
     Davidson diagonalization with overlap
     ethr =  1.00E-02,  avg # of iterations =  3.0

     negative rho (up, down):  6.631E-02 0.000E+00

     total cpu time spent up to now is        0.3 secs

     total energy              =     -32.29955672 Ry
     Harris-Foulkes estimate   =     -34.60179280 Ry
     estimated scf accuracy    <       5.60108713 Ry

     iteration #  3     ecut=    30.00 Ry     beta=0.70
     Davidson diagonalization with overlap
     ethr =  1.00E-02,  avg # of iterations =  2.0

     negative rho (up, down):  6.375E-02 0.000E+00

     total cpu time spent up to now is        0.4 secs

     total energy              =     -32.44571285 Ry
     Harris-Foulkes estimate   =     -32.53390158 Ry
     estimated scf accuracy    <       1.82812524 Ry

     iteration #  4     ecut=    30.00 Ry     beta=0.70
     Davidson diagonalization with overlap
     ethr =  1.00E-02,  avg # of iterations =  1.0

     negative rho (up, down):  1.219E-02 0.000E+00

     total cpu time spent up to now is        0.4 secs

     total energy              =     -31.29435747 Ry
     Harris-Foulkes estimate   =     -32.44604118 Ry
     estimated scf accuracy    <       1.70635264 Ry

     iteration #  5     ecut=    30.00 Ry     beta=0.70
     Davidson diagonalization with overlap
     ethr =  1.00E-02,  avg # of iterations =  4.0

     negative rho (up, down):  2.461E-02 0.000E+00

     total cpu time spent up to now is        0.4 secs

     total energy              =     -33.38090161 Ry
     Harris-Foulkes estimate   =     -33.21756130 Ry
     estimated scf accuracy    <       8.14909622 Ry

     iteration #  6     ecut=    30.00 Ry     beta=0.70
     Davidson diagonalization with overlap
     ethr =  1.00E-02,  avg # of iterations =  1.0

     negative rho (up, down):  1.562E-02 0.000E+00

     total cpu time spent up to now is        0.5 secs

     total energy              =     -32.94340618 Ry
     Harris-Foulkes estimate   =     -33.39031944 Ry
     estimated scf accuracy    <       9.39054318 Ry

     iteration #  7     ecut=    30.00 Ry     beta=0.70
     Davidson diagonalization with overlap
     ethr =  1.00E-02,  avg # of iterations =  1.0

     negative rho (up, down):  1.280E-02 0.000E+00

     total cpu time spent up to now is        0.5 secs

     total energy              =     -32.86488123 Ry
     Harris-Foulkes estimate   =     -33.01804718 Ry
     estimated scf accuracy    <       3.37477959 Ry

     iteration #  8     ecut=    30.00 Ry     beta=0.70
     Davidson diagonalization with overlap
     ethr =  1.00E-02,  avg # of iterations =  1.0

     negative rho (up, down):  6.325E-02 0.000E+00

     total cpu time spent up to now is        0.5 secs

     total energy              =     -32.55269892 Ry
     Harris-Foulkes estimate   =     -32.87048663 Ry
     estimated scf accuracy    <       2.88640320 Ry

     iteration #  9     ecut=    30.00 Ry     beta=0.70
     Davidson diagonalization with overlap
     ethr =  1.00E-02,  avg # of iterations =  1.0

     negative rho (up, down):  8.931E-02 0.000E+00

     total cpu time spent up to now is        0.6 secs

     total energy              =     -32.02407240 Ry
     Harris-Foulkes estimate   =     -32.55829176 Ry
     estimated scf accuracy    <       2.30079920 Ry

     iteration # 10     ecut=    30.00 Ry     beta=0.70
     Davidson diagonalization with overlap
     ethr =  1.00E-02,  avg # of iterations =  1.0

     negative rho (up, down):  7.668E-02 0.000E+00

     total cpu time spent up to now is        0.6 secs

     total energy              =     -32.32599370 Ry
     Harris-Foulkes estimate   =     -32.04551461 Ry
     estimated scf accuracy    <       1.36706655 Ry

     iteration # 11     ecut=    30.00 Ry     beta=0.70
     Davidson diagonalization with overlap
     ethr =  1.00E-02,  avg # of iterations =  1.0

     negative rho (up, down):  5.105E-02 0.000E+00

     total cpu time spent up to now is        0.6 secs

     total energy              =     -32.13198128 Ry
     Harris-Foulkes estimate   =     -32.33261795 Ry
     estimated scf accuracy    <       1.83848624 Ry

     iteration # 12     ecut=    30.00 Ry     beta=0.70
     Davidson diagonalization with overlap
     ethr =  1.00E-02,  avg # of iterations =  1.0

     negative rho (up, down):  3.415E-01 0.000E+00

     total cpu time spent up to now is        0.7 secs

     total energy              =     -32.07559929 Ry
     Harris-Foulkes estimate   =     -32.13469755 Ry
     estimated scf accuracy    <       1.51300634 Ry

     iteration # 13     ecut=    30.00 Ry     beta=0.70
     Davidson diagonalization with overlap
     ethr =  1.00E-02,  avg # of iterations =  1.0

     negative rho (up, down):  4.119E-01 0.000E+00

     total cpu time spent up to now is        0.7 secs

     total energy              =     -31.22868191 Ry
     Harris-Foulkes estimate   =     -32.08976645 Ry
     estimated scf accuracy    <       1.51037853 Ry

     iteration # 14     ecut=    30.00 Ry     beta=0.70
     Davidson diagonalization with overlap
     ethr =  1.00E-02,  avg # of iterations =  4.0

     negative rho (up, down):  1.283E-01 0.000E+00

     total cpu time spent up to now is        0.7 secs

     total energy              =     -32.46697770 Ry
     Harris-Foulkes estimate   =     -33.08165572 Ry
     estimated scf accuracy    <       2.40389594 Ry

     iteration # 15     ecut=    30.00 Ry     beta=0.70
     Davidson diagonalization with overlap
     ethr =  1.00E-02,  avg # of iterations =  2.0

     negative rho (up, down):  6.620E-03 0.000E+00

     total cpu time spent up to now is        0.8 secs

     total energy              =     -32.11506714 Ry
     Harris-Foulkes estimate   =     -32.47055616 Ry
     estimated scf accuracy    <       1.63657977 Ry

     iteration # 16     ecut=    30.00 Ry     beta=0.70
     Davidson diagonalization with overlap
     ethr =  1.00E-02,  avg # of iterations =  1.0

     negative rho (up, down):  1.259E-04 0.000E+00

     total cpu time spent up to now is        0.8 secs

     total energy              =     -31.98596951 Ry
     Harris-Foulkes estimate   =     -32.10881725 Ry
     estimated scf accuracy    <       1.16142485 Ry

     iteration # 17     ecut=    30.00 Ry     beta=0.70
     Davidson diagonalization with overlap
     ethr =  1.00E-02,  avg # of iterations =  1.0

     negative rho (up, down):  1.961E-03 0.000E+00

     total cpu time spent up to now is        0.8 secs

     total energy              =     -31.92061654 Ry
     Harris-Foulkes estimate   =     -31.98674175 Ry
     estimated scf accuracy    <       0.97454569 Ry

     iteration # 18     ecut=    30.00 Ry     beta=0.70
     Davidson diagonalization with overlap
     ethr =  1.00E-02,  avg # of iterations =  1.0

     negative rho (up, down):  4.013E-03 0.000E+00

     total cpu time spent up to now is        0.8 secs

     total energy              =     -31.98349983 Ry
     Harris-Foulkes estimate   =     -31.94823155 Ry
     estimated scf accuracy    <       0.17789510 Ry

     iteration # 19     ecut=    30.00 Ry     beta=0.70
     Davidson diagonalization with overlap
     ethr =  2.22E-03,  avg # of iterations =  1.0

     negative rho (up, down):  4.037E-03 0.000E+00

     total cpu time spent up to now is        0.9 secs

     total energy              =     -32.24172262 Ry
     Harris-Foulkes estimate   =     -32.03415854 Ry
     estimated scf accuracy    <       1.29654966 Ry

     iteration # 20     ecut=    30.00 Ry     beta=0.70
     Davidson diagonalization with overlap
     ethr =  2.22E-03,  avg # of iterations =  1.0

     negative rho (up, down):  4.942E-03 0.000E+00

     total cpu time spent up to now is        0.9 secs

     total energy              =     -32.24957843 Ry
     Harris-Foulkes estimate   =     -32.24578411 Ry
     estimated scf accuracy    <       1.66450098 Ry

     iteration # 21     ecut=    30.00 Ry     beta=0.70
     Davidson diagonalization with overlap
     ethr =  2.22E-03,  avg # of iterations =  1.0

     negative rho (up, down):  3.173E-03 0.000E+00

     total cpu time spent up to now is        0.9 secs

     total energy              =     -32.17136843 Ry
     Harris-Foulkes estimate   =     -32.24976342 Ry
     estimated scf accuracy    <       1.67313272 Ry

     iteration # 22     ecut=    30.00 Ry     beta=0.70
     Davidson diagonalization with overlap
     ethr =  2.22E-03,  avg # of iterations =  1.0

     negative rho (up, down):  1.497E-03 0.000E+00

     total cpu time spent up to now is        1.0 secs

     total energy              =     -32.03789194 Ry
     Harris-Foulkes estimate   =     -32.17169855 Ry
     estimated scf accuracy    <       1.54890733 Ry

     iteration # 23     ecut=    30.00 Ry     beta=0.70
     Davidson diagonalization with overlap
     ethr =  2.22E-03,  avg # of iterations =  1.0

     negative rho (up, down):  1.719E-03 0.000E+00

     total cpu time spent up to now is        1.0 secs

     total energy              =     -32.03254333 Ry
     Harris-Foulkes estimate   =     -32.03934685 Ry
     estimated scf accuracy    <       1.32363557 Ry

     iteration # 24     ecut=    30.00 Ry     beta=0.70
     Davidson diagonalization with overlap
     ethr =  2.22E-03,  avg # of iterations =  1.0

     negative rho (up, down):  1.742E-03 0.000E+00

     total cpu time spent up to now is        1.0 secs

     total energy              =     -31.96989344 Ry
     Harris-Foulkes estimate   =     -32.03258653 Ry
     estimated scf accuracy    <       1.31357497 Ry

     iteration # 25     ecut=    30.00 Ry     beta=0.70
     Davidson diagonalization with overlap
     ethr =  2.22E-03,  avg # of iterations =  1.0

     negative rho (up, down):  3.003E-04 0.000E+00

     total cpu time spent up to now is        1.1 secs

     total energy              =     -32.06204117 Ry
     Harris-Foulkes estimate   =     -31.96634836 Ry
     estimated scf accuracy    <       1.32381008 Ry

     iteration # 26     ecut=    30.00 Ry     beta=0.70
     Davidson diagonalization with overlap
     ethr =  2.22E-03,  avg # of iterations =  1.0

     negative rho (up, down):  3.907E-03 0.000E+00

     total cpu time spent up to now is        1.1 secs

     total energy              =     -32.04574195 Ry
     Harris-Foulkes estimate   =     -32.06258567 Ry
     estimated scf accuracy    <       1.36052890 Ry

     iteration # 27     ecut=    30.00 Ry     beta=0.70
     Davidson diagonalization with overlap
     ethr =  2.22E-03,  avg # of iterations =  1.0

     negative rho (up, down):  9.910E-03 0.000E+00

     total cpu time spent up to now is        1.1 secs

     total energy              =     -31.92085639 Ry
     Harris-Foulkes estimate   =     -32.04597717 Ry
     estimated scf accuracy    <       1.32702424 Ry

     iteration # 28     ecut=    30.00 Ry     beta=0.70
     Davidson diagonalization with overlap
     ethr =  2.22E-03,  avg # of iterations =  1.0

     negative rho (up, down):  2.169E-03 0.000E+00

     total cpu time spent up to now is        1.2 secs

     total energy              =     -31.87867165 Ry
     Harris-Foulkes estimate   =     -31.94873177 Ry
     estimated scf accuracy    <       0.18328352 Ry

     iteration # 29     ecut=    30.00 Ry     beta=0.70
     Davidson diagonalization with overlap
     ethr =  2.22E-03,  avg # of iterations =  1.0

     negative rho (up, down):  1.076E-04 0.000E+00

     total cpu time spent up to now is        1.2 secs

     total energy              =     -32.05029752 Ry
     Harris-Foulkes estimate   =     -32.13684518 Ry
     estimated scf accuracy    <       1.48128810 Ry

     iteration # 30     ecut=    30.00 Ry     beta=0.70
     Davidson diagonalization with overlap
     ethr =  2.22E-03,  avg # of iterations =  1.0

     negative rho (up, down):  7.176E-04 0.000E+00

     total cpu time spent up to now is        1.2 secs

     total energy              =     -31.94467946 Ry
     Harris-Foulkes estimate   =     -32.05107705 Ry
     estimated scf accuracy    <       1.34527655 Ry

     iteration # 31     ecut=    30.00 Ry     beta=0.70
     Davidson diagonalization with overlap
     ethr =  2.22E-03,  avg # of iterations =  1.0

     negative rho (up, down):  2.358E-04 0.000E+00

     total cpu time spent up to now is        1.3 secs

     total energy              =     -31.97826866 Ry
     Harris-Foulkes estimate   =     -31.94798698 Ry
     estimated scf accuracy    <       0.16891995 Ry

     iteration # 32     ecut=    30.00 Ry     beta=0.70
     Davidson diagonalization with overlap
     ethr =  2.11E-03,  avg # of iterations =  1.0

     negative rho (up, down):  1.106E-03 0.000E+00

     total cpu time spent up to now is        1.3 secs

     total energy              =     -32.06576663 Ry
     Harris-Foulkes estimate   =     -32.02347034 Ry
     estimated scf accuracy    <       1.29398130 Ry

     iteration # 33     ecut=    30.00 Ry     beta=0.70
     Davidson diagonalization with overlap
     ethr =  2.11E-03,  avg # of iterations =  1.0

     negative rho (up, down):  1.227E-04 0.000E+00

     total cpu time spent up to now is        1.3 secs

     total energy              =     -31.90680138 Ry
     Harris-Foulkes estimate   =     -32.06585472 Ry
     estimated scf accuracy    <       1.35577083 Ry

     iteration # 34     ecut=    30.00 Ry     beta=0.70
     Davidson diagonalization with overlap
     ethr =  2.11E-03,  avg # of iterations =  1.0

     negative rho (up, down):  1.381E-05 0.000E+00

     total cpu time spent up to now is        1.3 secs

     total energy              =     -31.92402012 Ry
     Harris-Foulkes estimate   =     -31.95604846 Ry
     estimated scf accuracy    <       0.54781098 Ry

     iteration # 35     ecut=    30.00 Ry     beta=0.70
     Davidson diagonalization with overlap
     ethr =  2.11E-03,  avg # of iterations =  1.0

     negative rho (up, down):  1.964E-06 0.000E+00

     total cpu time spent up to now is        1.4 secs

     total energy              =     -31.92848134 Ry
     Harris-Foulkes estimate   =     -31.95336812 Ry
     estimated scf accuracy    <       0.58533894 Ry

     iteration # 36     ecut=    30.00 Ry     beta=0.70
     Davidson diagonalization with overlap
     ethr =  2.11E-03,  avg # of iterations =  1.0

     negative rho (up, down):  2.418E-07 0.000E+00

     total cpu time spent up to now is        1.4 secs

     total energy              =     -31.94458647 Ry
     Harris-Foulkes estimate   =     -31.94921780 Ry
     estimated scf accuracy    <       0.22101375 Ry

     iteration # 37     ecut=    30.00 Ry     beta=0.70
     Davidson diagonalization with overlap
     ethr =  2.11E-03,  avg # of iterations =  1.0

     total cpu time spent up to now is        1.4 secs

     total energy              =     -31.94370307 Ry
     Harris-Foulkes estimate   =     -31.94613771 Ry
     estimated scf accuracy    <       0.01942640 Ry

     iteration # 38     ecut=    30.00 Ry     beta=0.70
     Davidson diagonalization with overlap
     ethr =  2.43E-04,  avg # of iterations =  1.0

     total cpu time spent up to now is        1.5 secs

     total energy              =     -31.94426546 Ry
     Harris-Foulkes estimate   =     -31.95010201 Ry
     estimated scf accuracy    <       0.34052727 Ry

     iteration # 39     ecut=    30.00 Ry     beta=0.70
     Davidson diagonalization with overlap
     ethr =  2.43E-04,  avg # of iterations =  1.0

     total cpu time spent up to now is        1.5 secs

     total energy              =     -31.94845784 Ry
     Harris-Foulkes estimate   =     -31.94627095 Ry
     estimated scf accuracy    <       0.03153389 Ry

     iteration # 40     ecut=    30.00 Ry     beta=0.70
     Davidson diagonalization with overlap
     ethr =  2.43E-04,  avg # of iterations =  1.0

     total cpu time spent up to now is        1.5 secs

     total energy              =     -31.94316755 Ry
     Harris-Foulkes estimate   =     -31.95136104 Ry
     estimated scf accuracy    <       0.43822303 Ry

     iteration # 41     ecut=    30.00 Ry     beta=0.70
     Davidson diagonalization with overlap
     ethr =  2.43E-04,  avg # of iterations =  1.0

     total cpu time spent up to now is        1.6 secs

     total energy              =     -31.94634278 Ry
     Harris-Foulkes estimate   =     -31.94620987 Ry
     estimated scf accuracy    <       0.02624821 Ry

     iteration # 42     ecut=    30.00 Ry     beta=0.70
     Davidson diagonalization with overlap
     ethr =  2.43E-04,  avg # of iterations =  1.0

     total cpu time spent up to now is        1.6 secs

     total energy              =     -31.94538661 Ry
     Harris-Foulkes estimate   =     -31.94635675 Ry
     estimated scf accuracy    <       0.03794032 Ry

     iteration # 43     ecut=    30.00 Ry     beta=0.70
     Davidson diagonalization with overlap
     ethr =  2.43E-04,  avg # of iterations =  1.0

     total cpu time spent up to now is        1.6 secs

     total energy              =     -31.94588154 Ry
     Harris-Foulkes estimate   =     -31.94588394 Ry
     estimated scf accuracy    <       0.00002609 Ry

     iteration # 44     ecut=    30.00 Ry     beta=0.70
     Davidson diagonalization with overlap
     ethr =  3.26E-07,  avg # of iterations =  9.0

     total cpu time spent up to now is        1.7 secs

     total energy              =     -31.94588245 Ry
     Harris-Foulkes estimate   =     -31.94588254 Ry
     estimated scf accuracy    <       0.00001034 Ry

     iteration # 45     ecut=    30.00 Ry     beta=0.70
     Davidson diagonalization with overlap
     ethr =  1.29E-07,  avg # of iterations =  1.0

     total cpu time spent up to now is        1.7 secs

     total energy              =     -31.94588244 Ry
     Harris-Foulkes estimate   =     -31.94588252 Ry
     estimated scf accuracy    <       0.00000104 Ry

     iteration # 46     ecut=    30.00 Ry     beta=0.70
     Davidson diagonalization with overlap
     ethr =  1.30E-08,  avg # of iterations =  1.0

     total cpu time spent up to now is        1.7 secs

     total energy              =     -31.94588237 Ry
     Harris-Foulkes estimate   =     -31.94588244 Ry
     estimated scf accuracy    <       0.00000040 Ry

     iteration # 47     ecut=    30.00 Ry     beta=0.70
     Davidson diagonalization with overlap
     ethr =  4.96E-09,  avg # of iterations =  1.0

     total cpu time spent up to now is        1.8 secs

     total energy              =     -31.94588194 Ry
     Harris-Foulkes estimate   =     -31.94588237 Ry
     estimated scf accuracy    <       0.00000028 Ry

     iteration # 48     ecut=    30.00 Ry     beta=0.70
     Davidson diagonalization with overlap
     ethr =  3.53E-09,  avg # of iterations =  2.0

     total cpu time spent up to now is        1.8 secs

     total energy              =     -31.94588194 Ry
     Harris-Foulkes estimate   =     -31.94588197 Ry
     estimated scf accuracy    <       0.00000001 Ry

     iteration # 49     ecut=    30.00 Ry     beta=0.70
     Davidson diagonalization with overlap
     ethr =  1.81E-10,  avg # of iterations =  2.0

     total cpu time spent up to now is        1.8 secs

     total energy              =     -31.94588202 Ry
     Harris-Foulkes estimate   =     -31.94588195 Ry
     estimated scf accuracy    <       0.00000002 Ry

     iteration # 50     ecut=    30.00 Ry     beta=0.70
     Davidson diagonalization with overlap
     ethr =  1.81E-10,  avg # of iterations =  2.0

     total cpu time spent up to now is        1.9 secs

     total energy              =     -31.94588203 Ry
     Harris-Foulkes estimate   =     -31.94588203 Ry
     estimated scf accuracy    <       0.00000002 Ry

     iteration # 51     ecut=    30.00 Ry     beta=0.70
     Davidson diagonalization with overlap
     ethr =  1.81E-10,  avg # of iterations =  2.0

     total cpu time spent up to now is        1.9 secs

     End of self-consistent calculation

          k = 0.0000 0.0000 0.0000 ( 22119 PWs)   bands (ev):

   -24.8120 -10.6581  -7.0610  -7.0608  -6.9221  -0.7106   0.3100   0.8420

     the Fermi energy is    -6.8907 ev

!    total energy              =     -31.94588202 Ry
     Harris-Foulkes estimate   =     -31.94588203 Ry
     estimated scf accuracy    <          4.9E-10 Ry

     convergence has been achieved in  51 iterations

     Forces acting on atoms (Ry/au):

     atom    1 type  1   force =     0.00092874    0.01891473   -0.00000997
     atom    2 type  1   force =     0.00023815   -0.00057780   -0.00025360
     atom    3 type  2   force =    -0.00116690   -0.01833693    0.00026357

     Total force =     0.026396     Total SCF correction =     0.000051

     Molecular Dynamics Calculation

     Starting temperature  =  1000.00 K

     temperature is controlled by Andersen thermostat
     Collision frequency = 1.0000/timestep
     mass H                =     1.01
     mass O                =    16.00
     Time step             =   100.00 a.u.,  4.8378 femto-seconds

     Entering Dynamics:    iteration =     1
                           time      =   0.0048 pico-seconds


     Andersen thermostat:    3 collisions

ATOMIC_POSITIONS (bohr)
H        4.572668212  13.434445446  10.372566057
H        8.766974827  20.166420532  16.735555176
O        4.130883215  11.431338813  10.293732672


     kinetic energy (Ekin) =     0.01122928 Ry
     temperature           =   590.98681988 K 
     Ekin + Etot (const)   =   -31.93465275 Ry

     Linear momentum :    0.0000000000   -0.0000000000   -0.0000000000

     Writing output data file pwscf.save
     Check: negative starting charge=   -0.348446
     NEW-OLD atomic charge density approx. for the potential
     Check: negative starting charge=   -0.348785

     negative rho (up, down):  5.565E-02 0.000E+00

     total cpu time spent up to now is        2.2 secs

     per-process dynamical memory:    20.4 Mb

     Self-consistent Calculation

     iteration #  1     ecut=    30.00 Ry     beta=0.70
     Davidson diagonalization with overlap
     c_bands:  1 eigenvalues not converged
     ethr =  1.00E-06,  avg # of iterations = 20.0

     negative rho (up, down):  1.309E-02 0.000E+00

     total cpu time spent up to now is        2.3 secs

     total energy              =     -31.90179621 Ry
     Harris-Foulkes estimate   =     -31.89552025 Ry
     estimated scf accuracy    <       0.04142871 Ry

     iteration #  2     ecut=    30.00 Ry     beta=0.70
     Davidson diagonalization with overlap
     ethr =  5.18E-04,  avg # of iterations =  3.0

     negative rho (up, down):  1.161E-02 0.000E+00

     total cpu time spent up to now is        2.4 secs

     total energy              =     -31.93763307 Ry
     Harris-Foulkes estimate   =     -32.16663872 Ry
     estimated scf accuracy    <       1.33190543 Ry

     iteration #  3     ecut=    30.00 Ry     beta=0.70
     Davidson diagonalization with overlap
     ethr =  5.18E-04,  avg # of iterations =  2.0

     negative rho (up, down):  1.124E-02 0.000E+00

     total cpu time spent up to now is        2.4 secs

     total energy              =     -31.93497131 Ry
     Harris-Foulkes estimate   =     -31.94797436 Ry
     estimated scf accuracy    <       0.66147744 Ry

     iteration #  4     ecut=    30.00 Ry     beta=0.70
     Davidson diagonalization with overlap
     ethr =  5.18E-04,  avg # of iterations =  1.0

     negative rho (up, down):  5.596E-04 0.000E+00

     total cpu time spent up to now is        2.5 secs

     total energy              =     -31.93142028 Ry
     Harris-Foulkes estimate   =     -31.93763653 Ry
     estimated scf accuracy    <       0.19421474 Ry

     iteration #  5     ecut=    30.00 Ry     beta=0.70
     Davidson diagonalization with overlap
     ethr =  5.18E-04,  avg # of iterations =  3.0

     negative rho (up, down):  1.809E-04 0.000E+00

     total cpu time spent up to now is        2.5 secs

     total energy              =     -31.94399837 Ry
     Harris-Foulkes estimate   =     -31.95826397 Ry
     estimated scf accuracy    <       0.97037530 Ry

     iteration #  6     ecut=    30.00 Ry     beta=0.70
     Davidson diagonalization with overlap
     ethr =  5.18E-04,  avg # of iterations =  1.0

     negative rho (up, down):  1.253E-05 0.000E+00

     total cpu time spent up to now is        2.5 secs

     total energy              =     -31.93616216 Ry
     Harris-Foulkes estimate   =     -31.94760511 Ry
     estimated scf accuracy    <       0.20961254 Ry

     iteration #  7     ecut=    30.00 Ry     beta=0.70
     Davidson diagonalization with overlap
     ethr =  5.18E-04,  avg # of iterations =  1.0

     total cpu time spent up to now is        2.6 secs

     total energy              =     -31.94460803 Ry
     Harris-Foulkes estimate   =     -31.94864323 Ry
     estimated scf accuracy    <       0.23674659 Ry

     iteration #  8     ecut=    30.00 Ry     beta=0.70
     Davidson diagonalization with overlap
     ethr =  5.18E-04,  avg # of iterations =  1.0

     total cpu time spent up to now is        2.6 secs

     total energy              =     -31.94528310 Ry
     Harris-Foulkes estimate   =     -31.94567327 Ry
     estimated scf accuracy    <       0.04701901 Ry

     iteration #  9     ecut=    30.00 Ry     beta=0.70
     Davidson diagonalization with overlap
     ethr =  5.18E-04,  avg # of iterations =  1.0

     total cpu time spent up to now is        2.6 secs

     total energy              =     -31.94483336 Ry
     Harris-Foulkes estimate   =     -31.94534118 Ry
     estimated scf accuracy    <       0.02292923 Ry

     iteration # 10     ecut=    30.00 Ry     beta=0.70
     Davidson diagonalization with overlap
     ethr =  2.87E-04,  avg # of iterations =  1.0

     total cpu time spent up to now is        2.7 secs

     total energy              =     -31.94503247 Ry
     Harris-Foulkes estimate   =     -31.94504377 Ry
     estimated scf accuracy    <       0.00056472 Ry

     iteration # 11     ecut=    30.00 Ry     beta=0.70
     Davidson diagonalization with overlap
     ethr =  7.06E-06,  avg # of iterations =  7.0

     total cpu time spent up to now is        2.7 secs

     total energy              =     -31.94503574 Ry
     Harris-Foulkes estimate   =     -31.94503706 Ry
     estimated scf accuracy    <       0.00002449 Ry

     iteration # 12     ecut=    30.00 Ry     beta=0.70
     Davidson diagonalization with overlap
     ethr =  3.06E-07,  avg # of iterations =  1.0

     total cpu time spent up to now is        2.7 secs

     total energy              =     -31.94503663 Ry
     Harris-Foulkes estimate   =     -31.94503736 Ry
     estimated scf accuracy    <       0.00003992 Ry

     iteration # 13     ecut=    30.00 Ry     beta=0.70
     Davidson diagonalization with overlap
     ethr =  3.06E-07,  avg # of iterations =  1.0

     total cpu time spent up to now is        2.8 secs

     total energy              =     -31.94503706 Ry
     Harris-Foulkes estimate   =     -31.94503706 Ry
     estimated scf accuracy    <       0.00000026 Ry

     iteration # 14     ecut=    30.00 Ry     beta=0.70
     Davidson diagonalization with overlap
     ethr =  3.24E-09,  avg # of iterations =  1.0

     total cpu time spent up to now is        2.8 secs

     total energy              =     -31.94503700 Ry
     Harris-Foulkes estimate   =     -31.94503714 Ry
     estimated scf accuracy    <       0.00000381 Ry

     iteration # 15     ecut=    30.00 Ry     beta=0.70
     Davidson diagonalization with overlap
     ethr =  3.24E-09,  avg # of iterations =  1.0

     total cpu time spent up to now is        2.8 secs

     total energy              =     -31.94503705 Ry
     Harris-Foulkes estimate   =     -31.94503705 Ry
     estimated scf accuracy    <       0.00000002 Ry

     iteration # 16     ecut=    30.00 Ry     beta=0.70
     Davidson diagonalization with overlap
     ethr =  1.95E-10,  avg # of iterations =  1.0

     total cpu time spent up to now is        2.9 secs

     total energy              =     -31.94503706 Ry
     Harris-Foulkes estimate   =     -31.94503705 Ry
     estimated scf accuracy    <       0.00000002 Ry

     iteration # 17     ecut=    30.00 Ry     beta=0.70
     Davidson diagonalization with overlap
     ethr =  1.95E-10,  avg # of iterations =  1.0

     total cpu time spent up to now is        2.9 secs

     End of self-consistent calculation

          k = 0.0000 0.0000 0.0000 ( 22119 PWs)   bands (ev):

   -24.6559 -10.5595  -7.0470  -7.0469  -6.9089  -0.7965   0.2723   0.8372

     the Fermi energy is    -6.8770 ev

!    total energy              =     -31.94503706 Ry
     Harris-Foulkes estimate   =     -31.94503706 Ry
     estimated scf accuracy    <          7.1E-09 Ry

     convergence has been achieved in  17 iterations

     Forces acting on atoms (Ry/au):

     atom    1 type  1   force =    -0.00851133   -0.04014465   -0.00198992
     atom    2 type  1   force =     0.00048340   -0.00067780   -0.00022574
     atom    3 type  2   force =     0.00802793    0.04082245    0.00221566

     Total force =     0.058520     Total SCF correction =     0.000023

     Entering Dynamics:    iteration =     2
                           time      =   0.0097 pico-seconds


     Andersen thermostat:    3 collisions

ATOMIC_POSITIONS (bohr)
H        4.390188563  12.920554413  10.812641282
H        8.893602422  20.288143326  16.801744035
O        4.134408876  11.456094433  10.261774752


     kinetic energy (Ekin) =     0.02108644 Ry
     temperature           =  1109.76060630 K 
     Ekin + Etot (const)   =   -31.92395062 Ry
     Message from routine dynamics:
     Total linear momentum <> 0

     Linear momentum :    0.3570918137    0.2253654054    0.4220159933

     Writing output data file pwscf.save

     first order wave-functions extrapolation
     Check: negative starting charge=   -0.348785
     first order charge density extrapolation
     Check: negative starting charge=   -0.351333

     negative rho (up, down):  1.450E-01 0.000E+00

     total cpu time spent up to now is        3.2 secs

     per-process dynamical memory:    20.4 Mb

     Self-consistent Calculation

     iteration #  1     ecut=    30.00 Ry     beta=0.70
     Davidson diagonalization with overlap
     c_bands:  2 eigenvalues not converged
     ethr =  1.00E-06,  avg # of iterations = 20.0

     negative rho (up, down):  3.587E-02 0.000E+00

     total cpu time spent up to now is        3.3 secs

     total energy              =     -31.01035635 Ry
     Harris-Foulkes estimate   =     -31.80931688 Ry
     estimated scf accuracy    <       1.09704512 Ry

     iteration #  2     ecut=    30.00 Ry     beta=0.70
     Davidson diagonalization with overlap
     ethr =  1.00E-02,  avg # of iterations =  3.0

     negative rho (up, down):  1.952E-03 0.000E+00

     total cpu time spent up to now is        3.4 secs

     total energy              =     -31.10305466 Ry
     Harris-Foulkes estimate   =     -34.21844545 Ry
     estimated scf accuracy    <      11.35410327 Ry

     iteration #  3     ecut=    30.00 Ry     beta=0.70
     Davidson diagonalization with overlap
     ethr =  1.00E-02,  avg # of iterations =  2.0

     negative rho (up, down):  3.555E-04 0.000E+00

     total cpu time spent up to now is        3.4 secs

     total energy              =     -31.03433187 Ry
     Harris-Foulkes estimate   =     -31.29082424 Ry
     estimated scf accuracy    <       6.23418367 Ry

     iteration #  4     ecut=    30.00 Ry     beta=0.70
     Davidson diagonalization with overlap
     ethr =  1.00E-02,  avg # of iterations =  1.0

     negative rho (up, down):  2.901E-02 0.000E+00

     total cpu time spent up to now is        3.5 secs

     total energy              =     -30.17894737 Ry
     Harris-Foulkes estimate   =     -31.04207658 Ry
     estimated scf accuracy    <       5.84948467 Ry

     iteration #  5     ecut=    30.00 Ry     beta=0.70
     Davidson diagonalization with overlap
     ethr =  1.00E-02,  avg # of iterations =  4.0

     negative rho (up, down):  3.166E-02 0.000E+00

     total cpu time spent up to now is        3.5 secs

     total energy              =     -31.64186192 Ry
     Harris-Foulkes estimate   =     -31.62801473 Ry
     estimated scf accuracy    <       1.12530980 Ry

     iteration #  6     ecut=    30.00 Ry     beta=0.70
     Davidson diagonalization with overlap
     ethr =  1.00E-02,  avg # of iterations =  1.0

     negative rho (up, down):  1.549E-01 0.000E+00

     total cpu time spent up to now is        3.5 secs

     total energy              =     -31.70648715 Ry
     Harris-Foulkes estimate   =     -31.64620871 Ry
     estimated scf accuracy    <       1.11390783 Ry

     iteration #  7     ecut=    30.00 Ry     beta=0.70
     Davidson diagonalization with overlap
     ethr =  1.00E-02,  avg # of iterations =  5.0

     negative rho (up, down):  2.141E-01 0.000E+00

     total cpu time spent up to now is        3.6 secs

     total energy              =     -31.83108333 Ry
     Harris-Foulkes estimate   =     -31.83438304 Ry
     estimated scf accuracy    <       0.31507525 Ry

     iteration #  8     ecut=    30.00 Ry     beta=0.70
     Davidson diagonalization with overlap
     ethr =  3.94E-03,  avg # of iterations =  1.0

     negative rho (up, down):  2.012E-01 0.000E+00

     total cpu time spent up to now is        3.6 secs

     total energy              =     -31.83590528 Ry
     Harris-Foulkes estimate   =     -31.83231617 Ry
     estimated scf accuracy    <       0.42277712 Ry

     iteration #  9     ecut=    30.00 Ry     beta=0.70
     Davidson diagonalization with overlap
     ethr =  3.94E-03,  avg # of iterations =  1.0

     negative rho (up, down):  1.286E-01 0.000E+00

     total cpu time spent up to now is        3.6 secs

     total energy              =     -31.69543861 Ry
     Harris-Foulkes estimate   =     -31.83621787 Ry
     estimated scf accuracy    <       0.54211944 Ry

     iteration # 10     ecut=    30.00 Ry     beta=0.70
     Davidson diagonalization with overlap
     ethr =  3.94E-03,  avg # of iterations =  1.0

     negative rho (up, down):  6.638E-02 0.000E+00

     total cpu time spent up to now is        3.7 secs

     total energy              =     -32.05257535 Ry
     Harris-Foulkes estimate   =     -32.02947366 Ry
     estimated scf accuracy    <       1.20626039 Ry

     iteration # 11     ecut=    30.00 Ry     beta=0.70
     Davidson diagonalization with overlap
     ethr =  3.94E-03,  avg # of iterations =  1.0

     negative rho (up, down):  3.003E-02 0.000E+00

     total cpu time spent up to now is        3.7 secs

     total energy              =     -32.05625457 Ry
     Harris-Foulkes estimate   =     -32.05443236 Ry
     estimated scf accuracy    <       1.26294891 Ry

     iteration # 12     ecut=    30.00 Ry     beta=0.70
     Davidson diagonalization with overlap
     ethr =  3.94E-03,  avg # of iterations =  1.0

     total cpu time spent up to now is        3.7 secs

     total energy              =     -31.97289329 Ry
     Harris-Foulkes estimate   =     -32.05656932 Ry
     estimated scf accuracy    <       1.28037456 Ry

     iteration # 13     ecut=    30.00 Ry     beta=0.70
     Davidson diagonalization with overlap
     ethr =  3.94E-03,  avg # of iterations =  1.0

     negative rho (up, down):  1.292E-02 0.000E+00

     total cpu time spent up to now is        3.8 secs

     total energy              =     -31.91337465 Ry
     Harris-Foulkes estimate   =     -31.97293348 Ry
     estimated scf accuracy    <       1.16395697 Ry

     iteration # 14     ecut=    30.00 Ry     beta=0.70
     Davidson diagonalization with overlap
     ethr =  3.94E-03,  avg # of iterations =  1.0

     negative rho (up, down):  6.564E-03 0.000E+00

     total cpu time spent up to now is        3.8 secs

     total energy              =     -31.89626087 Ry
     Harris-Foulkes estimate   =     -31.91808738 Ry
     estimated scf accuracy    <       1.01065204 Ry

     iteration # 15     ecut=    30.00 Ry     beta=0.70
     Davidson diagonalization with overlap
     ethr =  3.94E-03,  avg # of iterations =  1.0

     negative rho (up, down):  1.488E-02 0.000E+00

     total cpu time spent up to now is        3.8 secs

     total energy              =     -31.81305441 Ry
     Harris-Foulkes estimate   =     -31.89645298 Ry
     estimated scf accuracy    <       0.98234776 Ry

     iteration # 16     ecut=    30.00 Ry     beta=0.70
     Davidson diagonalization with overlap
     ethr =  3.94E-03,  avg # of iterations =  1.0

     negative rho (up, down):  3.545E-03 0.000E+00

     total cpu time spent up to now is        3.9 secs

     total energy              =     -31.83111608 Ry
     Harris-Foulkes estimate   =     -31.82796120 Ry
     estimated scf accuracy    <       0.00196108 Ry

     iteration # 17     ecut=    30.00 Ry     beta=0.70
     Davidson diagonalization with overlap
     ethr =  2.45E-05,  avg # of iterations =  6.0

     negative rho (up, down):  4.114E-03 0.000E+00

     total cpu time spent up to now is        3.9 secs

     total energy              =     -31.82822175 Ry
     Harris-Foulkes estimate   =     -31.85747718 Ry
     estimated scf accuracy    <       0.88168424 Ry

     iteration # 18     ecut=    30.00 Ry     beta=0.70
     Davidson diagonalization with overlap
     ethr =  2.45E-05,  avg # of iterations =  1.0

     negative rho (up, down):  2.782E-03 0.000E+00

     total cpu time spent up to now is        3.9 secs

     total energy              =     -31.82322377 Ry
     Harris-Foulkes estimate   =     -31.83285330 Ry
     estimated scf accuracy    <       0.24085861 Ry

     iteration # 19     ecut=    30.00 Ry     beta=0.70
     Davidson diagonalization with overlap
     ethr =  2.45E-05,  avg # of iterations =  1.0

     negative rho (up, down):  1.500E-03 0.000E+00

     total cpu time spent up to now is        4.0 secs

     total energy              =     -31.82376991 Ry
     Harris-Foulkes estimate   =     -31.82971699 Ry
     estimated scf accuracy    <       0.04882196 Ry

     iteration # 20     ecut=    30.00 Ry     beta=0.70
     Davidson diagonalization with overlap
     ethr =  2.45E-05,  avg # of iterations =  1.0

     negative rho (up, down):  2.849E-04 0.000E+00

     total cpu time spent up to now is        4.0 secs

     total energy              =     -31.83943967 Ry
     Harris-Foulkes estimate   =     -31.83760184 Ry
     estimated scf accuracy    <       0.47716726 Ry

     iteration # 21     ecut=    30.00 Ry     beta=0.70
     Davidson diagonalization with overlap
     ethr =  2.45E-05,  avg # of iterations =  1.0

     negative rho (up, down):  1.876E-06 0.000E+00

     total cpu time spent up to now is        4.0 secs

     total energy              =     -31.82896618 Ry
     Harris-Foulkes estimate   =     -31.83952304 Ry
     estimated scf accuracy    <       0.55260025 Ry

     iteration # 22     ecut=    30.00 Ry     beta=0.70
     Davidson diagonalization with overlap
     ethr =  2.45E-05,  avg # of iterations =  1.0

     negative rho (up, down):  5.585E-08 0.000E+00

     total cpu time spent up to now is        4.1 secs

     total energy              =     -31.82909664 Ry
     Harris-Foulkes estimate   =     -31.83121522 Ry
     estimated scf accuracy    <       0.14992024 Ry

     iteration # 23     ecut=    30.00 Ry     beta=0.70
     Davidson diagonalization with overlap
     ethr =  2.45E-05,  avg # of iterations =  1.0

     total cpu time spent up to now is        4.1 secs

     total energy              =     -31.82834093 Ry
     Harris-Foulkes estimate   =     -31.82959177 Ry
     estimated scf accuracy    <       0.04026958 Ry

     iteration # 24     ecut=    30.00 Ry     beta=0.70
     Davidson diagonalization with overlap
     ethr =  2.45E-05,  avg # of iterations =  1.0

     negative rho (up, down):  3.359E-07 0.000E+00

     total cpu time spent up to now is        4.1 secs

     total energy              =     -31.82902807 Ry
     Harris-Foulkes estimate   =     -31.82906823 Ry
     estimated scf accuracy    <       0.00140998 Ry

     iteration # 25     ecut=    30.00 Ry     beta=0.70
     Davidson diagonalization with overlap
     ethr =  1.76E-05,  avg # of iterations =  1.0

     total cpu time spent up to now is        4.2 secs

     total energy              =     -31.82905142 Ry
     Harris-Foulkes estimate   =     -31.82904995 Ry
     estimated scf accuracy    <       0.00001420 Ry

     iteration # 26     ecut=    30.00 Ry     beta=0.70
     Davidson diagonalization with overlap
     ethr =  1.78E-07,  avg # of iterations =  3.0

     total cpu time spent up to now is        4.2 secs

     total energy              =     -31.82904731 Ry
     Harris-Foulkes estimate   =     -31.82905301 Ry
     estimated scf accuracy    <       0.00020970 Ry

     iteration # 27     ecut=    30.00 Ry     beta=0.70
     Davidson diagonalization with overlap
     ethr =  1.78E-07,  avg # of iterations =  1.0

     total cpu time spent up to now is        4.3 secs

     total energy              =     -31.82905067 Ry
     Harris-Foulkes estimate   =     -31.82905069 Ry
     estimated scf accuracy    <       0.00000353 Ry

     iteration # 28     ecut=    30.00 Ry     beta=0.70
     Davidson diagonalization with overlap
     ethr =  4.41E-08,  avg # of iterations =  1.0

     total cpu time spent up to now is        4.3 secs

     total energy              =     -31.82905040 Ry
     Harris-Foulkes estimate   =     -31.82905070 Ry
     estimated scf accuracy    <       0.00000942 Ry

     iteration # 29     ecut=    30.00 Ry     beta=0.70
     Davidson diagonalization with overlap
     ethr =  4.41E-08,  avg # of iterations =  1.0

     total cpu time spent up to now is        4.3 secs

     total energy              =     -31.82905059 Ry
     Harris-Foulkes estimate   =     -31.82905062 Ry
     estimated scf accuracy    <       0.00000120 Ry

     iteration # 30     ecut=    30.00 Ry     beta=0.70
     Davidson diagonalization with overlap
     ethr =  1.50E-08,  avg # of iterations =  1.0

     total cpu time spent up to now is        4.3 secs

     End of self-consistent calculation

          k = 0.0000 0.0000 0.0000 ( 22119 PWs)   bands (ev):

   -26.2814 -11.1162  -7.1872  -7.1868  -7.0435  -0.4603   0.4622   0.8247

     the Fermi energy is    -7.0152 ev

!    total energy              =     -31.82905061 Ry
     Harris-Foulkes estimate   =     -31.82905060 Ry
     estimated scf accuracy    <          2.0E-09 Ry

     convergence has been achieved in  30 iterations

     Forces acting on atoms (Ry/au):

     atom    1 type  1   force =     0.10710845    0.60987369    0.22964966
     atom    2 type  1   force =     0.00031120   -0.00069084    0.00011221
     atom    3 type  2   force =    -0.10741964   -0.60918286   -0.22976187

     Total force =     0.933590     Total SCF correction =     0.000026

     Entering Dynamics:    iteration =     3
                           time      =   0.0145 pico-seconds


     Andersen thermostat:    3 collisions

ATOMIC_POSITIONS (bohr)
H        5.772819820  19.804353545  13.125917944
H        8.638661284  20.016074444  16.881262533
O        4.063223437  11.038728961  10.110729557


     kinetic energy (Ekin) =     0.71228687 Ry
     temperature           = 37487.02252984 K 
     Ekin + Etot (const)   =   -31.11676374 Ry
     Message from routine dynamics:
     Total linear momentum <> 0

     Linear momentum :    0.0237159277   -0.0321581602   -0.1827468009

     Writing output data file pwscf.save

     second order wave-functions extrapolation
     Check: negative starting charge=   -0.351333
     second order charge density extrapolation
     Check: negative starting charge=   -0.356327

     negative rho (up, down):  1.403E+00 0.000E+00

     total cpu time spent up to now is        4.7 secs

     per-process dynamical memory:    20.4 Mb

     Self-consistent Calculation

     iteration #  1     ecut=    30.00 Ry     beta=0.70
     Davidson diagonalization with overlap
     c_bands:  1 eigenvalues not converged
     ethr =  1.00E-06,  avg # of iterations = 20.0

     negative rho (up, down):  2.269E-01 0.000E+00

     total cpu time spent up to now is        4.8 secs

     total energy              =      73.01664806 Ry
     Harris-Foulkes estimate   =   -1042.69384655 Ry
     estimated scf accuracy    <      39.18495848 Ry

     iteration #  2     ecut=    30.00 Ry     beta=0.70
     Davidson diagonalization with overlap
     ethr =  1.00E-02,  avg # of iterations = 11.0

     negative rho (up, down):  1.008E-01 0.000E+00

     total cpu time spent up to now is        4.9 secs

     total energy              =      38.15013294 Ry
     Harris-Foulkes estimate   =    -664.39474255 Ry
     estimated scf accuracy    <      18.99774119 Ry

     iteration #  3     ecut=    30.00 Ry     beta=0.70
     Davidson diagonalization with overlap
     ethr =  1.00E-02,  avg # of iterations =  6.0

     negative rho (up, down):  9.051E-02 0.000E+00

     total cpu time spent up to now is        4.9 secs

     total energy              =     -36.35316274 Ry
     Harris-Foulkes estimate   =     -44.45932763 Ry
     estimated scf accuracy    <      21.23119713 Ry

     iteration #  4     ecut=    30.00 Ry     beta=0.70
     Davidson diagonalization with overlap
     ethr =  1.00E-02,  avg # of iterations =  4.0

     negative rho (up, down):  8.736E-02 0.000E+00

     total cpu time spent up to now is        5.0 secs

     total energy              =     -35.28925253 Ry
     Harris-Foulkes estimate   =     -37.66109484 Ry
     estimated scf accuracy    <      10.09964708 Ry

     iteration #  5     ecut=    30.00 Ry     beta=0.70
     Davidson diagonalization with overlap
     ethr =  1.00E-02,  avg # of iterations =  1.0

     negative rho (up, down):  8.413E-02 0.000E+00

     total cpu time spent up to now is        5.0 secs

     total energy              =     -34.70383299 Ry
     Harris-Foulkes estimate   =     -35.45872653 Ry
     estimated scf accuracy    <       7.06909379 Ry

     iteration #  6     ecut=    30.00 Ry     beta=0.70
     Davidson diagonalization with overlap
     ethr =  1.00E-02,  avg # of iterations =  1.0

     negative rho (up, down):  6.595E-02 0.000E+00

     total cpu time spent up to now is        5.1 secs

     total energy              =     -32.68978284 Ry
     Harris-Foulkes estimate   =     -34.80645250 Ry
     estimated scf accuracy    <       5.80723960 Ry

     iteration #  7     ecut=    30.00 Ry     beta=0.70
     Davidson diagonalization with overlap
     ethr =  1.00E-02,  avg # of iterations =  4.0

     negative rho (up, down):  6.616E-02 0.000E+00

     total cpu time spent up to now is        5.1 secs

     total energy              =      -3.11398687 Ry
     Harris-Foulkes estimate   =    -140.87607797 Ry
     estimated scf accuracy    <       4.28534760 Ry

     iteration #  8     ecut=    30.00 Ry     beta=0.70
     Davidson diagonalization with overlap
     ethr =  1.00E-02,  avg # of iterations =  6.0

     negative rho (up, down):  3.599E-02 0.000E+00

     total cpu time spent up to now is        5.2 secs

     total energy              =     -31.78845691 Ry
     Harris-Foulkes estimate   =     -32.69666793 Ry
     estimated scf accuracy    <       2.42396782 Ry

     iteration #  9     ecut=    30.00 Ry     beta=0.70
     Davidson diagonalization with overlap
     ethr =  1.00E-02,  avg # of iterations =  4.0

     negative rho (up, down):  3.967E-02 0.000E+00

     total cpu time spent up to now is        5.2 secs

     total energy              =     189.48603902 Ry
     Harris-Foulkes estimate   =     -36.55443936 Ry
     estimated scf accuracy    <      10.11018682 Ry

     iteration # 10     ecut=    30.00 Ry     beta=0.70
     Davidson diagonalization with overlap
     ethr =  1.00E-02,  avg # of iterations =  5.0

     negative rho (up, down):  1.290E-01 0.000E+00

     total cpu time spent up to now is        5.2 secs

     total energy              =     -49.43078541 Ry
     Harris-Foulkes estimate   =     -31.91727907 Ry
     estimated scf accuracy    <       3.48152990 Ry

     iteration # 11     ecut=    30.00 Ry     beta=0.70
     Davidson diagonalization with overlap
     ethr =  1.00E-02,  avg # of iterations =  6.0

     negative rho (up, down):  1.633E-02 0.000E+00

     total cpu time spent up to now is        5.3 secs

     total energy              =      85.50445518 Ry
     Harris-Foulkes estimate   =   -2055.46165637 Ry
     estimated scf accuracy    <      47.17143200 Ry

     iteration # 12     ecut=    30.00 Ry     beta=0.70
     Davidson diagonalization with overlap
     ethr =  1.00E-02,  avg # of iterations =  7.0

     negative rho (up, down):  4.025E-02 0.000E+00

     total cpu time spent up to now is        5.3 secs

     total energy              =     -33.11602175 Ry
     Harris-Foulkes estimate   =     -31.79228539 Ry
     estimated scf accuracy    <       0.99261071 Ry

     iteration # 13     ecut=    30.00 Ry     beta=0.70
     Davidson diagonalization with overlap
     ethr =  1.00E-02,  avg # of iterations =  3.0

     negative rho (up, down):  2.891E-02 0.000E+00

     total cpu time spent up to now is        5.4 secs

     total energy              =     -84.01305664 Ry
     Harris-Foulkes estimate   =     -41.00979804 Ry
     estimated scf accuracy    <       9.30048616 Ry

     iteration # 14     ecut=    30.00 Ry     beta=0.70
     Davidson diagonalization with overlap
     ethr =  1.00E-02,  avg # of iterations =  4.0

     negative rho (up, down):  2.728E-02 0.000E+00

     total cpu time spent up to now is        5.4 secs

     total energy              =    -403.05964193 Ry
     Harris-Foulkes estimate   =    -455.87445383 Ry
     estimated scf accuracy    <      18.13432722 Ry

     iteration # 15     ecut=    30.00 Ry     beta=0.70
     Davidson diagonalization with overlap
     ethr =  1.00E-02,  avg # of iterations =  4.0

     negative rho (up, down):  3.309E-02 0.000E+00

     total cpu time spent up to now is        5.5 secs

     total energy              =       1.26705332 Ry
     Harris-Foulkes estimate   =    -549.20276578 Ry
     estimated scf accuracy    <       5.02515568 Ry

     iteration # 16     ecut=    30.00 Ry     beta=0.70
     Davidson diagonalization with overlap
     ethr =  1.00E-02,  avg # of iterations =  4.0

     negative rho (up, down):  7.020E-04 0.000E+00

     total cpu time spent up to now is        5.5 secs

     total energy              =     -31.49300451 Ry
     Harris-Foulkes estimate   =     -31.76119492 Ry
     estimated scf accuracy    <       1.18799952 Ry

     iteration # 17     ecut=    30.00 Ry     beta=0.70
     Davidson diagonalization with overlap
     ethr =  1.00E-02,  avg # of iterations =  1.0

     negative rho (up, down):  5.016E-04 0.000E+00

     total cpu time spent up to now is        5.5 secs

     total energy              =     -31.53680798 Ry
     Harris-Foulkes estimate   =     -31.58402368 Ry
     estimated scf accuracy    <       0.45408419 Ry

     iteration # 18     ecut=    30.00 Ry     beta=0.70
     Davidson diagonalization with overlap
     ethr =  5.68E-03,  avg # of iterations =  1.0

     negative rho (up, down):  1.008E-06 0.000E+00

     total cpu time spent up to now is        5.6 secs

     total energy              =     -31.53185898 Ry
     Harris-Foulkes estimate   =     -31.59470870 Ry
     estimated scf accuracy    <       0.44071173 Ry

     iteration # 19     ecut=    30.00 Ry     beta=0.70
     Davidson diagonalization with overlap
     ethr =  5.51E-03,  avg # of iterations =  1.0

     negative rho (up, down):  2.690E-07 0.000E+00

     total cpu time spent up to now is        5.6 secs

     total energy              =     -31.55352425 Ry
     Harris-Foulkes estimate   =     -31.55754922 Ry
     estimated scf accuracy    <       0.25716041 Ry

     iteration # 20     ecut=    30.00 Ry     beta=0.70
     Davidson diagonalization with overlap
     ethr =  3.21E-03,  avg # of iterations =  1.0

     negative rho (up, down):  4.509E-08 0.000E+00

     total cpu time spent up to now is        5.6 secs

     total energy              =     -31.55014423 Ry
     Harris-Foulkes estimate   =     -31.55688558 Ry
     estimated scf accuracy    <       0.09983902 Ry

     iteration # 21     ecut=    30.00 Ry     beta=0.70
     Davidson diagonalization with overlap
     ethr =  1.25E-03,  avg # of iterations =  1.0

     negative rho (up, down):  1.993E-05 0.000E+00

     total cpu time spent up to now is        5.7 secs

     total energy              =     -31.54884843 Ry
     Harris-Foulkes estimate   =     -31.55313226 Ry
     estimated scf accuracy    <       0.08982575 Ry

     iteration # 22     ecut=    30.00 Ry     beta=0.70
     Davidson diagonalization with overlap
     ethr =  1.12E-03,  avg # of iterations =  1.0

     total cpu time spent up to now is        5.7 secs

     total energy              =     -31.54353474 Ry
     Harris-Foulkes estimate   =     -31.55554733 Ry
     estimated scf accuracy    <       0.18543679 Ry

     iteration # 23     ecut=    30.00 Ry     beta=0.70
     Davidson diagonalization with overlap
     ethr =  1.12E-03,  avg # of iterations =  1.0

     negative rho (up, down):  6.363E-07 0.000E+00

     total cpu time spent up to now is        5.7 secs

     total energy              =     -31.54402763 Ry
     Harris-Foulkes estimate   =     -31.54736580 Ry
     estimated scf accuracy    <       0.04186123 Ry

     iteration # 24     ecut=    30.00 Ry     beta=0.70
     Davidson diagonalization with overlap
     ethr =  5.23E-04,  avg # of iterations =  1.0

     negative rho (up, down):  2.131E-03 0.000E+00

     total cpu time spent up to now is        5.8 secs

     total energy              =     -31.56675715 Ry
     Harris-Foulkes estimate   =     -31.54761362 Ry
     estimated scf accuracy    <       0.19039068 Ry

     iteration # 25     ecut=    30.00 Ry     beta=0.70
     Davidson diagonalization with overlap
     ethr =  5.23E-04,  avg # of iterations =  3.0

     negative rho (up, down):  2.374E-05 0.000E+00

     total cpu time spent up to now is        5.8 secs

     total energy              =     -31.46418437 Ry
     Harris-Foulkes estimate   =     -31.64694479 Ry
     estimated scf accuracy    <       0.31535040 Ry

     iteration # 26     ecut=    30.00 Ry     beta=0.70
     Davidson diagonalization with overlap
     ethr =  5.23E-04,  avg # of iterations =  3.0

     negative rho (up, down):  6.148E-06 0.000E+00

     total cpu time spent up to now is        5.9 secs

     total energy              =     -31.54817837 Ry
     Harris-Foulkes estimate   =     -31.55145106 Ry
     estimated scf accuracy    <       0.07590546 Ry

     iteration # 27     ecut=    30.00 Ry     beta=0.70
     Davidson diagonalization with overlap
     ethr =  5.23E-04,  avg # of iterations =  1.0

     negative rho (up, down):  6.182E-06 0.000E+00

     total cpu time spent up to now is        5.9 secs

     total energy              =     -31.54975236 Ry
     Harris-Foulkes estimate   =     -31.55034399 Ry
     estimated scf accuracy    <       0.01923038 Ry

     iteration # 28     ecut=    30.00 Ry     beta=0.70
     Davidson diagonalization with overlap
     ethr =  2.40E-04,  avg # of iterations =  1.0

     negative rho (up, down):  2.441E-06 0.000E+00

     total cpu time spent up to now is        5.9 secs

     total energy              =     -31.55002741 Ry
     Harris-Foulkes estimate   =     -31.55027672 Ry
     estimated scf accuracy    <       0.00919216 Ry

     iteration # 29     ecut=    30.00 Ry     beta=0.70
     Davidson diagonalization with overlap
     ethr =  1.15E-04,  avg # of iterations =  1.0

     negative rho (up, down):  2.262E-07 0.000E+00

     total cpu time spent up to now is        6.0 secs

     total energy              =     -31.55039583 Ry
     Harris-Foulkes estimate   =     -31.55038581 Ry
     estimated scf accuracy    <       0.00281091 Ry

     iteration # 30     ecut=    30.00 Ry     beta=0.70
     Davidson diagonalization with overlap
     ethr =  3.51E-05,  avg # of iterations = 13.0

     negative rho (up, down):  4.303E-08 0.000E+00

     total cpu time spent up to now is        6.0 secs

     total energy              =     -31.55056339 Ry
     Harris-Foulkes estimate   =     -31.55056054 Ry
     estimated scf accuracy    <       0.00054954 Ry

     iteration # 31     ecut=    30.00 Ry     beta=0.70
     Davidson diagonalization with overlap
     ethr =  6.87E-06,  avg # of iterations = 11.0

     total cpu time spent up to now is        6.0 secs

     total energy              =     -31.55059172 Ry
     Harris-Foulkes estimate   =     -31.55059135 Ry
     estimated scf accuracy    <       0.00009380 Ry

     iteration # 32     ecut=    30.00 Ry     beta=0.70
     Davidson diagonalization with overlap
     ethr =  1.17E-06,  avg # of iterations =  3.0

     total cpu time spent up to now is        6.1 secs

     total energy              =     -31.55059821 Ry
     Harris-Foulkes estimate   =     -31.55059681 Ry
     estimated scf accuracy    <       0.00003214 Ry

     iteration # 33     ecut=    30.00 Ry     beta=0.70
     Davidson diagonalization with overlap
     ethr =  4.02E-07,  avg # of iterations =  1.0

     total cpu time spent up to now is        6.1 secs

     total energy              =     -31.55060032 Ry
     Harris-Foulkes estimate   =     -31.55059977 Ry
     estimated scf accuracy    <       0.00002048 Ry

     iteration # 34     ecut=    30.00 Ry     beta=0.70
     Davidson diagonalization with overlap
     ethr =  2.56E-07,  avg # of iterations =  1.0

     total cpu time spent up to now is        6.1 secs

     total energy              =     -31.55060091 Ry
     Harris-Foulkes estimate   =     -31.55060080 Ry
     estimated scf accuracy    <       0.00000432 Ry

     iteration # 35     ecut=    30.00 Ry     beta=0.70
     Davidson diagonalization with overlap
     ethr =  5.40E-08,  avg # of iterations =  1.0

     total cpu time spent up to now is        6.2 secs

     total energy              =     -31.55060121 Ry
     Harris-Foulkes estimate   =     -31.55060108 Ry
     estimated scf accuracy    <       0.00000042 Ry

     iteration # 36     ecut=    30.00 Ry     beta=0.70
     Davidson diagonalization with overlap
     ethr =  5.30E-09,  avg # of iterations =  1.0

     total cpu time spent up to now is        6.2 secs

     total energy              =     -31.55060129 Ry
     Harris-Foulkes estimate   =     -31.55060123 Ry
     estimated scf accuracy    <       0.00000004 Ry

     iteration # 37     ecut=    30.00 Ry     beta=0.70
     Davidson diagonalization with overlap
     ethr =  4.78E-10,  avg # of iterations =  1.0

     total cpu time spent up to now is        6.2 secs

     End of self-consistent calculation

          k = 0.0000 0.0000 0.0000 ( 22119 PWs)   bands (ev):

   -23.9712  -7.4940  -7.3567  -7.3560  -7.3559  -6.2433  -0.2565   0.5733

     the Fermi energy is    -7.2246 ev

!    total energy              =     -31.55060129 Ry
     Harris-Foulkes estimate   =     -31.55060129 Ry
     estimated scf accuracy    <          1.4E-09 Ry

     convergence has been achieved in  37 iterations

     Forces acting on atoms (Ry/au):

     atom    1 type  1   force =     0.03249978    0.00239397    0.04212961
     atom    2 type  1   force =    -0.03211273   -0.00202777   -0.04254663
     atom    3 type  2   force =    -0.00038705   -0.00036620    0.00041702

     Total force =     0.075385     Total SCF correction =     0.000009

     Entering Dynamics:    iteration =     4
                           time      =   0.0194 pico-seconds


     Andersen thermostat:    3 collisions

ATOMIC_POSITIONS (bohr)
H        6.259957697  19.754692918  13.270364035
H        7.828816042  20.264229804  16.265395734
O        4.083594340  11.026198981  10.140487990


     kinetic energy (Ekin) =     0.04015321 Ry
     temperature           =  2113.22758312 K 
     Ekin + Etot (const)   =   -31.51044808 Ry
     Message from routine dynamics:
     Total linear momentum <> 0

     Linear momentum :    0.1950767696    0.0923554432    0.6463801027

     Writing output data file pwscf.save

     second order wave-functions extrapolation
     Message from extrapolate_wfcs: 
     the matrix <psi(t-dt)|psi(t)> has  1 small (< 0.1) eigenvalues
     Check: negative starting charge=   -0.356327
     second order charge density extrapolation
     Check: negative starting charge=   -0.359622

     negative rho (up, down):  8.528E-02 0.000E+00

     total cpu time spent up to now is        6.6 secs

     per-process dynamical memory:    20.4 Mb

     Self-consistent Calculation

     iteration #  1     ecut=    30.00 Ry     beta=0.70
     Davidson diagonalization with overlap
     c_bands:  1 eigenvalues not converged
     ethr =  1.00E-06,  avg # of iterations = 20.0

     negative rho (up, down):  2.005E-02 0.000E+00

     total cpu time spent up to now is        6.7 secs

     total energy              =     -22.28092892 Ry
     Harris-Foulkes estimate   =     -33.90107240 Ry
     estimated scf accuracy    <       3.40306412 Ry

     iteration #  2     ecut=    30.00 Ry     beta=0.70
     Davidson diagonalization with overlap
     ethr =  1.00E-02,  avg # of iterations =  3.0

     negative rho (up, down):  1.233E-02 0.000E+00

     total cpu time spent up to now is        6.8 secs

     total energy              =     -32.01299015 Ry
     Harris-Foulkes estimate   =     -33.52852383 Ry
     estimated scf accuracy    <       3.42211824 Ry

     iteration #  3     ecut=    30.00 Ry     beta=0.70
     Davidson diagonalization with overlap
     ethr =  1.00E-02,  avg # of iterations =  2.0

     negative rho (up, down):  1.171E-02 0.000E+00

     total cpu time spent up to now is        6.8 secs

     total energy              =     -31.79709231 Ry
     Harris-Foulkes estimate   =     -32.26085820 Ry
     estimated scf accuracy    <       4.19237234 Ry

     iteration #  4     ecut=    30.00 Ry     beta=0.70
     Davidson diagonalization with overlap
     ethr =  1.00E-02,  avg # of iterations =  1.0

     negative rho (up, down):  6.625E-03 0.000E+00

     total cpu time spent up to now is        6.8 secs

     total energy              =     -31.68273922 Ry
     Harris-Foulkes estimate   =     -32.06304531 Ry
     estimated scf accuracy    <       1.04443533 Ry

     iteration #  5     ecut=    30.00 Ry     beta=0.70
     Davidson diagonalization with overlap
     ethr =  1.00E-02,  avg # of iterations =  1.0

     negative rho (up, down):  6.102E-03 0.000E+00

     total cpu time spent up to now is        6.9 secs

     total energy              =     -31.73820069 Ry
     Harris-Foulkes estimate   =     -31.73338055 Ry
     estimated scf accuracy    <       0.25853671 Ry

     iteration #  6     ecut=    30.00 Ry     beta=0.70
     Davidson diagonalization with overlap
     ethr =  3.23E-03,  avg # of iterations =  1.0

     negative rho (up, down):  4.935E-03 0.000E+00

     total cpu time spent up to now is        6.9 secs

     total energy              =     -31.71075802 Ry
     Harris-Foulkes estimate   =     -31.74623827 Ry
     estimated scf accuracy    <       0.32414354 Ry

     iteration #  7     ecut=    30.00 Ry     beta=0.70
     Davidson diagonalization with overlap
     ethr =  3.23E-03,  avg # of iterations =  1.0

     negative rho (up, down):  8.729E-04 0.000E+00

     total cpu time spent up to now is        7.0 secs

     total energy              =     -31.62468839 Ry
     Harris-Foulkes estimate   =     -31.71159361 Ry
     estimated scf accuracy    <       0.23692397 Ry

     iteration #  8     ecut=    30.00 Ry     beta=0.70
     Davidson diagonalization with overlap
     ethr =  2.96E-03,  avg # of iterations =  1.0

     negative rho (up, down):  1.500E-03 0.000E+00

     total cpu time spent up to now is        7.0 secs

     total energy              =     -31.64845361 Ry
     Harris-Foulkes estimate   =     -31.65864456 Ry
     estimated scf accuracy    <       0.10564845 Ry

     iteration #  9     ecut=    30.00 Ry     beta=0.70
     Davidson diagonalization with overlap
     ethr =  1.32E-03,  avg # of iterations =  1.0

     negative rho (up, down):  1.200E-03 0.000E+00

     total cpu time spent up to now is        7.0 secs

     total energy              =     -31.64653827 Ry
     Harris-Foulkes estimate   =     -31.65201455 Ry
     estimated scf accuracy    <       0.05590880 Ry

     iteration # 10     ecut=    30.00 Ry     beta=0.70
     Davidson diagonalization with overlap
     ethr =  6.99E-04,  avg # of iterations =  1.0

     total cpu time spent up to now is        7.1 secs

     total energy              =     -31.59456423 Ry
     Harris-Foulkes estimate   =     -31.66045809 Ry
     estimated scf accuracy    <       0.61397106 Ry

     iteration # 11     ecut=    30.00 Ry     beta=0.70
     Davidson diagonalization with overlap
     ethr =  6.99E-04,  avg # of iterations =  2.0

     total cpu time spent up to now is        7.1 secs

     total energy              =     -31.65948399 Ry
     Harris-Foulkes estimate   =     -31.69699708 Ry
     estimated scf accuracy    <       0.20809428 Ry

     iteration # 12     ecut=    30.00 Ry     beta=0.70
     Davidson diagonalization with overlap
     ethr =  6.99E-04,  avg # of iterations =  1.0

     negative rho (up, down):  2.243E-07 0.000E+00

     total cpu time spent up to now is        7.1 secs

     total energy              =     -31.64789679 Ry
     Harris-Foulkes estimate   =     -31.66252213 Ry
     estimated scf accuracy    <       0.05003844 Ry

     iteration # 13     ecut=    30.00 Ry     beta=0.70
     Davidson diagonalization with overlap
     ethr =  6.25E-04,  avg # of iterations =  1.0

     negative rho (up, down):  5.390E-08 0.000E+00

     total cpu time spent up to now is        7.2 secs

     total energy              =     -31.71970350 Ry
     Harris-Foulkes estimate   =     -31.71497630 Ry
     estimated scf accuracy    <       3.02032834 Ry

     iteration # 14     ecut=    30.00 Ry     beta=0.70
     Davidson diagonalization with overlap
     ethr =  6.25E-04,  avg # of iterations =  1.0

     total cpu time spent up to now is        7.2 secs

     total energy              =     -31.73865583 Ry
     Harris-Foulkes estimate   =     -31.71974170 Ry
     estimated scf accuracy    <       3.10867521 Ry

     iteration # 15     ecut=    30.00 Ry     beta=0.70
     Davidson diagonalization with overlap
     ethr =  6.25E-04,  avg # of iterations =  1.0

     total cpu time spent up to now is        7.2 secs

     total energy              =     -31.74063494 Ry
     Harris-Foulkes estimate   =     -31.73898569 Ry
     estimated scf accuracy    <       3.31979526 Ry

     iteration # 16     ecut=    30.00 Ry     beta=0.70
     Davidson diagonalization with overlap
     ethr =  6.25E-04,  avg # of iterations =  1.0

     total cpu time spent up to now is        7.3 secs

     total energy              =     -31.79537474 Ry
     Harris-Foulkes estimate   =     -31.74063679 Ry
     estimated scf accuracy    <       3.32955074 Ry

     iteration # 17     ecut=    30.00 Ry     beta=0.70
     Davidson diagonalization with overlap
     ethr =  6.25E-04,  avg # of iterations =  1.0

     negative rho (up, down):  1.400E-07 0.000E+00

     total cpu time spent up to now is        7.3 secs

     total energy              =     -31.64636761 Ry
     Harris-Foulkes estimate   =     -31.79577320 Ry
     estimated scf accuracy    <       3.46355512 Ry

     iteration # 18     ecut=    30.00 Ry     beta=0.70
     Davidson diagonalization with overlap
     ethr =  6.25E-04,  avg # of iterations =  1.0

     negative rho (up, down):  7.570E-07 0.000E+00

     total cpu time spent up to now is        7.3 secs

     total energy              =     -31.69417713 Ry
     Harris-Foulkes estimate   =     -31.66631565 Ry
     estimated scf accuracy    <       0.53093617 Ry

     iteration # 19     ecut=    30.00 Ry     beta=0.70
     Davidson diagonalization with overlap
     ethr =  6.25E-04,  avg # of iterations =  1.0

     negative rho (up, down):  5.391E-08 0.000E+00

     total cpu time spent up to now is        7.4 secs

     total energy              =     -31.68912058 Ry
     Harris-Foulkes estimate   =     -31.72351713 Ry
     estimated scf accuracy    <       3.16702403 Ry

     iteration # 20     ecut=    30.00 Ry     beta=0.70
     Davidson diagonalization with overlap
     ethr =  6.25E-04,  avg # of iterations =  1.0

     negative rho (up, down):  8.506E-08 0.000E+00

     total cpu time spent up to now is        7.4 secs

     total energy              =     -31.67237471 Ry
     Harris-Foulkes estimate   =     -31.69133323 Ry
     estimated scf accuracy    <       2.21595257 Ry

     iteration # 21     ecut=    30.00 Ry     beta=0.70
     Davidson diagonalization with overlap
     ethr =  6.25E-04,  avg # of iterations =  1.0

     total cpu time spent up to now is        7.4 secs

     total energy              =     -31.60466749 Ry
     Harris-Foulkes estimate   =     -31.67459884 Ry
     estimated scf accuracy    <       1.23987152 Ry

     iteration # 22     ecut=    30.00 Ry     beta=0.70
     Davidson diagonalization with overlap
     ethr =  6.25E-04,  avg # of iterations =  1.0

     total cpu time spent up to now is        7.5 secs

     total energy              =     -31.66432781 Ry
     Harris-Foulkes estimate   =     -31.66340134 Ry
     estimated scf accuracy    <       0.03071000 Ry

     iteration # 23     ecut=    30.00 Ry     beta=0.70
     Davidson diagonalization with overlap
     ethr =  3.84E-04,  avg # of iterations =  1.0

     total cpu time spent up to now is        7.5 secs

     total energy              =     -31.66446596 Ry
     Harris-Foulkes estimate   =     -31.66423782 Ry
     estimated scf accuracy    <       0.02068214 Ry

     iteration # 24     ecut=    30.00 Ry     beta=0.70
     Davidson diagonalization with overlap
     ethr =  2.59E-04,  avg # of iterations =  1.0

     total cpu time spent up to now is        7.6 secs

     total energy              =     -31.66705315 Ry
     Harris-Foulkes estimate   =     -31.66446198 Ry
     estimated scf accuracy    <       0.01902210 Ry

     iteration # 25     ecut=    30.00 Ry     beta=0.70
     Davidson diagonalization with overlap
     ethr =  2.38E-04,  avg # of iterations =  1.0

     total cpu time spent up to now is        7.6 secs

     total energy              =     -31.66836532 Ry
     Harris-Foulkes estimate   =     -31.66668846 Ry
     estimated scf accuracy    <       0.01428155 Ry

     iteration # 26     ecut=    30.00 Ry     beta=0.70
     Davidson diagonalization with overlap
     ethr =  1.79E-04,  avg # of iterations =  1.0

     total cpu time spent up to now is        7.6 secs

     total energy              =     -31.66952141 Ry
     Harris-Foulkes estimate   =     -31.66840340 Ry
     estimated scf accuracy    <       0.01598503 Ry

     iteration # 27     ecut=    30.00 Ry     beta=0.70
     Davidson diagonalization with overlap
     ethr =  1.79E-04,  avg # of iterations =  1.0

     total cpu time spent up to now is        7.7 secs

     total energy              =     -31.66893229 Ry
     Harris-Foulkes estimate   =     -31.66954696 Ry
     estimated scf accuracy    <       0.01764542 Ry

     iteration # 28     ecut=    30.00 Ry     beta=0.70
     Davidson diagonalization with overlap
     ethr =  1.79E-04,  avg # of iterations =  1.0

     total cpu time spent up to now is        7.7 secs

     total energy              =     -31.66874349 Ry
     Harris-Foulkes estimate   =     -31.66893424 Ry
     estimated scf accuracy    <       0.01676189 Ry

     iteration # 29     ecut=    30.00 Ry     beta=0.70
     Davidson diagonalization with overlap
     ethr =  1.79E-04,  avg # of iterations =  1.0

     total cpu time spent up to now is        7.7 secs

     total energy              =     -31.66656407 Ry
     Harris-Foulkes estimate   =     -31.66874400 Ry
     estimated scf accuracy    <       0.01644511 Ry

     iteration # 30     ecut=    30.00 Ry     beta=0.70
     Davidson diagonalization with overlap
     ethr =  1.79E-04,  avg # of iterations =  1.0

     total cpu time spent up to now is        7.8 secs

     total energy              =     -31.65956895 Ry
     Harris-Foulkes estimate   =     -31.66658429 Ry
     estimated scf accuracy    <       0.01353805 Ry

     iteration # 31     ecut=    30.00 Ry     beta=0.70
     Davidson diagonalization with overlap
     ethr =  1.69E-04,  avg # of iterations =  1.0

     total cpu time spent up to now is        7.8 secs

     total energy              =     -31.64025416 Ry
     Harris-Foulkes estimate   =     -31.65990401 Ry
     estimated scf accuracy    <       0.19872621 Ry

     iteration # 32     ecut=    30.00 Ry     beta=0.70
     Davidson diagonalization with overlap
     ethr =  1.69E-04,  avg # of iterations =  1.0

     total cpu time spent up to now is        7.8 secs

     total energy              =     -31.66314901 Ry
     Harris-Foulkes estimate   =     -31.66286621 Ry
     estimated scf accuracy    <       0.02872943 Ry

     iteration # 33     ecut=    30.00 Ry     beta=0.70
     Davidson diagonalization with overlap
     ethr =  1.69E-04,  avg # of iterations =  1.0

     total cpu time spent up to now is        7.9 secs

     total energy              =     -31.66251954 Ry
     Harris-Foulkes estimate   =     -31.66314970 Ry
     estimated scf accuracy    <       0.02593471 Ry

     iteration # 34     ecut=    30.00 Ry     beta=0.70
     Davidson diagonalization with overlap
     ethr =  1.69E-04,  avg # of iterations =  1.0

     total cpu time spent up to now is        7.9 secs

     total energy              =     -31.66105750 Ry
     Harris-Foulkes estimate   =     -31.66247171 Ry
     estimated scf accuracy    <       0.03373630 Ry

     iteration # 35     ecut=    30.00 Ry     beta=0.70
     Davidson diagonalization with overlap
     ethr =  1.69E-04,  avg # of iterations =  1.0

     total cpu time spent up to now is        7.9 secs

     total energy              =     -31.66213966 Ry
     Harris-Foulkes estimate   =     -31.66086661 Ry
     estimated scf accuracy    <       0.05088018 Ry

     iteration # 36     ecut=    30.00 Ry     beta=0.70
     Davidson diagonalization with overlap
     ethr =  1.69E-04,  avg # of iterations =  1.0

     total cpu time spent up to now is        8.0 secs

     total energy              =     -31.66214143 Ry
     Harris-Foulkes estimate   =     -31.66205436 Ry
     estimated scf accuracy    <       0.03858405 Ry

[...]
     Davidson diagonalization with overlap
     ethr =  1.64E-04,  avg # of iterations =  1.0

     total cpu time spent up to now is        8.6 secs

     total energy              =     -31.66587051 Ry
     Harris-Foulkes estimate   =     -31.66637050 Ry
     estimated scf accuracy    <       0.01333706 Ry

     iteration # 54     ecut=    30.00 Ry     beta=0.70
     Davidson diagonalization with overlap
     ethr =  1.64E-04,  avg # of iterations =  1.0

     total cpu time spent up to now is        8.6 secs

     total energy              =     -31.66536046 Ry
     Harris-Foulkes estimate   =     -31.66586676 Ry
     estimated scf accuracy    <       0.01321653 Ry

     iteration # 55     ecut=    30.00 Ry     beta=0.70
     Davidson diagonalization with overlap
     ethr =  1.64E-04,  avg # of iterations =  1.0

     total cpu time spent up to now is        8.6 secs

     total energy              =     -31.66455667 Ry
     Harris-Foulkes estimate   =     -31.66535285 Ry
     estimated scf accuracy    <       0.01352037 Ry

     iteration # 56     ecut=    30.00 Ry     beta=0.70
     Davidson diagonalization with overlap
     ethr =  1.64E-04,  avg # of iterations =  1.0

     total cpu time spent up to now is        8.7 secs

     total energy              =     -31.66441113 Ry
     Harris-Foulkes estimate   =     -31.66451530 Ry
     estimated scf accuracy    <       0.01583347 Ry

     iteration # 57     ecut=    30.00 Ry     beta=0.70
     Davidson diagonalization with overlap
     ethr =  1.64E-04,  avg # of iterations =  1.0

     total cpu time spent up to now is        8.7 secs

     total energy              =     -31.67046741 Ry
     Harris-Foulkes estimate   =     -31.66441026 Ry
     estimated scf accuracy    <       0.01633429 Ry

     iteration # 58     ecut=    30.00 Ry     beta=0.70
     Davidson diagonalization with overlap
     ethr =  1.64E-04,  avg # of iterations =  1.0

     total cpu time spent up to now is        8.7 secs

     total energy              =     -31.66822319 Ry
     Harris-Foulkes estimate   =     -31.66963695 Ry
     estimated scf accuracy    <       0.01775654 Ry

     iteration # 59     ecut=    30.00 Ry     beta=0.70
     Davidson diagonalization with overlap
     ethr =  1.64E-04,  avg # of iterations =  1.0

     total cpu time spent up to now is        8.8 secs

     total energy              =     -31.68866273 Ry
     Harris-Foulkes estimate   =     -31.66823548 Ry
     estimated scf accuracy    <       0.01577256 Ry

     iteration # 60     ecut=    30.00 Ry     beta=0.70
     Davidson diagonalization with overlap
     ethr =  1.64E-04,  avg # of iterations =  2.0

     total cpu time spent up to now is        8.8 secs

     total energy              =     -31.67243359 Ry
     Harris-Foulkes estimate   =     -31.69017681 Ry
     estimated scf accuracy    <       0.05635194 Ry

     iteration # 61     ecut=    30.00 Ry     beta=0.70
     Davidson diagonalization with overlap
     ethr =  1.64E-04,  avg # of iterations =  1.0

     total cpu time spent up to now is        8.8 secs

     total energy              =     -31.66999069 Ry
     Harris-Foulkes estimate   =     -31.67411432 Ry
     estimated scf accuracy    <       0.02520386 Ry

     iteration # 62     ecut=    30.00 Ry     beta=0.70
     Davidson diagonalization with overlap
     ethr =  1.64E-04,  avg # of iterations =  1.0

     total cpu time spent up to now is        8.9 secs

     total energy              =     -31.66257661 Ry
     Harris-Foulkes estimate   =     -31.67010121 Ry
     estimated scf accuracy    <       0.01865727 Ry

     iteration # 63     ecut=    30.00 Ry     beta=0.70
     Davidson diagonalization with overlap
     ethr =  1.64E-04,  avg # of iterations =  1.0

     total cpu time spent up to now is        8.9 secs

     total energy              =     -31.65780691 Ry
     Harris-Foulkes estimate   =     -31.66149856 Ry
     estimated scf accuracy    <       0.04509945 Ry

     iteration # 64     ecut=    30.00 Ry     beta=0.70
     Davidson diagonalization with overlap
     ethr =  1.64E-04,  avg # of iterations =  1.0

     total cpu time spent up to now is        8.9 secs

     total energy              =     -31.65988256 Ry
     Harris-Foulkes estimate   =     -31.65766818 Ry
     estimated scf accuracy    <       0.02333529 Ry

     iteration # 65     ecut=    30.00 Ry     beta=0.70
     Davidson diagonalization with overlap
     ethr =  1.64E-04,  avg # of iterations =  1.0

     total cpu time spent up to now is        9.0 secs

     total energy              =     -31.67693216 Ry
     Harris-Foulkes estimate   =     -31.66068922 Ry
     estimated scf accuracy    <       0.05203492 Ry

     iteration # 66     ecut=    30.00 Ry     beta=0.70
     Davidson diagonalization with overlap
     ethr =  1.64E-04,  avg # of iterations =  1.0

     total cpu time spent up to now is        9.0 secs

     total energy              =     -31.68232009 Ry
     Harris-Foulkes estimate   =     -31.66977669 Ry
     estimated scf accuracy    <       0.01794459 Ry

     iteration # 67     ecut=    30.00 Ry     beta=0.70
     Davidson diagonalization with overlap
     ethr =  1.64E-04,  avg # of iterations =  1.0

     total cpu time spent up to now is        9.1 secs

     total energy              =     -31.68774056 Ry
     Harris-Foulkes estimate   =     -31.68294718 Ry
     estimated scf accuracy    <       0.03888621 Ry

     iteration # 68     ecut=    30.00 Ry     beta=0.70
     Davidson diagonalization with overlap
     ethr =  1.64E-04,  avg # of iterations =  1.0

     total cpu time spent up to now is        9.1 secs

     total energy              =     -31.69563882 Ry
     Harris-Foulkes estimate   =     -31.68781790 Ry
     estimated scf accuracy    <       0.04766469 Ry

     iteration # 69     ecut=    30.00 Ry     beta=0.70
     Davidson diagonalization with overlap
     ethr =  1.64E-04,  avg # of iterations =  1.0

     negative rho (up, down):  2.181E-08 0.000E+00

     total cpu time spent up to now is        9.1 secs

     total energy              =     -31.70940948 Ry
     Harris-Foulkes estimate   =     -31.69766197 Ry
     estimated scf accuracy    <       0.20860250 Ry

     iteration # 70     ecut=    30.00 Ry     beta=0.70
     Davidson diagonalization with overlap
     ethr =  1.64E-04,  avg # of iterations =  1.0

     total cpu time spent up to now is        9.2 secs

     total energy              =     -31.66595022 Ry
     Harris-Foulkes estimate   =     -31.71781157 Ry
     estimated scf accuracy    <       1.48349176 Ry

     iteration # 71     ecut=    30.00 Ry     beta=0.70
     Davidson diagonalization with overlap
     ethr =  1.64E-04,  avg # of iterations =  1.0

     total cpu time spent up to now is        9.2 secs

     total energy              =     -31.68749589 Ry
     Harris-Foulkes estimate   =     -31.69163293 Ry
     estimated scf accuracy    <       0.06771112 Ry

     iteration # 72     ecut=    30.00 Ry     beta=0.70
     Davidson diagonalization with overlap
     ethr =  1.64E-04,  avg # of iterations =  1.0

     total cpu time spent up to now is        9.2 secs

     total energy              =     -31.66239461 Ry
     Harris-Foulkes estimate   =     -31.68783799 Ry
     estimated scf accuracy    <       0.04805069 Ry

     iteration # 73     ecut=    30.00 Ry     beta=0.70
     Davidson diagonalization with overlap
     ethr =  1.64E-04,  avg # of iterations =  2.0

     negative rho (up, down):  3.411E-08 0.000E+00

     total cpu time spent up to now is        9.3 secs

     total energy              =     -31.66836986 Ry
     Harris-Foulkes estimate   =     -31.66468550 Ry
     estimated scf accuracy    <       0.01511133 Ry

     iteration # 74     ecut=    30.00 Ry     beta=0.70
     Davidson diagonalization with overlap
     ethr =  1.64E-04,  avg # of iterations =  1.0

     total cpu time spent up to now is        9.3 secs

     total energy              =     -31.65545733 Ry
     Harris-Foulkes estimate   =     -31.66799673 Ry
     estimated scf accuracy    <       0.01522987 Ry

     iteration # 75     ecut=    30.00 Ry     beta=0.70
     Davidson diagonalization with overlap
     ethr =  1.64E-04,  avg # of iterations =  3.0

     total cpu time spent up to now is        9.4 secs

     total energy              =     -31.47315672 Ry
     Harris-Foulkes estimate   =     -31.79965640 Ry
     estimated scf accuracy    <       3.47852309 Ry

     iteration # 76     ecut=    30.00 Ry     beta=0.70
     Davidson diagonalization with overlap
     ethr =  1.64E-04,  avg # of iterations =  3.0

     total cpu time spent up to now is        9.4 secs

     total energy              =     -31.66851343 Ry
     Harris-Foulkes estimate   =     -31.66825374 Ry
     estimated scf accuracy    <       0.01563059 Ry

     iteration # 77     ecut=    30.00 Ry     beta=0.70
     Davidson diagonalization with overlap
     ethr =  1.64E-04,  avg # of iterations =  1.0

     total cpu time spent up to now is        9.4 secs

     total energy              =     -31.66521403 Ry
     Harris-Foulkes estimate   =     -31.66853333 Ry
     estimated scf accuracy    <       0.01602888 Ry

     iteration # 78     ecut=    30.00 Ry     beta=0.70
     Davidson diagonalization with overlap
     ethr =  1.64E-04,  avg # of iterations =  1.0

     total cpu time spent up to now is        9.5 secs

     total energy              =     -31.66539820 Ry
     Harris-Foulkes estimate   =     -31.66519819 Ry
     estimated scf accuracy    <       0.01382806 Ry

     iteration # 79     ecut=    30.00 Ry     beta=0.70
     Davidson diagonalization with overlap
     ethr =  1.64E-04,  avg # of iterations =  1.0

     total cpu time spent up to now is        9.5 secs

     total energy              =     -31.66534068 Ry
     Harris-Foulkes estimate   =     -31.66539787 Ry
     estimated scf accuracy    <       0.01348570 Ry

     iteration # 80     ecut=    30.00 Ry     beta=0.70
     Davidson diagonalization with overlap
     ethr =  1.64E-04,  avg # of iterations =  1.0

     total cpu time spent up to now is        9.5 secs

     total energy              =     -31.66535974 Ry
     Harris-Foulkes estimate   =     -31.66534065 Ry
     estimated scf accuracy    <       0.01354704 Ry

     iteration # 81     ecut=    30.00 Ry     beta=0.70
     Davidson diagonalization with overlap
     ethr =  1.64E-04,  avg # of iterations =  1.0

     total cpu time spent up to now is        9.6 secs

     total energy              =     -31.66462626 Ry
     Harris-Foulkes estimate   =     -31.66535977 Ry
     estimated scf accuracy    <       0.01351194 Ry

     iteration # 82     ecut=    30.00 Ry     beta=0.70
     Davidson diagonalization with overlap
     ethr =  1.64E-04,  avg # of iterations =  1.0

     total cpu time spent up to now is        9.6 secs

     total energy              =     -31.66394080 Ry
     Harris-Foulkes estimate   =     -31.66459220 Ry
     estimated scf accuracy    <       0.01551518 Ry

     iteration # 83     ecut=    30.00 Ry     beta=0.70
     Davidson diagonalization with overlap
     ethr =  1.64E-04,  avg # of iterations =  1.0

     total cpu time spent up to now is        9.6 secs

     total energy              =     -31.66394024 Ry
     Harris-Foulkes estimate   =     -31.66389673 Ry
     estimated scf accuracy    <       0.01945559 Ry

     iteration # 84     ecut=    30.00 Ry     beta=0.70
     Davidson diagonalization with overlap
     ethr =  1.64E-04,  avg # of iterations =  1.0

     total cpu time spent up to now is        9.7 secs

     total energy              =     -31.66701920 Ry
     Harris-Foulkes estimate   =     -31.66394007 Ry
     estimated scf accuracy    <       0.01913814 Ry

     iteration # 85     ecut=    30.00 Ry     beta=0.70
     Davidson diagonalization with overlap
     ethr =  1.64E-04,  avg # of iterations =  1.0

     total cpu time spent up to now is        9.7 secs

     total energy              =     -31.67138236 Ry
     Harris-Foulkes estimate   =     -31.66649547 Ry
     estimated scf accuracy    <       0.01337516 Ry

     iteration # 86     ecut=    30.00 Ry     beta=0.70
     Davidson diagonalization with overlap
     ethr =  1.64E-04,  avg # of iterations =  1.0

     total cpu time spent up to now is        9.7 secs

     total energy              =     -31.67407130 Ry
     Harris-Foulkes estimate   =     -31.67144468 Ry
     estimated scf accuracy    <       0.02054623 Ry

     iteration # 87     ecut=    30.00 Ry     beta=0.70
     Davidson diagonalization with overlap
     ethr =  1.64E-04,  avg # of iterations =  1.0

     total cpu time spent up to now is        9.8 secs

     total energy              =     -31.66410658 Ry
     Harris-Foulkes estimate   =     -31.67410334 Ry
     estimated scf accuracy    <       0.02472777 Ry

     iteration # 88     ecut=    30.00 Ry     beta=0.70
     Davidson diagonalization with overlap
     ethr =  1.64E-04,  avg # of iterations =  1.0

     total cpu time spent up to now is        9.8 secs

     total energy              =     -31.66315385 Ry
     Harris-Foulkes estimate   =     -31.66437332 Ry
     estimated scf accuracy    <       0.01657476 Ry

     iteration # 89     ecut=    30.00 Ry     beta=0.70
     Davidson diagonalization with overlap
     ethr =  1.64E-04,  avg # of iterations =  1.0

     negative rho (up, down):  2.319E-07 0.000E+00

     total cpu time spent up to now is        9.8 secs

     total energy              =     -31.64896686 Ry
     Harris-Foulkes estimate   =     -31.66297740 Ry
     estimated scf accuracy    <       0.02808431 Ry

     iteration # 90     ecut=    30.00 Ry     beta=0.70
     Davidson diagonalization with overlap
     ethr =  1.64E-04,  avg # of iterations =  1.0

     total cpu time spent up to now is        9.9 secs

     total energy              =     -31.52825763 Ry
     Harris-Foulkes estimate   =     -31.73359317 Ry
     estimated scf accuracy    <       3.27945845 Ry

     iteration # 91     ecut=    30.00 Ry     beta=0.70
     Davidson diagonalization with overlap
     ethr =  1.64E-04,  avg # of iterations =  1.0

     total cpu time spent up to now is        9.9 secs

     total energy              =     -31.66497463 Ry
     Harris-Foulkes estimate   =     -31.66480368 Ry
     estimated scf accuracy    <       0.01410825 Ry

     iteration # 92     ecut=    30.00 Ry     beta=0.70
     Davidson diagonalization with overlap
     ethr =  1.64E-04,  avg # of iterations =  1.0

     total cpu time spent up to now is       10.0 secs

     total energy              =     -31.66486057 Ry
     Harris-Foulkes estimate   =     -31.66501798 Ry
     estimated scf accuracy    <       0.01383491 Ry

     iteration # 93     ecut=    30.00 Ry     beta=0.70
     Davidson diagonalization with overlap
     ethr =  1.64E-04,  avg # of iterations =  1.0

     total cpu time spent up to now is       10.0 secs

     total energy              =     -31.66355058 Ry
     Harris-Foulkes estimate   =     -31.66486131 Ry
     estimated scf accuracy    <       0.01446723 Ry

     iteration # 94     ecut=    30.00 Ry     beta=0.70
     Davidson diagonalization with overlap
     ethr =  1.64E-04,  avg # of iterations =  1.0

     total cpu time spent up to now is       10.0 secs

     total energy              =     -31.66335919 Ry
     Harris-Foulkes estimate   =     -31.66335253 Ry
     estimated scf accuracy    <       0.02410655 Ry

     iteration # 95     ecut=    30.00 Ry     beta=0.70
     Davidson diagonalization with overlap
     ethr =  1.64E-04,  avg # of iterations =  1.0

     total cpu time spent up to now is       10.1 secs

     total energy              =     -31.66192734 Ry
     Harris-Foulkes estimate   =     -31.66335952 Ry
     estimated scf accuracy    <       0.02402062 Ry

     iteration # 96     ecut=    30.00 Ry     beta=0.70
     Davidson diagonalization with overlap
     ethr =  1.64E-04,  avg # of iterations =  1.0

     total cpu time spent up to now is       10.1 secs

     total energy              =     -31.66305496 Ry
     Harris-Foulkes estimate   =     -31.66165896 Ry
     estimated scf accuracy    <       0.04321435 Ry

     iteration # 97     ecut=    30.00 Ry     beta=0.70
     Davidson diagonalization with overlap
     ethr =  1.64E-04,  avg # of iterations =  1.0

     total cpu time spent up to now is       10.1 secs

     total energy              =     -31.66316924 Ry
     Harris-Foulkes estimate   =     -31.66291253 Ry
     estimated scf accuracy    <       0.02856243 Ry

     iteration # 98     ecut=    30.00 Ry     beta=0.70
     Davidson diagonalization with overlap
     ethr =  1.64E-04,  avg # of iterations =  1.0

     total cpu time spent up to now is       10.2 secs

     total energy              =     -31.66352763 Ry
     Harris-Foulkes estimate   =     -31.66316271 Ry
     estimated scf accuracy    <       0.02592419 Ry

     iteration # 99     ecut=    30.00 Ry     beta=0.70
     Davidson diagonalization with overlap
     ethr =  1.64E-04,  avg # of iterations =  1.0

     total cpu time spent up to now is       10.2 secs

     total energy              =     -31.66705182 Ry
     Harris-Foulkes estimate   =     -31.66351367 Ry
     estimated scf accuracy    <       0.02253978 Ry

     iteration #100     ecut=    30.00 Ry     beta=0.70
     Davidson diagonalization with overlap
     ethr =  1.64E-04,  avg # of iterations =  1.0

     total cpu time spent up to now is       10.2 secs

     total energy              =     -31.66755577 Ry
     Harris-Foulkes estimate   =     -31.66630038 Ry
     estimated scf accuracy    <       0.01325590 Ry

     End of self-consistent calculation

     convergence NOT achieved after 100 iterations: stopping

     Writing output data file pwscf.save
 
     init_run     :      0.10s CPU      0.12s WALL (       1 calls)
     electrons    :      6.98s CPU      8.89s WALL (       5 calls)
     update_pot   :      0.50s CPU      0.69s WALL (       4 calls)
     forces       :      0.10s CPU      0.11s WALL (       4 calls)

     Called by init_run:
     wfcinit      :      0.01s CPU      0.02s WALL (       1 calls)
     potinit      :      0.03s CPU      0.03s WALL (       1 calls)

     Called by electrons:
     c_bands      :      2.67s CPU      2.87s WALL (     235 calls)
     sum_band     :      0.70s CPU      0.73s WALL (     235 calls)
     v_of_rho     :      1.66s CPU      1.76s WALL (     240 calls)
     mix_rho      :      1.67s CPU      2.83s WALL (     235 calls)

     Called by c_bands:
     init_us_2    :      0.02s CPU      0.03s WALL (     471 calls)
     cegterg      :      2.62s CPU      2.75s WALL (     235 calls)

     Called by sum_band:

     Called by *egterg:
     h_psi        :      2.25s CPU      2.35s WALL (     697 calls)
     g_psi        :      0.02s CPU      0.02s WALL (     461 calls)
     cdiaghg      :      0.14s CPU      0.16s WALL (     692 calls)

     Called by h_psi:
     h_psi:pot    :      2.23s CPU      2.33s WALL (     697 calls)
     h_psi:calbec :      0.03s CPU      0.04s WALL (     697 calls)
     vloc_psi     :      2.20s CPU      2.28s WALL (     697 calls)
     add_vuspsi   :      0.01s CPU      0.01s WALL (     697 calls)

     General routines
     calbec       :      0.06s CPU      0.09s WALL (     716 calls)
     fft          :      1.25s CPU      1.32s WALL (    2648 calls)
     fftw         :      2.41s CPU      2.51s WALL (   10738 calls)
     davcio       :      0.25s CPU      1.07s WALL (    4268 calls)
 
     Parallel routines
     fft_scatter  :      1.52s CPU      1.64s WALL (   13386 calls)
 
     PWSCF        :     7.86s CPU        10.32s WALL

 
   This run was terminated on:   7:55:29  14Feb2018            

=------------------------------------------------------------------------------=
   JOB DONE.
=------------------------------------------------------------------------------=
