
     Program PWSCF v.6.0 (svn rev. 13079) starts on 14Feb2018 at  7:57:27 

     This program is part of the open-source Quantum ESPRESSO suite
     for quantum simulation of materials; please cite
         "P. Giannozzi et al., J. Phys.:Condens. Matter 21 395502 (2009);
          URL http://www.quantum-espresso.org", 
     in publications or presentations arising from this work. More details at
     http://www.quantum-espresso.org/quote

     Parallel version (MPI), running on    28 processors
     R & G space division:  proc/nbgrp/npool/nimage =      28
     Reading input from inputs/MD-H2O-2/236.in

     Current dimensions of program PWSCF are:
     Max number of different atomic species (ntypx) = 10
     Max number of k-points (npk) =  40000
     Max angular momentum in pseudopotentials (lmaxx) =  3

     Subspace diagonalization in iterative solution of the eigenvalue problem:
     a serial algorithm will be used

 
     Parallelization info
     --------------------
     sticks:   dense  smooth     PW     G-vecs:    dense   smooth      PW
     Min         136     136     33                 6338     6338     787
     Max         137     137     34                 6341     6341     792
     Sum        3809    3809    949               177509   177509   22119
 


     bravais-lattice index     =            1
     lattice parameter (alat)  =      20.0000  a.u.
     unit-cell volume          =    8000.0000 (a.u.)^3
     number of atoms/cell      =            3
     number of atomic types    =            2
     number of electrons       =         8.00
     number of Kohn-Sham states=            8
     kinetic-energy cutoff     =      30.0000  Ry
     charge density cutoff     =     120.0000  Ry
     convergence threshold     =      1.0E-08
     mixing beta               =       0.7000
     number of iterations used =            8  plain     mixing
     Exchange-correlation      = BLYP ( 1  3  1  3 0 0)
     nstep                     =         5000


     celldm(1)=  20.000000  celldm(2)=   0.000000  celldm(3)=   0.000000
     celldm(4)=   0.000000  celldm(5)=   0.000000  celldm(6)=   0.000000

     crystal axes: (cart. coord. in units of alat)
               a(1) = (   1.000000   0.000000   0.000000 )  
               a(2) = (   0.000000   1.000000   0.000000 )  
               a(3) = (   0.000000   0.000000   1.000000 )  

     reciprocal axes: (cart. coord. in units 2 pi/alat)
               b(1) = (  1.000000  0.000000  0.000000 )  
               b(2) = (  0.000000  1.000000  0.000000 )  
               b(3) = (  0.000000  0.000000  1.000000 )  


     PseudoPot. # 1 for  H read from file:
     ./H.blyp-hgh.UPF
     MD5 check sum: c576e69559cde411e611be972c763230
     Pseudo is Norm-conserving, Zval =  1.0
     Generated in analytical, separable form
     Using radial grid of  929 points,  0 beta functions with: 

     PseudoPot. # 2 for  O read from file:
     ./O.blyp-hgh.UPF
     MD5 check sum: d0b7156309aa9befef28faac7bc56342
     Pseudo is Norm-conserving, Zval =  6.0
     Generated in analytical, separable form
     Using radial grid of 1095 points,  1 beta functions with: 
                l(1) =   0

     atomic species   valence    mass     pseudopotential
        H              1.00     1.01000      H( 1.00)
        O              6.00    16.00000      O( 1.00)

     No symmetry found



   Cartesian axes

     site n.     atom                  positions (alat units)
         1           H   tau(   1) = (   0.2898852  -0.0876039   0.4416569  )
         2           H   tau(   2) = (   0.3303544   0.9440912   0.4585929  )
         3           O   tau(   3) = (   0.1861051   0.1905724   0.2846150  )

     number of k points=     1  Marzari-Vanderbilt smearing, width (Ry)=  0.0250
                       cart. coord. in units 2pi/alat
        k(    1) = (   0.0000000   0.0000000   0.0000000), wk =   2.0000000

     Dense  grid:   177509 G-vectors     FFT dimensions: (  72,  72,  72)

     Estimated max dynamical RAM per process >       6.09Mb

     Estimated total allocated dynamical RAM >     170.64Mb

     Initial potential from superposition of free atoms
     Check: negative starting charge=   -0.358026

     starting charge    7.99998, renormalised to    8.00000

     negative rho (up, down):  3.580E-01 0.000E+00
     Starting wfc are    6 randomized atomic wfcs +    2 random wfc

     total cpu time spent up to now is        0.2 secs

     per-process dynamical memory:    18.8 Mb

     Self-consistent Calculation

     iteration #  1     ecut=    30.00 Ry     beta=0.70
     Davidson diagonalization with overlap
     ethr =  1.00E-02,  avg # of iterations =  8.0

     negative rho (up, down):  9.422E-02 0.000E+00

     total cpu time spent up to now is        0.3 secs

     total energy              =     -31.52002957 Ry
     Harris-Foulkes estimate   =     -32.33845344 Ry
     estimated scf accuracy    <       0.87788924 Ry

     iteration #  2     ecut=    30.00 Ry     beta=0.70
     Davidson diagonalization with overlap
     ethr =  1.00E-02,  avg # of iterations =  2.0

     negative rho (up, down):  6.762E-02 0.000E+00

     total cpu time spent up to now is        0.3 secs

     total energy              =     -31.06687596 Ry
     Harris-Foulkes estimate   =     -31.87304927 Ry
     estimated scf accuracy    <       1.98338773 Ry

     iteration #  3     ecut=    30.00 Ry     beta=0.70
     Davidson diagonalization with overlap
     ethr =  1.00E-02,  avg # of iterations =  2.0

     negative rho (up, down):  2.054E-02 0.000E+00

     total cpu time spent up to now is        0.4 secs

     total energy              =     -31.88433427 Ry
     Harris-Foulkes estimate   =     -31.89494386 Ry
     estimated scf accuracy    <       0.14916127 Ry

     iteration #  4     ecut=    30.00 Ry     beta=0.70
     Davidson diagonalization with overlap
     ethr =  1.86E-03,  avg # of iterations =  1.0

     negative rho (up, down):  6.852E-03 0.000E+00

     total cpu time spent up to now is        0.4 secs

     total energy              =     -31.87610016 Ry
     Harris-Foulkes estimate   =     -31.88758848 Ry
     estimated scf accuracy    <       0.06661662 Ry

     iteration #  5     ecut=    30.00 Ry     beta=0.70
     Davidson diagonalization with overlap
     ethr =  8.33E-04,  avg # of iterations =  1.0

     negative rho (up, down):  2.835E-03 0.000E+00

     total cpu time spent up to now is        0.4 secs

     total energy              =     -31.87339113 Ry
     Harris-Foulkes estimate   =     -31.87911463 Ry
     estimated scf accuracy    <       0.03468634 Ry

     iteration #  6     ecut=    30.00 Ry     beta=0.70
     Davidson diagonalization with overlap
     ethr =  4.34E-04,  avg # of iterations =  6.0

     negative rho (up, down):  1.413E-06 0.000E+00

     total cpu time spent up to now is        0.4 secs

     total energy              =     -31.86581367 Ry
     Harris-Foulkes estimate   =     -31.87451556 Ry
     estimated scf accuracy    <       0.01309713 Ry

     iteration #  7     ecut=    30.00 Ry     beta=0.70
     Davidson diagonalization with overlap
     ethr =  1.64E-04,  avg # of iterations =  4.0

     negative rho (up, down):  2.746E-04 0.000E+00

     total cpu time spent up to now is        0.5 secs

     total energy              =     -31.86772629 Ry
     Harris-Foulkes estimate   =     -31.86771440 Ry
     estimated scf accuracy    <       0.00011497 Ry

     iteration #  8     ecut=    30.00 Ry     beta=0.70
     Davidson diagonalization with overlap
     ethr =  1.44E-06,  avg # of iterations =  9.0

     negative rho (up, down):  2.155E-07 0.000E+00

     total cpu time spent up to now is        0.5 secs

     total energy              =     -31.86764984 Ry
     Harris-Foulkes estimate   =     -31.86779981 Ry
     estimated scf accuracy    <       0.00019209 Ry

     iteration #  9     ecut=    30.00 Ry     beta=0.70
     Davidson diagonalization with overlap
     ethr =  1.44E-06,  avg # of iterations =  4.0

     total cpu time spent up to now is        0.6 secs

     total energy              =     -31.86767109 Ry
     Harris-Foulkes estimate   =     -31.86767501 Ry
     estimated scf accuracy    <       0.00000105 Ry

     iteration # 10     ecut=    30.00 Ry     beta=0.70
     Davidson diagonalization with overlap
     ethr =  1.31E-08,  avg # of iterations =  2.0

     total cpu time spent up to now is        0.6 secs

     total energy              =     -31.86767078 Ry
     Harris-Foulkes estimate   =     -31.86767131 Ry
     estimated scf accuracy    <       0.00000009 Ry

     iteration # 11     ecut=    30.00 Ry     beta=0.70
     Davidson diagonalization with overlap
     ethr =  1.11E-09,  avg # of iterations =  1.0

     total cpu time spent up to now is        0.6 secs

     total energy              =     -31.86767003 Ry
     Harris-Foulkes estimate   =     -31.86767080 Ry
     estimated scf accuracy    <       0.00000002 Ry

     iteration # 12     ecut=    30.00 Ry     beta=0.70
     Davidson diagonalization with overlap
     ethr =  2.72E-10,  avg # of iterations =  2.0

     total cpu time spent up to now is        0.7 secs

     End of self-consistent calculation

          k = 0.0000 0.0000 0.0000 ( 22119 PWs)   bands (ev):

   -25.0827 -11.0744  -8.3863  -8.3862  -8.3844  -0.3160   0.7032   0.7971

     the Fermi energy is    -8.2626 ev

!    total energy              =     -31.86766979 Ry
     Harris-Foulkes estimate   =     -31.86767003 Ry
     estimated scf accuracy    <          1.2E-10 Ry

     convergence has been achieved in  12 iterations

     Forces acting on atoms (Ry/au):

     atom    1 type  1   force =    -0.34622950   -0.27078149   -0.14466963
     atom    2 type  1   force =     0.34590665    0.27127338    0.14462717
     atom    3 type  2   force =     0.00032286   -0.00049189    0.00004246

     Total force =     0.654435     Total SCF correction =     0.000178

     Molecular Dynamics Calculation

     Starting temperature  =  1000.00 K

     temperature is controlled by Andersen thermostat
     Collision frequency = 1.0000/timestep
     mass H                =     1.01
     mass O                =    16.00
     Time step             =   100.00 a.u.,  4.8378 femto-seconds

     Entering Dynamics:    iteration =     1
                           time      =   0.0048 pico-seconds


     Andersen thermostat:    3 collisions

ATOMIC_POSITIONS (bohr)
H        4.148720994  -2.946282269   7.849239331
H        8.492404892  20.584256128   9.768502083
O        3.707184297   3.779365243   5.716746446


     kinetic energy (Ekin) =     0.01319564 Ry
     temperature           =   694.47456190 K 
     Ekin + Etot (const)   =   -31.85447416 Ry

     Linear momentum :   -0.0000000000   -0.0000000000   -0.0000000000

     Writing output data file pwscf.save
     Check: negative starting charge=   -0.358026
     NEW-OLD atomic charge density approx. for the potential
     Check: negative starting charge=   -0.343616

     negative rho (up, down):  1.565E-01 0.000E+00

     total cpu time spent up to now is        0.9 secs

     per-process dynamical memory:    20.4 Mb

     Self-consistent Calculation

     iteration #  1     ecut=    30.00 Ry     beta=0.70
     Davidson diagonalization with overlap
     c_bands:  1 eigenvalues not converged
     ethr =  1.00E-06,  avg # of iterations = 20.0

     negative rho (up, down):  4.235E-02 0.000E+00

     total cpu time spent up to now is        1.1 secs

     total energy              =     -29.41561616 Ry
     Harris-Foulkes estimate   =     -31.79245974 Ry
     estimated scf accuracy    <       3.04810740 Ry

     iteration #  2     ecut=    30.00 Ry     beta=0.70
     Davidson diagonalization with overlap
     ethr =  1.00E-02,  avg # of iterations =  4.0

     negative rho (up, down):  4.090E-03 0.000E+00

     total cpu time spent up to now is        1.1 secs

     total energy              =     -31.46378033 Ry
     Harris-Foulkes estimate   =     -37.79291749 Ry
     estimated scf accuracy    <      20.14679037 Ry

     iteration #  3     ecut=    30.00 Ry     beta=0.70
     Davidson diagonalization with overlap
     ethr =  1.00E-02,  avg # of iterations =  2.0

     negative rho (up, down):  2.003E-03 0.000E+00

     total cpu time spent up to now is        1.1 secs

     total energy              =     -30.06910266 Ry
     Harris-Foulkes estimate   =     -31.64144933 Ry
     estimated scf accuracy    <      11.49121573 Ry

     iteration #  4     ecut=    30.00 Ry     beta=0.70
     Davidson diagonalization with overlap
     ethr =  1.00E-02,  avg # of iterations =  1.0

     negative rho (up, down):  1.163E-01 0.000E+00

     total cpu time spent up to now is        1.2 secs

     total energy              =     -27.42558042 Ry
     Harris-Foulkes estimate   =     -30.08835055 Ry
     estimated scf accuracy    <       9.36210300 Ry

     iteration #  5     ecut=    30.00 Ry     beta=0.70
     Davidson diagonalization with overlap
     ethr =  1.00E-02,  avg # of iterations =  5.0

     negative rho (up, down):  8.100E-02 0.000E+00

     total cpu time spent up to now is        1.2 secs

     total energy              =     -31.80617670 Ry
     Harris-Foulkes estimate   =     -31.86869325 Ry
     estimated scf accuracy    <       0.94325122 Ry

     iteration #  6     ecut=    30.00 Ry     beta=0.70
     Davidson diagonalization with overlap
     ethr =  1.00E-02,  avg # of iterations =  5.0

     negative rho (up, down):  4.540E-02 0.000E+00

     total cpu time spent up to now is        1.3 secs

     total energy              =     -33.48175621 Ry
     Harris-Foulkes estimate   =     -33.54546363 Ry
     estimated scf accuracy    <       6.21739986 Ry

     iteration #  7     ecut=    30.00 Ry     beta=0.70
     Davidson diagonalization with overlap
     ethr =  1.00E-02,  avg # of iterations =  1.0

     total cpu time spent up to now is        1.3 secs

     total energy              =     -32.76060529 Ry
     Harris-Foulkes estimate   =     -33.48293796 Ry
     estimated scf accuracy    <       6.02339575 Ry

     iteration #  8     ecut=    30.00 Ry     beta=0.70
     Davidson diagonalization with overlap
     ethr =  1.00E-02,  avg # of iterations =  1.0

     total cpu time spent up to now is        1.3 secs

     total energy              =     -32.20824763 Ry
     Harris-Foulkes estimate   =     -32.77701862 Ry
     estimated scf accuracy    <       4.77329664 Ry

     iteration #  9     ecut=    30.00 Ry     beta=0.70
     Davidson diagonalization with overlap
     ethr =  1.00E-02,  avg # of iterations =  1.0

     total cpu time spent up to now is        1.4 secs

     total energy              =     -32.20272987 Ry
     Harris-Foulkes estimate   =     -32.20772860 Ry
     estimated scf accuracy    <       3.82770159 Ry

     iteration # 10     ecut=    30.00 Ry     beta=0.70
     Davidson diagonalization with overlap
     ethr =  1.00E-02,  avg # of iterations =  1.0

     negative rho (up, down):  6.255E-04 0.000E+00

     total cpu time spent up to now is        1.4 secs

     total energy              =     -33.14661501 Ry
     Harris-Foulkes estimate   =     -32.20281240 Ry
     estimated scf accuracy    <       3.82261375 Ry

     iteration # 11     ecut=    30.00 Ry     beta=0.70
     Davidson diagonalization with overlap
     ethr =  1.00E-02,  avg # of iterations =  1.0

     total cpu time spent up to now is        1.4 secs

     total energy              =     -32.19929383 Ry
     Harris-Foulkes estimate   =     -33.18086841 Ry
     estimated scf accuracy    <       5.38482421 Ry

     iteration # 12     ecut=    30.00 Ry     beta=0.70
     Davidson diagonalization with overlap
     ethr =  1.00E-02,  avg # of iterations =  1.0

     total cpu time spent up to now is        1.5 secs

     total energy              =     -32.45622496 Ry
     Harris-Foulkes estimate   =     -32.20792688 Ry
     estimated scf accuracy    <       3.85994773 Ry

     iteration # 13     ecut=    30.00 Ry     beta=0.70
     Davidson diagonalization with overlap
     ethr =  1.00E-02,  avg # of iterations =  1.0

     negative rho (up, down):  1.957E-02 0.000E+00

     total cpu time spent up to now is        1.5 secs

     total energy              =     -29.40210780 Ry
     Harris-Foulkes estimate   =     -32.46764848 Ry
     estimated scf accuracy    <       4.20703699 Ry

     iteration # 14     ecut=    30.00 Ry     beta=0.70
     Davidson diagonalization with overlap
     ethr =  1.00E-02,  avg # of iterations =  4.0

     negative rho (up, down):  6.755E-03 0.000E+00

     total cpu time spent up to now is        1.5 secs

     total energy              =     -36.88487960 Ry
     Harris-Foulkes estimate   =     -36.90473805 Ry
     estimated scf accuracy    <      19.69983412 Ry

     iteration # 15     ecut=    30.00 Ry     beta=0.70
     Davidson diagonalization with overlap
     ethr =  1.00E-02,  avg # of iterations =  1.0

     negative rho (up, down):  4.518E-03 0.000E+00

     total cpu time spent up to now is        1.6 secs

     total energy              =     -36.52105758 Ry
     Harris-Foulkes estimate   =     -36.89951877 Ry
     estimated scf accuracy    <      19.77162823 Ry

     iteration # 16     ecut=    30.00 Ry     beta=0.70
     Davidson diagonalization with overlap
     ethr =  1.00E-02,  avg # of iterations =  1.0

     negative rho (up, down):  3.322E-03 0.000E+00

     total cpu time spent up to now is        1.6 secs

     total energy              =     -36.22460368 Ry
     Harris-Foulkes estimate   =     -36.52871128 Ry
     estimated scf accuracy    <      19.24378816 Ry

     iteration # 17     ecut=    30.00 Ry     beta=0.70
     Davidson diagonalization with overlap
     ethr =  1.00E-02,  avg # of iterations =  1.0

     negative rho (up, down):  1.576E-02 0.000E+00

     total cpu time spent up to now is        1.6 secs

     total energy              =     -35.60600962 Ry
     Harris-Foulkes estimate   =     -36.22966459 Ry
     estimated scf accuracy    <      18.78882462 Ry

     iteration # 18     ecut=    30.00 Ry     beta=0.70
     Davidson diagonalization with overlap
     ethr =  1.00E-02,  avg # of iterations =  1.0

     negative rho (up, down):  1.675E-03 0.000E+00

     total cpu time spent up to now is        1.7 secs

     total energy              =     -32.03696989 Ry
     Harris-Foulkes estimate   =     -35.61796251 Ry
     estimated scf accuracy    <      17.95075624 Ry

     iteration # 19     ecut=    30.00 Ry     beta=0.70
     Davidson diagonalization with overlap
     ethr =  1.00E-02,  avg # of iterations =  1.0

     negative rho (up, down):  4.196E-04 0.000E+00

     total cpu time spent up to now is        1.7 secs

     total energy              =     -31.42410979 Ry
     Harris-Foulkes estimate   =     -32.10338893 Ry
     estimated scf accuracy    <      12.67701795 Ry

     iteration # 20     ecut=    30.00 Ry     beta=0.70
     Davidson diagonalization with overlap
     ethr =  1.00E-02,  avg # of iterations =  5.0

     negative rho (up, down):  1.466E-04 0.000E+00

     total cpu time spent up to now is        1.7 secs

     total energy              =     -30.97498363 Ry
     Harris-Foulkes estimate   =     -32.13253223 Ry
     estimated scf accuracy    <       4.86972539 Ry

     iteration # 21     ecut=    30.00 Ry     beta=0.70
     Davidson diagonalization with overlap
     ethr =  1.00E-02,  avg # of iterations =  7.0

     negative rho (up, down):  4.076E-05 0.000E+00

     total cpu time spent up to now is        1.8 secs

     total energy              =     -31.32549703 Ry
     Harris-Foulkes estimate   =     -31.95639678 Ry
     estimated scf accuracy    <       3.32938482 Ry

     iteration # 22     ecut=    30.00 Ry     beta=0.70
     Davidson diagonalization with overlap
     ethr =  1.00E-02,  avg # of iterations =  1.0

     negative rho (up, down):  2.374E-03 0.000E+00

     total cpu time spent up to now is        1.8 secs

     total energy              =     -31.52525632 Ry
     Harris-Foulkes estimate   =     -31.65638108 Ry
     estimated scf accuracy    <       4.10874295 Ry

     iteration # 23     ecut=    30.00 Ry     beta=0.70
     Davidson diagonalization with overlap
     ethr =  1.00E-02,  avg # of iterations =  1.0

     negative rho (up, down):  1.711E-04 0.000E+00

     total cpu time spent up to now is        1.8 secs

     total energy              =     -31.55685739 Ry
     Harris-Foulkes estimate   =     -31.54607879 Ry
     estimated scf accuracy    <       0.81149599 Ry

     iteration # 24     ecut=    30.00 Ry     beta=0.70
     Davidson diagonalization with overlap
     ethr =  1.00E-02,  avg # of iterations =  1.0

     negative rho (up, down):  2.484E-03 0.000E+00

     total cpu time spent up to now is        1.9 secs

     total energy              =     -31.44988393 Ry
     Harris-Foulkes estimate   =     -31.56244907 Ry
     estimated scf accuracy    <       1.77942835 Ry

     iteration # 25     ecut=    30.00 Ry     beta=0.70
     Davidson diagonalization with overlap
     ethr =  1.00E-02,  avg # of iterations =  1.0

     total cpu time spent up to now is        1.9 secs

     total energy              =     -31.38509236 Ry
     Harris-Foulkes estimate   =     -31.57604737 Ry
     estimated scf accuracy    <       1.94107532 Ry

     iteration # 26     ecut=    30.00 Ry     beta=0.70
     Davidson diagonalization with overlap
     ethr =  1.00E-02,  avg # of iterations =  1.0

     total cpu time spent up to now is        1.9 secs

     total energy              =     -31.62874565 Ry
     Harris-Foulkes estimate   =     -31.64618523 Ry
     estimated scf accuracy    <       4.10709468 Ry

     iteration # 27     ecut=    30.00 Ry     beta=0.70
     Davidson diagonalization with overlap
     ethr =  1.00E-02,  avg # of iterations =  1.0

     total cpu time spent up to now is        2.0 secs

     total energy              =     -31.58303590 Ry
     Harris-Foulkes estimate   =     -31.62899191 Ry
     estimated scf accuracy    <       4.20619493 Ry

     iteration # 28     ecut=    30.00 Ry     beta=0.70
     Davidson diagonalization with overlap
     ethr =  1.00E-02,  avg # of iterations =  1.0

     negative rho (up, down):  2.793E-02 0.000E+00

     total cpu time spent up to now is        2.0 secs

     total energy              =     -30.83350767 Ry
     Harris-Foulkes estimate   =     -31.58459096 Ry
     estimated scf accuracy    <       3.28067422 Ry

     iteration # 29     ecut=    30.00 Ry     beta=0.70
     Davidson diagonalization with overlap
     ethr =  1.00E-02,  avg # of iterations =  1.0

     negative rho (up, down):  5.647E-02 0.000E+00

     total cpu time spent up to now is        2.1 secs

     total energy              =     -30.81809422 Ry
     Harris-Foulkes estimate   =     -32.16379479 Ry
     estimated scf accuracy    <       3.75598538 Ry

     iteration # 30     ecut=    30.00 Ry     beta=0.70
     Davidson diagonalization with overlap
     ethr =  1.00E-02,  avg # of iterations =  2.0

     negative rho (up, down):  6.010E-03 0.000E+00

     total cpu time spent up to now is        2.1 secs

     total energy              =     -31.69810572 Ry
     Harris-Foulkes estimate   =     -32.25647314 Ry
     estimated scf accuracy    <       4.64074585 Ry

     iteration # 31     ecut=    30.00 Ry     beta=0.70
     Davidson diagonalization with overlap
     ethr =  1.00E-02,  avg # of iterations =  1.0

     negative rho (up, down):  4.423E-03 0.000E+00

     total cpu time spent up to now is        2.1 secs

     total energy              =     -31.64384992 Ry
     Harris-Foulkes estimate   =     -31.70570376 Ry
     estimated scf accuracy    <       3.80557214 Ry

     iteration # 32     ecut=    30.00 Ry     beta=0.70
     Davidson diagonalization with overlap
     ethr =  1.00E-02,  avg # of iterations =  1.0

     negative rho (up, down):  1.567E-03 0.000E+00

     total cpu time spent up to now is        2.2 secs

     total energy              =     -31.74909515 Ry
     Harris-Foulkes estimate   =     -31.64431321 Ry
     estimated scf accuracy    <       3.88111726 Ry

     iteration # 33     ecut=    30.00 Ry     beta=0.70
     Davidson diagonalization with overlap
     ethr =  1.00E-02,  avg # of iterations =  1.0

     negative rho (up, down):  4.070E-04 0.000E+00

     total cpu time spent up to now is        2.2 secs

     total energy              =     -31.48692527 Ry
     Harris-Foulkes estimate   =     -31.74722376 Ry
     estimated scf accuracy    <       3.81792144 Ry

     iteration # 34     ecut=    30.00 Ry     beta=0.70
     Davidson diagonalization with overlap
     ethr =  1.00E-02,  avg # of iterations =  1.0

     negative rho (up, down):  1.916E-03 0.000E+00

     total cpu time spent up to now is        2.2 secs

     total energy              =     -31.50769383 Ry
     Harris-Foulkes estimate   =     -31.52798922 Ry
     estimated scf accuracy    <       0.48534982 Ry

     iteration # 35     ecut=    30.00 Ry     beta=0.70
     Davidson diagonalization with overlap
     ethr =  6.07E-03,  avg # of iterations =  1.0

     negative rho (up, down):  4.311E-03 0.000E+00

     total cpu time spent up to now is        2.3 secs

     total energy              =     -31.43205050 Ry
     Harris-Foulkes estimate   =     -31.52535661 Ry
     estimated scf accuracy    <       0.41862013 Ry

     iteration # 36     ecut=    30.00 Ry     beta=0.70
     Davidson diagonalization with overlap
     ethr =  5.23E-03,  avg # of iterations =  1.0

     negative rho (up, down):  1.850E-03 0.000E+00

     total cpu time spent up to now is        2.3 secs

     total energy              =     -31.44023917 Ry
     Harris-Foulkes estimate   =     -31.73182429 Ry
     estimated scf accuracy    <       3.77998185 Ry

     iteration # 37     ecut=    30.00 Ry     beta=0.70
     Davidson diagonalization with overlap
     ethr =  5.23E-03,  avg # of iterations =  1.0

     negative rho (up, down):  8.347E-04 0.000E+00

     total cpu time spent up to now is        2.3 secs

     total energy              =     -31.51261470 Ry
     Harris-Foulkes estimate   =     -31.51631530 Ry
     estimated scf accuracy    <       0.09884974 Ry

     iteration # 38     ecut=    30.00 Ry     beta=0.70
     Davidson diagonalization with overlap
     ethr =  1.24E-03,  avg # of iterations =  1.0

     negative rho (up, down):  5.937E-04 0.000E+00

     total cpu time spent up to now is        2.4 secs

     total energy              =     -31.51532812 Ry
     Harris-Foulkes estimate   =     -31.51439787 Ry
     estimated scf accuracy    <       0.01331781 Ry

     iteration # 39     ecut=    30.00 Ry     beta=0.70
     Davidson diagonalization with overlap
     ethr =  1.66E-04,  avg # of iterations =  1.0

     negative rho (up, down):  6.374E-04 0.000E+00

     total cpu time spent up to now is        2.4 secs

     total energy              =     -31.51317854 Ry
     Harris-Foulkes estimate   =     -31.52551844 Ry
     estimated scf accuracy    <       0.67240128 Ry

     iteration # 40     ecut=    30.00 Ry     beta=0.70
     Davidson diagonalization with overlap
     ethr =  1.66E-04,  avg # of iterations =  1.0

     negative rho (up, down):  8.969E-04 0.000E+00

     total cpu time spent up to now is        2.4 secs

     total energy              =     -31.51006261 Ry
     Harris-Foulkes estimate   =     -31.51653530 Ry
     estimated scf accuracy    <       0.14434049 Ry

     iteration # 41     ecut=    30.00 Ry     beta=0.70
     Davidson diagonalization with overlap
     ethr =  1.66E-04,  avg # of iterations =  1.0

     negative rho (up, down):  1.920E-04 0.000E+00

     total cpu time spent up to now is        2.5 secs

     total energy              =     -31.51336229 Ry
     Harris-Foulkes estimate   =     -31.51437781 Ry
     estimated scf accuracy    <       0.02071376 Ry

     iteration # 42     ecut=    30.00 Ry     beta=0.70
     Davidson diagonalization with overlap
     ethr =  1.66E-04,  avg # of iterations =  1.0

     negative rho (up, down):  5.160E-05 0.000E+00

     total cpu time spent up to now is        2.5 secs

     total energy              =     -31.51359617 Ry
     Harris-Foulkes estimate   =     -31.51412485 Ry
     estimated scf accuracy    <       0.00566380 Ry

     iteration # 43     ecut=    30.00 Ry     beta=0.70
     Davidson diagonalization with overlap
     ethr =  7.08E-05,  avg # of iterations =  1.0

     negative rho (up, down):  8.313E-07 0.000E+00

     total cpu time spent up to now is        2.5 secs

     total energy              =     -31.51369814 Ry
     Harris-Foulkes estimate   =     -31.51438812 Ry
     estimated scf accuracy    <       0.02174257 Ry

     iteration # 44     ecut=    30.00 Ry     beta=0.70
     Davidson diagonalization with overlap
     ethr =  7.08E-05,  avg # of iterations =  1.0

     total cpu time spent up to now is        2.6 secs

     total energy              =     -31.51402910 Ry
     Harris-Foulkes estimate   =     -31.51403283 Ry
     estimated scf accuracy    <       0.00002247 Ry

     iteration # 45     ecut=    30.00 Ry     beta=0.70
     Davidson diagonalization with overlap
     ethr =  2.81E-07,  avg # of iterations = 11.0

     negative rho (up, down):  4.038E-08 0.000E+00

     total cpu time spent up to now is        2.6 secs

     total energy              =     -31.51401919 Ry
     Harris-Foulkes estimate   =     -31.51404714 Ry
     estimated scf accuracy    <       0.00089237 Ry

     iteration # 46     ecut=    30.00 Ry     beta=0.70
     Davidson diagonalization with overlap
     ethr =  2.81E-07,  avg # of iterations =  1.0

     total cpu time spent up to now is        2.7 secs

     total energy              =     -31.51403276 Ry
     Harris-Foulkes estimate   =     -31.51403285 Ry
     estimated scf accuracy    <       0.00000200 Ry

     iteration # 47     ecut=    30.00 Ry     beta=0.70
     Davidson diagonalization with overlap
     ethr =  2.51E-08,  avg # of iterations =  1.0

     total cpu time spent up to now is        2.7 secs

     total energy              =     -31.51403279 Ry
     Harris-Foulkes estimate   =     -31.51403281 Ry
     estimated scf accuracy    <       0.00000052 Ry

     iteration # 48     ecut=    30.00 Ry     beta=0.70
     Davidson diagonalization with overlap
     ethr =  6.52E-09,  avg # of iterations =  1.0

     total cpu time spent up to now is        2.7 secs

     total energy              =     -31.51403276 Ry
     Harris-Foulkes estimate   =     -31.51403280 Ry
     estimated scf accuracy    <       0.00000007 Ry

     iteration # 49     ecut=    30.00 Ry     beta=0.70
     Davidson diagonalization with overlap
     ethr =  8.34E-10,  avg # of iterations =  1.0

     total cpu time spent up to now is        2.8 secs

     total energy              =     -31.51403275 Ry
     Harris-Foulkes estimate   =     -31.51403277 Ry
     estimated scf accuracy    <       0.00000016 Ry

     iteration # 50     ecut=    30.00 Ry     beta=0.70
     Davidson diagonalization with overlap
     ethr =  8.34E-10,  avg # of iterations =  1.0

     total cpu time spent up to now is        2.8 secs

     End of self-consistent calculation

          k = 0.0000 0.0000 0.0000 ( 22119 PWs)   bands (ev):

   -23.7292  -7.3446  -7.1411  -7.1295  -7.0429  -6.7111  -0.1786   0.5821

     the Fermi energy is    -6.9945 ev

!    total energy              =     -31.51403274 Ry
     Harris-Foulkes estimate   =     -31.51403275 Ry
     estimated scf accuracy    <          3.6E-09 Ry

     convergence has been achieved in  50 iterations

     Forces acting on atoms (Ry/au):

     atom    1 type  1   force =     0.01370915    0.01684298    0.00468854
     atom    2 type  1   force =    -0.01860781   -0.00854589   -0.00948351
     atom    3 type  2   force =     0.00489866   -0.00829709    0.00479497

     Total force =     0.033446     Total SCF correction =     0.000018

     Entering Dynamics:    iteration =     2
                           time      =   0.0097 pico-seconds


     Andersen thermostat:    3 collisions

ATOMIC_POSITIONS (bohr)
H        4.350056722  -2.587167683   8.045301535
H        8.353525279  20.337571744   9.841724181
O        3.703241755   3.772268086   5.699747874


     kinetic energy (Ekin) =     0.01120087 Ry
     temperature           =   589.49175777 K 
     Ekin + Etot (const)   =   -31.50283187 Ry
     Message from routine dynamics:
     Total linear momentum <> 0

     Linear momentum :   -0.0482643422    0.4839037204    0.0463385468

     Writing output data file pwscf.save

     first order wave-functions extrapolation
     Check: negative starting charge=   -0.343616
     first order charge density extrapolation
     Check: negative starting charge=   -0.345521

     negative rho (up, down):  3.967E-01 0.000E+00

     total cpu time spent up to now is        3.1 secs

     per-process dynamical memory:    20.4 Mb

     Self-consistent Calculation

     iteration #  1     ecut=    30.00 Ry     beta=0.70
     Davidson diagonalization with overlap
     ethr =  1.00E-06,  avg # of iterations = 20.0

     negative rho (up, down):  3.136E-02 0.000E+00

     total cpu time spent up to now is        3.3 secs

     total energy              =      32.76662151 Ry
     Harris-Foulkes estimate   =     -64.39189561 Ry
     estimated scf accuracy    <      32.99181557 Ry

     iteration #  2     ecut=    30.00 Ry     beta=0.70
     Davidson diagonalization with overlap
     ethr =  1.00E-02,  avg # of iterations =  5.0

     negative rho (up, down):  1.184E-02 0.000E+00

     total cpu time spent up to now is        3.3 secs

     total energy              =      -8.41351507 Ry
     Harris-Foulkes estimate   =     -75.41039102 Ry
     estimated scf accuracy    <      16.21953828 Ry

     iteration #  3     ecut=    30.00 Ry     beta=0.70
     Davidson diagonalization with overlap
     ethr =  1.00E-02,  avg # of iterations =  5.0

     negative rho (up, down):  1.144E-02 0.000E+00

     total cpu time spent up to now is        3.3 secs

     total energy              =     -35.67904939 Ry
     Harris-Foulkes estimate   =     -41.96617327 Ry
     estimated scf accuracy    <      16.32871421 Ry

     iteration #  4     ecut=    30.00 Ry     beta=0.70
     Davidson diagonalization with overlap
     ethr =  1.00E-02,  avg # of iterations =  2.0

     negative rho (up, down):  4.266E-02 0.000E+00

     total cpu time spent up to now is        3.4 secs

     total energy              =     -31.95218663 Ry
     Harris-Foulkes estimate   =     -35.83429260 Ry
     estimated scf accuracy    <       8.12347521 Ry

     iteration #  5     ecut=    30.00 Ry     beta=0.70
     Davidson diagonalization with overlap
     ethr =  1.00E-02,  avg # of iterations =  6.0

     negative rho (up, down):  1.613E-02 0.000E+00

     total cpu time spent up to now is        3.4 secs

     total energy              =      17.03338031 Ry
     Harris-Foulkes estimate   =     -99.40936848 Ry
     estimated scf accuracy    <      25.95940484 Ry

     iteration #  6     ecut=    30.00 Ry     beta=0.70
     Davidson diagonalization with overlap
     ethr =  1.00E-02,  avg # of iterations =  4.0

     negative rho (up, down):  7.372E-03 0.000E+00

     total cpu time spent up to now is        3.5 secs

     total energy              =     -17.50427580 Ry
     Harris-Foulkes estimate   =     -37.13778594 Ry
     estimated scf accuracy    <       7.80822486 Ry

     iteration #  7     ecut=    30.00 Ry     beta=0.70
     Davidson diagonalization with overlap
     ethr =  1.00E-02,  avg # of iterations =  4.0

     negative rho (up, down):  2.456E-02 0.000E+00

     total cpu time spent up to now is        3.5 secs

     total energy              =     -30.80617628 Ry
     Harris-Foulkes estimate   =     -32.80747965 Ry
     estimated scf accuracy    <       4.10821792 Ry

     iteration #  8     ecut=    30.00 Ry     beta=0.70
     Davidson diagonalization with overlap
     ethr =  1.00E-02,  avg # of iterations =  4.0

     negative rho (up, down):  1.264E-02 0.000E+00

     total cpu time spent up to now is        3.5 secs

     total energy              =     -18.79980396 Ry
     Harris-Foulkes estimate   =    -462.74169866 Ry
     estimated scf accuracy    <      28.19724241 Ry

     iteration #  9     ecut=    30.00 Ry     beta=0.70
     Davidson diagonalization with overlap
     ethr =  1.00E-02,  avg # of iterations =  4.0

     negative rho (up, down):  3.483E-03 0.000E+00

     total cpu time spent up to now is        3.6 secs

     total energy              =      -9.17050781 Ry
     Harris-Foulkes estimate   =     -64.68667041 Ry
     estimated scf accuracy    <      19.58027525 Ry

     iteration # 10     ecut=    30.00 Ry     beta=0.70
     Davidson diagonalization with overlap
     ethr =  1.00E-02,  avg # of iterations =  5.0

     negative rho (up, down):  7.026E-02 0.000E+00

     total cpu time spent up to now is        3.6 secs

     total energy              =     -33.91420637 Ry
     Harris-Foulkes estimate   =     -32.20499599 Ry
     estimated scf accuracy    <       5.05380179 Ry

     iteration # 11     ecut=    30.00 Ry     beta=0.70
     Davidson diagonalization with overlap
     ethr =  1.00E-02,  avg # of iterations =  4.0

     negative rho (up, down):  5.967E-02 0.000E+00

     total cpu time spent up to now is        3.7 secs

     total energy              =    -266.03437736 Ry
     Harris-Foulkes estimate   =     -40.30206631 Ry
     estimated scf accuracy    <      21.54215573 Ry

     iteration # 12     ecut=    30.00 Ry     beta=0.70
     Davidson diagonalization with overlap
     ethr =  1.00E-02,  avg # of iterations =  5.0

     negative rho (up, down):  1.469E-01 0.000E+00

     total cpu time spent up to now is        3.7 secs

     total energy              =    -300.26726432 Ry
     Harris-Foulkes estimate   =   -2455.77553363 Ry
     estimated scf accuracy    <      43.90061438 Ry

     iteration # 13     ecut=    30.00 Ry     beta=0.70
     Davidson diagonalization with overlap
     ethr =  1.00E-02,  avg # of iterations =  4.0

     negative rho (up, down):  5.040E-02 0.000E+00

     total cpu time spent up to now is        3.7 secs

     total energy              =      60.41289829 Ry
     Harris-Foulkes estimate   =    -889.34987798 Ry
     estimated scf accuracy    <      44.64113838 Ry

     iteration # 14     ecut=    30.00 Ry     beta=0.70
     Davidson diagonalization with overlap
     ethr =  1.00E-02,  avg # of iterations =  5.0

     negative rho (up, down):  4.759E-02 0.000E+00

     total cpu time spent up to now is        3.8 secs

     total energy              =     -29.86811830 Ry
     Harris-Foulkes estimate   =    -366.98430475 Ry
     estimated scf accuracy    <      24.44545886 Ry

     iteration # 15     ecut=    30.00 Ry     beta=0.70
     Davidson diagonalization with overlap
     ethr =  1.00E-02,  avg # of iterations =  7.0

     negative rho (up, down):  4.767E-02 0.000E+00

     total cpu time spent up to now is        3.8 secs

     total energy              =      -0.23469356 Ry
     Harris-Foulkes estimate   =    -214.07191537 Ry
     estimated scf accuracy    <       5.27658660 Ry

     iteration # 16     ecut=    30.00 Ry     beta=0.70
     Davidson diagonalization with overlap
     ethr =  1.00E-02,  avg # of iterations =  4.0

     negative rho (up, down):  6.418E-02 0.000E+00

     total cpu time spent up to now is        3.9 secs

     total energy              =     -31.64940327 Ry
     Harris-Foulkes estimate   =     -31.87224691 Ry
     estimated scf accuracy    <       0.87263805 Ry

     iteration # 17     ecut=    30.00 Ry     beta=0.70
     Davidson diagonalization with overlap
     ethr =  1.00E-02,  avg # of iterations =  4.0

     negative rho (up, down):  8.018E-02 0.000E+00

     total cpu time spent up to now is        3.9 secs

     total energy              =     -32.91955801 Ry
     Harris-Foulkes estimate   =     -32.29473618 Ry
     estimated scf accuracy    <       4.50184748 Ry

     iteration # 18     ecut=    30.00 Ry     beta=0.70
     Davidson diagonalization with overlap
     ethr =  1.00E-02,  avg # of iterations =  5.0

     negative rho (up, down):  1.916E-02 0.000E+00

     total cpu time spent up to now is        4.0 secs

     total energy              =     -27.87884628 Ry
     Harris-Foulkes estimate   =     -37.90113023 Ry
     estimated scf accuracy    <      16.93966085 Ry

     iteration # 19     ecut=    30.00 Ry     beta=0.70
     Davidson diagonalization with overlap
     ethr =  1.00E-02,  avg # of iterations =  4.0

     negative rho (up, down):  4.404E-02 0.000E+00

     total cpu time spent up to now is        4.0 secs

     total energy              =     141.19234922 Ry
     Harris-Foulkes estimate   =    -106.66962899 Ry
     estimated scf accuracy    <      25.06417920 Ry

     iteration # 20     ecut=    30.00 Ry     beta=0.70
     Davidson diagonalization with overlap
     ethr =  1.00E-02,  avg # of iterations =  5.0

     negative rho (up, down):  6.380E-02 0.000E+00

     total cpu time spent up to now is        4.0 secs

     total energy              =     -49.80137349 Ry
     Harris-Foulkes estimate   =    -160.09172534 Ry
     estimated scf accuracy    <      34.13481288 Ry

     iteration # 21     ecut=    30.00 Ry     beta=0.70
     Davidson diagonalization with overlap
     ethr =  1.00E-02,  avg # of iterations =  4.0

     negative rho (up, down):  6.434E-02 0.000E+00

     total cpu time spent up to now is        4.1 secs

     total energy              =     -75.01871031 Ry
     Harris-Foulkes estimate   =    -399.52063709 Ry
     estimated scf accuracy    <      34.23164012 Ry

     iteration # 22     ecut=    30.00 Ry     beta=0.70
     Davidson diagonalization with overlap
     ethr =  1.00E-02,  avg # of iterations =  3.0

     negative rho (up, down):  8.015E-02 0.000E+00

     total cpu time spent up to now is        4.1 secs

     total energy              =    -569.41163614 Ry
     Harris-Foulkes estimate   =    -840.30178473 Ry
     estimated scf accuracy    <      36.43598573 Ry

     iteration # 23     ecut=    30.00 Ry     beta=0.70
     Davidson diagonalization with overlap
     ethr =  1.00E-02,  avg # of iterations =  7.0

     negative rho (up, down):  4.809E-02 0.000E+00

     total cpu time spent up to now is        4.4 secs

     total energy              =     -75.10170860 Ry
     Harris-Foulkes estimate   =   -1556.61897614 Ry
     estimated scf accuracy    <      72.58412225 Ry

     iteration # 24     ecut=    30.00 Ry     beta=0.70
     Davidson diagonalization with overlap
     ethr =  1.00E-02,  avg # of iterations = 10.0

     negative rho (up, down):  6.748E-02 0.000E+00

     total cpu time spent up to now is        4.4 secs

     total energy              =     -55.24858663 Ry
     Harris-Foulkes estimate   =    -189.27965724 Ry
     estimated scf accuracy    <      37.02399971 Ry

     iteration # 25     ecut=    30.00 Ry     beta=0.70
     Davidson diagonalization with overlap
     ethr =  1.00E-02,  avg # of iterations =  6.0

     negative rho (up, down):  9.019E-01 0.000E+00

     total cpu time spent up to now is        4.5 secs

     total energy              =    -153.73666302 Ry
     Harris-Foulkes estimate   =    -189.49323200 Ry
     estimated scf accuracy    <      16.31900789 Ry

     iteration # 26     ecut=    30.00 Ry     beta=0.70
     Davidson diagonalization with overlap
     ethr =  1.00E-02,  avg # of iterations =  7.0

     negative rho (up, down):  1.156E+00 0.000E+00

     total cpu time spent up to now is        4.5 secs

     total energy              =       7.82231560 Ry
     Harris-Foulkes estimate   =   -1971.09748199 Ry
     estimated scf accuracy    <      55.52192144 Ry

     iteration # 27     ecut=    30.00 Ry     beta=0.70
     Davidson diagonalization with overlap
     ethr =  1.00E-02,  avg # of iterations =  8.0

     negative rho (up, down):  1.395E+00 0.000E+00

     total cpu time spent up to now is        4.6 secs

     total energy              =   -1835.95990488 Ry
     Harris-Foulkes estimate   =   -1089.59396953 Ry
     estimated scf accuracy    <      52.66938363 Ry

     iteration # 28     ecut=    30.00 Ry     beta=0.70
     Davidson diagonalization with overlap
     ethr =  1.00E-02,  avg # of iterations =  9.0

     negative rho (up, down):  1.556E+00 0.000E+00

     total cpu time spent up to now is        4.6 secs

     total energy              =     -56.45357148 Ry
     Harris-Foulkes estimate   =  -39188.29343126 Ry
     estimated scf accuracy    <      57.25874621 Ry

     iteration # 29     ecut=    30.00 Ry     beta=0.70
     Davidson diagonalization with overlap
     ethr =  1.00E-02,  avg # of iterations =  8.0

     negative rho (up, down):  1.610E+00 0.000E+00

     total cpu time spent up to now is        4.7 secs

     total energy              =  -14164.39596061 Ry
     Harris-Foulkes estimate   =   -1569.82077276 Ry
     estimated scf accuracy    <      48.26729598 Ry

     iteration # 30     ecut=    30.00 Ry     beta=0.70
     Davidson diagonalization with overlap
     ethr =  1.00E-02,  avg # of iterations =  5.0

     negative rho (up, down):  1.309E+00 0.000E+00

     total cpu time spent up to now is        4.7 secs

     total energy              =    -143.18720799 Ry
     Harris-Foulkes estimate   =  -22207.57895784 Ry
     estimated scf accuracy    <      52.62279062 Ry

     iteration # 31     ecut=    30.00 Ry     beta=0.70
     Davidson diagonalization with overlap
     ethr =  1.00E-02,  avg # of iterations = 10.0

     negative rho (up, down):  1.454E+00 0.000E+00

     total cpu time spent up to now is        4.8 secs

     total energy              =   -4490.97899554 Ry
     Harris-Foulkes estimate   =   -1088.74550872 Ry
     estimated scf accuracy    <      56.75300448 Ry

     iteration # 32     ecut=    30.00 Ry     beta=0.70
     Davidson diagonalization with overlap
     ethr =  1.00E-02,  avg # of iterations =  8.0

     negative rho (up, down):  9.985E-01 0.000E+00

     total cpu time spent up to now is        4.9 secs

     total energy              =    -459.29046218 Ry
     Harris-Foulkes estimate   =  -10989.61581327 Ry
     estimated scf accuracy    <      55.29109545 Ry

     iteration # 33     ecut=    30.00 Ry     beta=0.70
     Davidson diagonalization with overlap
     ethr =  1.00E-02,  avg # of iterations =  7.0

     negative rho (up, down):  1.296E+00 0.000E+00

     total cpu time spent up to now is        4.9 secs

     total energy              =    -148.55670593 Ry
     Harris-Foulkes estimate   =   -5201.88396816 Ry
     estimated scf accuracy    <      55.80086883 Ry

     iteration # 34     ecut=    30.00 Ry     beta=0.70
     Davidson diagonalization with overlap
     ethr =  1.00E-02,  avg # of iterations =  6.0

     negative rho (up, down):  8.174E-01 0.000E+00

     total cpu time spent up to now is        5.0 secs

     total energy              =     231.05201011 Ry
     Harris-Foulkes estimate   =   -5455.04652880 Ry
     estimated scf accuracy    <      45.12921641 Ry

     iteration # 35     ecut=    30.00 Ry     beta=0.70
     Davidson diagonalization with overlap
     ethr =  1.00E-02,  avg # of iterations =  7.0

     negative rho (up, down):  6.861E-01 0.000E+00

     total cpu time spent up to now is        5.0 secs

     total energy              =    -513.37526372 Ry
     Harris-Foulkes estimate   =   -5627.33420524 Ry
     estimated scf accuracy    <      29.49540137 Ry

     iteration # 36     ecut=    30.00 Ry     beta=0.70
     Davidson diagonalization with overlap
     ethr =  1.00E-02,  avg # of iterations =  6.0

     negative rho (up, down):  5.771E-01 0.000E+00

     total cpu time spent up to now is        5.1 secs

     total energy              =     115.88049266 Ry
     Harris-Foulkes estimate   =  -14807.04037602 Ry
     estimated scf accuracy    <      16.89343361 Ry

     iteration # 37     ecut=    30.00 Ry     beta=0.70
     Davidson diagonalization with overlap
     ethr =  1.00E-02,  avg # of iterations =  7.0

     negative rho (up, down):  2.305E-01 0.000E+00

     total cpu time spent up to now is        5.1 secs

     total energy              =     194.25841037 Ry
     Harris-Foulkes estimate   =   -5720.40850199 Ry
     estimated scf accuracy    <      27.89518797 Ry

     iteration # 38     ecut=    30.00 Ry     beta=0.70
     Davidson diagonalization with overlap
     ethr =  1.00E-02,  avg # of iterations =  7.0

     negative rho (up, down):  1.094E-01 0.000E+00

     total cpu time spent up to now is        5.2 secs

     total energy              =    -810.61351500 Ry
     Harris-Foulkes estimate   =    -608.28300430 Ry
     estimated scf accuracy    <      16.59101794 Ry

     iteration # 39     ecut=    30.00 Ry     beta=0.70
     Davidson diagonalization with overlap
     ethr =  1.00E-02,  avg # of iterations = 13.0

     negative rho (up, down):  1.003E-02 0.000E+00

     total cpu time spent up to now is        5.3 secs

     total energy              =     -11.24468445 Ry
     Harris-Foulkes estimate   =   -2169.34127535 Ry
     estimated scf accuracy    <      45.33098801 Ry

     iteration # 40     ecut=    30.00 Ry     beta=0.70
     Davidson diagonalization with overlap
     ethr =  1.00E-02,  avg # of iterations =  7.0

     negative rho (up, down):  1.225E-03 0.000E+00

     total cpu time spent up to now is        5.3 secs

     total energy              =     -14.52234901 Ry
     Harris-Foulkes estimate   =     -99.51887213 Ry
     estimated scf accuracy    <      23.02351437 Ry

     iteration # 41     ecut=    30.00 Ry     beta=0.70
     Davidson diagonalization with overlap
     ethr =  1.00E-02,  avg # of iterations =  7.0

     negative rho (up, down):  1.764E-02 0.000E+00

     total cpu time spent up to now is        5.4 secs

     total energy              =     -56.40539679 Ry
     Harris-Foulkes estimate   =     -62.95714738 Ry
     estimated scf accuracy    <      43.89620793 Ry

     iteration # 42     ecut=    30.00 Ry     beta=0.70
     Davidson diagonalization with overlap
     ethr =  1.00E-02,  avg # of iterations =  4.0

     negative rho (up, down):  3.330E-02 0.000E+00

     total cpu time spent up to now is        5.4 secs

     total energy              =       3.05657111 Ry
     Harris-Foulkes estimate   =    -883.41523407 Ry
     estimated scf accuracy    <      16.75415328 Ry

     iteration # 43     ecut=    30.00 Ry     beta=0.70
     Davidson diagonalization with overlap
     ethr =  1.00E-02,  avg # of iterations =  6.0

     negative rho (up, down):  1.435E-02 0.000E+00

     total cpu time spent up to now is        5.5 secs

     total energy              =     115.39239122 Ry
     Harris-Foulkes estimate   =    -265.87120613 Ry
     estimated scf accuracy    <      36.47744235 Ry

     iteration # 44     ecut=    30.00 Ry     beta=0.70
     Davidson diagonalization with overlap
     ethr =  1.00E-02,  avg # of iterations =  5.0

     negative rho (up, down):  1.456E-01 0.000E+00

     total cpu time spent up to now is        5.5 secs

     total energy              =     -43.25478576 Ry
     Harris-Foulkes estimate   =     -56.59840951 Ry
     estimated scf accuracy    <      36.05383491 Ry

     iteration # 45     ecut=    30.00 Ry     beta=0.70
     Davidson diagonalization with overlap
     ethr =  1.00E-02,  avg # of iterations = 11.0

     negative rho (up, down):  1.899E-01 0.000E+00

     total cpu time spent up to now is        5.6 secs

     total energy              =      40.63475710 Ry
     Harris-Foulkes estimate   =    -266.90355229 Ry
     estimated scf accuracy    <      36.99646885 Ry

     iteration # 46     ecut=    30.00 Ry     beta=0.70
     Davidson diagonalization with overlap
     ethr =  1.00E-02,  avg # of iterations =  8.0

     negative rho (up, down):  1.484E-01 0.000E+00

     total cpu time spent up to now is        5.6 secs

     total energy              =      91.12180327 Ry
     Harris-Foulkes estimate   =    -620.00030956 Ry
     estimated scf accuracy    <      44.43801674 Ry

     iteration # 47     ecut=    30.00 Ry     beta=0.70
     Davidson diagonalization with overlap
     ethr =  1.00E-02,  avg # of iterations = 10.0

     negative rho (up, down):  2.707E-01 0.000E+00

     total cpu time spent up to now is        5.7 secs

     total energy              =     -41.68480310 Ry
     Harris-Foulkes estimate   =    -355.97042749 Ry
     estimated scf accuracy    <      39.50975808 Ry

     iteration # 48     ecut=    30.00 Ry     beta=0.70
     Davidson diagonalization with overlap
     ethr =  1.00E-02,  avg # of iterations =  6.0

     negative rho (up, down):  1.606E-07 0.000E+00

     total cpu time spent up to now is        5.7 secs

     total energy              =     122.71950389 Ry
     Harris-Foulkes estimate   =    -667.73278918 Ry
     estimated scf accuracy    <      42.51622158 Ry

     iteration # 49     ecut=    30.00 Ry     beta=0.70
     Davidson diagonalization with overlap
     ethr =  1.00E-02,  avg # of iterations = 11.0

     negative rho (up, down):  5.400E-02 0.000E+00

     total cpu time spent up to now is        5.8 secs

     total energy              =     -45.42690719 Ry
     Harris-Foulkes estimate   =     -48.72477143 Ry
     estimated scf accuracy    <      25.46694527 Ry

     iteration # 50     ecut=    30.00 Ry     beta=0.70
     Davidson diagonalization with overlap
     ethr =  1.00E-02,  avg # of iterations =  5.0

     negative rho (up, down):  3.018E-05 0.000E+00

     total cpu time spent up to now is        5.9 secs

     total energy              =      33.83638345 Ry
     Harris-Foulkes estimate   =    -271.78268589 Ry
     estimated scf accuracy    <      10.43556622 Ry

     iteration # 51     ecut=    30.00 Ry     beta=0.70
     Davidson diagonalization with overlap
     ethr =  1.00E-02,  avg # of iterations =  5.0

     negative rho (up, down):  4.621E-03 0.000E+00

     total cpu time spent up to now is        5.9 secs

     total energy              =     -39.92839512 Ry
     Harris-Foulkes estimate   =     -43.69217359 Ry
     estimated scf accuracy    <      19.00659846 Ry

     iteration # 52     ecut=    30.00 Ry     beta=0.70
     Davidson diagonalization with overlap
     ethr =  1.00E-02,  avg # of iterations =  1.0

     negative rho (up, down):  6.558E-03 0.000E+00

     total cpu time spent up to now is        5.9 secs

     total energy              =     -36.24979810 Ry
     Harris-Foulkes estimate   =     -39.95637280 Ry
     estimated scf accuracy    <      14.21679535 Ry

     iteration # 53     ecut=    30.00 Ry     beta=0.70
     Davidson diagonalization with overlap
     ethr =  1.00E-02,  avg # of iterations =  1.0

     negative rho (up, down):  8.237E-02 0.000E+00

     total cpu time spent up to now is        6.0 secs

     total energy              =     -34.95796503 Ry
     Harris-Foulkes estimate   =     -36.29751920 Ry
     estimated scf accuracy    <       9.39120680 Ry

     iteration # 54     ecut=    30.00 Ry     beta=0.70
     Davidson diagonalization with overlap
     ethr =  1.00E-02,  avg # of iterations =  9.0

     negative rho (up, down):  1.141E-02 0.000E+00

     total cpu time spent up to now is        6.0 secs

     total energy              =     105.22333711 Ry
     Harris-Foulkes estimate   =   -1388.08046183 Ry
     estimated scf accuracy    <      61.56948910 Ry

     iteration # 55     ecut=    30.00 Ry     beta=0.70
     Davidson diagonalization with overlap
     ethr =  1.00E-02,  avg # of iterations =  6.0

     negative rho (up, down):  6.460E-03 0.000E+00

     total cpu time spent up to now is        6.1 secs

     total energy              =       9.18145693 Ry
     Harris-Foulkes estimate   =     -57.18676180 Ry
     estimated scf accuracy    <      15.13837237 Ry

     iteration # 56     ecut=    30.00 Ry     beta=0.70
     Davidson diagonalization with overlap
     ethr =  1.00E-02,  avg # of iterations =  9.0

     negative rho (up, down):  3.149E-02 0.000E+00

     total cpu time spent up to now is        6.1 secs

     total energy              =     -31.77099337 Ry
     Harris-Foulkes estimate   =     -33.09343950 Ry
     estimated scf accuracy    <       3.40066101 Ry

     iteration # 57     ecut=    30.00 Ry     beta=0.70
     Davidson diagonalization with overlap
     ethr =  1.00E-02,  avg # of iterations =  5.0

     negative rho (up, down):  6.695E-04 0.000E+00

     total cpu time spent up to now is        6.2 secs

     total energy              =      24.15619280 Ry
     Harris-Foulkes estimate   =    -385.89709919 Ry
     estimated scf accuracy    <      24.74166721 Ry

     iteration # 58     ecut=    30.00 Ry     beta=0.70
     Davidson diagonalization with overlap
     ethr =  1.00E-02,  avg # of iterations =  4.0

     total cpu time spent up to now is        6.2 secs

     total energy              =      -5.75790259 Ry
     Harris-Foulkes estimate   =     -57.09153684 Ry
     estimated scf accuracy    <       5.95045123 Ry

     iteration # 59     ecut=    30.00 Ry     beta=0.70
     Davidson diagonalization with overlap
     ethr =  1.00E-02,  avg # of iterations =  4.0

     negative rho (up, down):  6.550E-02 0.000E+00

     total cpu time spent up to now is        6.3 secs

     total energy              =     -30.92155897 Ry
     Harris-Foulkes estimate   =     -32.87761234 Ry
     estimated scf accuracy    <       4.76615137 Ry

     iteration # 60     ecut=    30.00 Ry     beta=0.70
     Davidson diagonalization with overlap
     ethr =  1.00E-02,  avg # of iterations =  8.0

     negative rho (up, down):  6.669E-04 0.000E+00

     total cpu time spent up to now is        6.3 secs

     total energy              =      70.96775363 Ry
     Harris-Foulkes estimate   =    -643.03702569 Ry
     estimated scf accuracy    <      61.03198314 Ry

     iteration # 61     ecut=    30.00 Ry     beta=0.70
     Davidson diagonalization with overlap
     ethr =  1.00E-02,  avg # of iterations = 11.0

     negative rho (up, down):  6.848E-05 0.000E+00

     total cpu time spent up to now is        6.4 secs

     total energy              =     -31.81396860 Ry
     Harris-Foulkes estimate   =     -32.07727641 Ry
     estimated scf accuracy    <       2.08544851 Ry

     iteration # 62     ecut=    30.00 Ry     beta=0.70
     Davidson diagonalization with overlap
     ethr =  1.00E-02,  avg # of iterations =  2.0

     negative rho (up, down):  7.313E-04 0.000E+00

     total cpu time spent up to now is        6.4 secs

     total energy              =     -31.71909986 Ry
     Harris-Foulkes estimate   =     -32.03142246 Ry
     estimated scf accuracy    <       3.32427826 Ry

     iteration # 63     ecut=    30.00 Ry     beta=0.70
     Davidson diagonalization with overlap
     ethr =  1.00E-02,  avg # of iterations =  2.0

     negative rho (up, down):  4.282E-04 0.000E+00

     total cpu time spent up to now is        6.4 secs

     total energy              =     -31.77333965 Ry
     Harris-Foulkes estimate   =     -31.81579103 Ry
     estimated scf accuracy    <       1.45701024 Ry

     iteration # 64     ecut=    30.00 Ry     beta=0.70
     Davidson diagonalization with overlap
     ethr =  1.00E-02,  avg # of iterations =  1.0

     total cpu time spent up to now is        6.5 secs

     total energy              =     -31.73111506 Ry
     Harris-Foulkes estimate   =     -31.78545117 Ry
     estimated scf accuracy    <       1.05050279 Ry

     iteration # 65     ecut=    30.00 Ry     beta=0.70
     Davidson diagonalization with overlap
     ethr =  1.00E-02,  avg # of iterations =  1.0

     total cpu time spent up to now is        6.5 secs

     total energy              =     -31.73916469 Ry
     Harris-Foulkes estimate   =     -31.74027511 Ry
     estimated scf accuracy    <       0.63066141 Ry

     iteration # 66     ecut=    30.00 Ry     beta=0.70
     Davidson diagonalization with overlap
     ethr =  7.88E-03,  avg # of iterations =  1.0

     negative rho (up, down):  1.158E-03 0.000E+00

     total cpu time spent up to now is        6.5 secs

     total energy              =     -31.66491000 Ry
     Harris-Foulkes estimate   =     -31.74150246 Ry
     estimated scf accuracy    <       0.83058382 Ry

     iteration # 67     ecut=    30.00 Ry     beta=0.70
     Davidson diagonalization with overlap
     ethr =  7.88E-03,  avg # of iterations =  1.0

     negative rho (up, down):  7.079E-03 0.000E+00

     total cpu time spent up to now is        6.6 secs

     total energy              =     -31.62877587 Ry
     Harris-Foulkes estimate   =     -31.69174338 Ry
     estimated scf accuracy    <       0.53949724 Ry

     iteration # 68     ecut=    30.00 Ry     beta=0.70
     Davidson diagonalization with overlap
     ethr =  6.74E-03,  avg # of iterations =  3.0

     negative rho (up, down):  1.859E-05 0.000E+00

     total cpu time spent up to now is        6.6 secs

     total energy              =     -30.93961228 Ry
     Harris-Foulkes estimate   =     -31.99926784 Ry
     estimated scf accuracy    <       4.29853084 Ry

     iteration # 69     ecut=    30.00 Ry     beta=0.70
     Davidson diagonalization with overlap
     ethr =  6.74E-03,  avg # of iterations =  3.0

     negative rho (up, down):  1.773E-02 0.000E+00

     total cpu time spent up to now is        6.7 secs

     total energy              =     -31.62649088 Ry
     Harris-Foulkes estimate   =     -31.61811234 Ry
     estimated scf accuracy    <       0.59331912 Ry

     iteration # 70     ecut=    30.00 Ry     beta=0.70
     Davidson diagonalization with overlap
     ethr =  6.74E-03,  avg # of iterations =  4.0

     total cpu time spent up to now is        6.7 secs

     total energy              =     -19.47287737 Ry
     Harris-Foulkes estimate   =     -36.29629487 Ry
     estimated scf accuracy    <       4.12539082 Ry

     iteration # 71     ecut=    30.00 Ry     beta=0.70
     Davidson diagonalization with overlap
     ethr =  6.74E-03,  avg # of iterations =  6.0

     negative rho (up, down):  1.036E-02 0.000E+00

     total cpu time spent up to now is        6.7 secs

     total energy              =     -31.57662746 Ry
     Harris-Foulkes estimate   =     -31.59692700 Ry
     estimated scf accuracy    <       1.15064649 Ry

     iteration # 72     ecut=    30.00 Ry     beta=0.70
     Davidson diagonalization with overlap
     ethr =  6.74E-03,  avg # of iterations =  1.0

     negative rho (up, down):  3.357E-07 0.000E+00

     total cpu time spent up to now is        6.8 secs

     total energy              =     -31.54851695 Ry
     Harris-Foulkes estimate   =     -31.59085239 Ry
     estimated scf accuracy    <       0.21301565 Ry

     iteration # 73     ecut=    30.00 Ry     beta=0.70
     Davidson diagonalization with overlap
     ethr =  2.66E-03,  avg # of iterations =  1.0

     negative rho (up, down):  2.796E-07 0.000E+00

     total cpu time spent up to now is        6.8 secs

     total energy              =     -31.54634901 Ry
     Harris-Foulkes estimate   =     -31.55240231 Ry
     estimated scf accuracy    <       0.29060313 Ry

     iteration # 74     ecut=    30.00 Ry     beta=0.70
     Davidson diagonalization with overlap
     ethr =  2.66E-03,  avg # of iterations =  1.0

     negative rho (up, down):  2.274E-07 0.000E+00

     total cpu time spent up to now is        6.8 secs

     total energy              =     -31.54182838 Ry
     Harris-Foulkes estimate   =     -31.54693240 Ry
     estimated scf accuracy    <       0.18752340 Ry

     iteration # 75     ecut=    30.00 Ry     beta=0.70
     Davidson diagonalization with overlap
     ethr =  2.34E-03,  avg # of iterations =  1.0

     negative rho (up, down):  1.216E-07 0.000E+00

     total cpu time spent up to now is        6.9 secs

     total energy              =     -31.53643380 Ry
     Harris-Foulkes estimate   =     -31.54209399 Ry
     estimated scf accuracy    <       0.13563235 Ry

     iteration # 76     ecut=    30.00 Ry     beta=0.70
     Davidson diagonalization with overlap
     ethr =  1.70E-03,  avg # of iterations =  1.0

     negative rho (up, down):  7.127E-08 0.000E+00

     total cpu time spent up to now is        6.9 secs

     total energy              =     -31.53588931 Ry
     Harris-Foulkes estimate   =     -31.53658034 Ry
     estimated scf accuracy    <       0.09419571 Ry

     iteration # 77     ecut=    30.00 Ry     beta=0.70
     Davidson diagonalization with overlap
     ethr =  1.18E-03,  avg # of iterations =  1.0

     total cpu time spent up to now is        6.9 secs

     total energy              =     -31.52903208 Ry
     Harris-Foulkes estimate   =     -31.53590677 Ry
     estimated scf accuracy    <       0.08275228 Ry

     iteration # 78     ecut=    30.00 Ry     beta=0.70
     Davidson diagonalization with overlap
     ethr =  1.03E-03,  avg # of iterations =  1.0

     total cpu time spent up to now is        7.0 secs

     total energy              =     -31.52942261 Ry
     Harris-Foulkes estimate   =     -31.52949855 Ry
     estimated scf accuracy    <       0.02923198 Ry

     iteration # 79     ecut=    30.00 Ry     beta=0.70
     Davidson diagonalization with overlap
     ethr =  3.65E-04,  avg # of iterations =  4.0

     total cpu time spent up to now is        7.0 secs

     total energy              =     -31.53227282 Ry
     Harris-Foulkes estimate   =     -31.52947843 Ry
     estimated scf accuracy    <       0.02269414 Ry

     iteration # 80     ecut=    30.00 Ry     beta=0.70
     Davidson diagonalization with overlap
     ethr =  2.84E-04,  avg # of iterations =  1.0

     total cpu time spent up to now is        7.0 secs

     total energy              =     -31.53303671 Ry
     Harris-Foulkes estimate   =     -31.53307960 Ry
     estimated scf accuracy    <       0.00110873 Ry

     iteration # 81     ecut=    30.00 Ry     beta=0.70
     Davidson diagonalization with overlap
     ethr =  1.39E-05,  avg # of iterations = 13.0

     total cpu time spent up to now is        7.1 secs

     total energy              =     -31.53307496 Ry
     Harris-Foulkes estimate   =     -31.53308225 Ry
     estimated scf accuracy    <       0.00027413 Ry

     iteration # 82     ecut=    30.00 Ry     beta=0.70
     Davidson diagonalization with overlap
     ethr =  3.43E-06,  avg # of iterations =  2.0

     total cpu time spent up to now is        7.1 secs

     total energy              =     -31.53309225 Ry
     Harris-Foulkes estimate   =     -31.53309272 Ry
     estimated scf accuracy    <       0.00002756 Ry

     iteration # 83     ecut=    30.00 Ry     beta=0.70
     Davidson diagonalization with overlap
     ethr =  3.45E-07,  avg # of iterations =  1.0

     total cpu time spent up to now is        7.1 secs

     total energy              =     -31.53309718 Ry
     Harris-Foulkes estimate   =     -31.53309413 Ry
     estimated scf accuracy    <       0.00000124 Ry

     iteration # 84     ecut=    30.00 Ry     beta=0.70
     Davidson diagonalization with overlap
     ethr =  1.55E-08,  avg # of iterations =  2.0

     total cpu time spent up to now is        7.2 secs

     total energy              =     -31.53309740 Ry
     Harris-Foulkes estimate   =     -31.53309728 Ry
     estimated scf accuracy    <       0.00000027 Ry

     iteration # 85     ecut=    30.00 Ry     beta=0.70
     Davidson diagonalization with overlap
     ethr =  3.35E-09,  avg # of iterations =  1.0

     total cpu time spent up to now is        7.2 secs

     total energy              =     -31.53309767 Ry
     Harris-Foulkes estimate   =     -31.53309749 Ry
     estimated scf accuracy    <       0.00000132 Ry

     iteration # 86     ecut=    30.00 Ry     beta=0.70
     Davidson diagonalization with overlap
     ethr =  3.35E-09,  avg # of iterations =  1.0

     total cpu time spent up to now is        7.3 secs

     total energy              =     -31.53309798 Ry
     Harris-Foulkes estimate   =     -31.53309776 Ry
     estimated scf accuracy    <       0.00000041 Ry

     iteration # 87     ecut=    30.00 Ry     beta=0.70
     Davidson diagonalization with overlap
     ethr =  3.35E-09,  avg # of iterations =  1.0

     total cpu time spent up to now is        7.3 secs

     End of self-consistent calculation

          k = 0.0000 0.0000 0.0000 ( 22119 PWs)   bands (ev):

   -23.8014  -7.4666  -7.2004  -7.1941  -7.1193  -6.5249  -0.1868   0.5683

     the Fermi energy is    -7.0590 ev

!    total energy              =     -31.53309799 Ry
     Harris-Foulkes estimate   =     -31.53309799 Ry
     estimated scf accuracy    <          8.3E-09 Ry

     convergence has been achieved in  87 iterations

     Forces acting on atoms (Ry/au):

     atom    1 type  1   force =     0.02636255    0.02655181    0.01002072
     atom    2 type  1   force =    -0.03028885   -0.01783208   -0.01453220
     atom    3 type  2   force =     0.00392630   -0.00871973    0.00451149

     Total force =     0.055306     Total SCF correction =     0.000021

     Entering Dynamics:    iteration =     3
                           time      =   0.0145 pico-seconds


     Andersen thermostat:    3 collisions

ATOMIC_POSITIONS (bohr)
H        4.858044769  -2.581455366   8.242603930
H        8.167855605  20.216419445  10.022811512
O        3.682895408   3.779555235   5.675862023


     kinetic energy (Ekin) =     0.01485100 Ry
     temperature           =   781.59475667 K 
     Ekin + Etot (const)   =   -31.51824699 Ry
     Message from routine dynamics:
     Total linear momentum <> 0

     Linear momentum :    0.3047675616   -0.3500624036   -0.1369358232

     Writing output data file pwscf.save

     second order wave-functions extrapolation
     Check: negative starting charge=   -0.345521
     second order charge density extrapolation
     Check: negative starting charge=   -0.347039

     negative rho (up, down):  5.845E-02 0.000E+00

     total cpu time spent up to now is        7.7 secs

     per-process dynamical memory:    20.4 Mb

     Self-consistent Calculation

     iteration #  1     ecut=    30.00 Ry     beta=0.70
     Davidson diagonalization with overlap
     ethr =  1.00E-06,  avg # of iterations = 14.0

     negative rho (up, down):  1.104E-02 0.000E+00

     total cpu time spent up to now is        7.8 secs

     total energy              =      -6.07724026 Ry
     Harris-Foulkes estimate   =     -77.81988230 Ry
     estimated scf accuracy    <       5.21805777 Ry

     iteration #  2     ecut=    30.00 Ry     beta=0.70
     Davidson diagonalization with overlap
     ethr =  1.00E-02,  avg # of iterations =  3.0

     negative rho (up, down):  7.287E-03 0.000E+00

     total cpu time spent up to now is        7.8 secs

     total energy              =     -31.38304019 Ry
     Harris-Foulkes estimate   =     -34.81175643 Ry
     estimated scf accuracy    <       7.19886838 Ry

     iteration #  3     ecut=    30.00 Ry     beta=0.70
     Davidson diagonalization with overlap
     ethr =  1.00E-02,  avg # of iterations =  3.0

     negative rho (up, down):  1.095E-03 0.000E+00

     total cpu time spent up to now is        7.8 secs

     total energy              =     -31.50390276 Ry
     Harris-Foulkes estimate   =     -33.35432824 Ry
     estimated scf accuracy    <       7.30886276 Ry

     iteration #  4     ecut=    30.00 Ry     beta=0.70
     Davidson diagonalization with overlap
     ethr =  1.00E-02,  avg # of iterations =  2.0

     negative rho (up, down):  9.242E-04 0.000E+00

     total cpu time spent up to now is        7.9 secs

     total energy              =     -32.53778022 Ry
     Harris-Foulkes estimate   =     -32.41293895 Ry
     estimated scf accuracy    <       2.09090828 Ry

     iteration #  5     ecut=    30.00 Ry     beta=0.70
     Davidson diagonalization with overlap
     ethr =  1.00E-02,  avg # of iterations =  1.0

     negative rho (up, down):  8.946E-04 0.000E+00

     total cpu time spent up to now is        7.9 secs

     total energy              =     -32.61824317 Ry
     Harris-Foulkes estimate   =     -32.53885350 Ry
     estimated scf accuracy    <       2.29673987 Ry

     iteration #  6     ecut=    30.00 Ry     beta=0.70
     Davidson diagonalization with overlap
     ethr =  1.00E-02,  avg # of iterations =  1.0

     negative rho (up, down):  1.417E-03 0.000E+00

     total cpu time spent up to now is        8.0 secs

     total energy              =     -31.77864590 Ry
     Harris-Foulkes estimate   =     -32.61850920 Ry
     estimated scf accuracy    <       2.42374030 Ry

     iteration #  7     ecut=    30.00 Ry     beta=0.70
     Davidson diagonalization with overlap
     ethr =  1.00E-02,  avg # of iterations =  1.0

     negative rho (up, down):  9.757E-04 0.000E+00

     total cpu time spent up to now is        8.0 secs

     total energy              =     -31.71016384 Ry
     Harris-Foulkes estimate   =     -31.90094072 Ry
     estimated scf accuracy    <       3.05446719 Ry

     iteration #  8     ecut=    30.00 Ry     beta=0.70
     Davidson diagonalization with overlap
     ethr =  1.00E-02,  avg # of iterations =  1.0

     negative rho (up, down):  4.077E-04 0.000E+00

     total cpu time spent up to now is        8.0 secs

     total energy              =     -31.46558861 Ry
     Harris-Foulkes estimate   =     -31.72157876 Ry
     estimated scf accuracy    <       1.19615467 Ry

     iteration #  9     ecut=    30.00 Ry     beta=0.70
     Davidson diagonalization with overlap
     ethr =  1.00E-02,  avg # of iterations =  1.0

     negative rho (up, down):  1.139E-03 0.000E+00

     total cpu time spent up to now is        8.1 secs

     total energy              =     -31.53934489 Ry
     Harris-Foulkes estimate   =     -31.61058481 Ry
     estimated scf accuracy    <       0.92630989 Ry

     iteration # 10     ecut=    30.00 Ry     beta=0.70
     Davidson diagonalization with overlap
     ethr =  1.00E-02,  avg # of iterations =  1.0

     negative rho (up, down):  3.174E-02 0.000E+00

     total cpu time spent up to now is        8.1 secs

     total energy              =     -31.48295120 Ry
     Harris-Foulkes estimate   =     -31.60024650 Ry
     estimated scf accuracy    <       0.27755322 Ry

     iteration # 11     ecut=    30.00 Ry     beta=0.70
     Davidson diagonalization with overlap
     ethr =  3.47E-03,  avg # of iterations =  2.0

     negative rho (up, down):  1.049E-01 0.000E+00

     total cpu time spent up to now is        8.1 secs

     total energy              =     -31.38684009 Ry
     Harris-Foulkes estimate   =     -31.98309150 Ry
     estimated scf accuracy    <       1.61147697 Ry

     iteration # 12     ecut=    30.00 Ry     beta=0.70
     Davidson diagonalization with overlap
     ethr =  3.47E-03,  avg # of iterations =  2.0

     negative rho (up, down):  7.825E-03 0.000E+00

     total cpu time spent up to now is        8.2 secs

     total energy              =     -31.64868899 Ry
     Harris-Foulkes estimate   =     -32.26974293 Ry
     estimated scf accuracy    <       3.78222550 Ry

     iteration # 13     ecut=    30.00 Ry     beta=0.70
     Davidson diagonalization with overlap
     ethr =  3.47E-03,  avg # of iterations =  1.0

     negative rho (up, down):  1.571E-04 0.000E+00

     total cpu time spent up to now is        8.2 secs

     total energy              =     -31.36423111 Ry
     Harris-Foulkes estimate   =     -31.65734406 Ry
     estimated scf accuracy    <       2.68875602 Ry

     iteration # 14     ecut=    30.00 Ry     beta=0.70
     Davidson diagonalization with overlap
     ethr =  3.47E-03,  avg # of iterations =  1.0

     negative rho (up, down):  4.210E-08 0.000E+00

     total cpu time spent up to now is        8.2 secs

     total energy              =     -31.59192746 Ry
     Harris-Foulkes estimate   =     -31.61242645 Ry
     estimated scf accuracy    <       0.60637464 Ry

     iteration # 15     ecut=    30.00 Ry     beta=0.70
     Davidson diagonalization with overlap
     ethr =  3.47E-03,  avg # of iterations =  1.0

     negative rho (up, down):  1.091E-07 0.000E+00

     total cpu time spent up to now is        8.3 secs

     total energy              =     -31.59285151 Ry
     Harris-Foulkes estimate   =     -31.59967138 Ry
     estimated scf accuracy    <       1.16915006 Ry

     iteration # 16     ecut=    30.00 Ry     beta=0.70
     Davidson diagonalization with overlap
     ethr =  3.47E-03,  avg # of iterations =  1.0

     total cpu time spent up to now is        8.3 secs

     total energy              =     -31.55351258 Ry
     Harris-Foulkes estimate   =     -31.59327274 Ry
     estimated scf accuracy    <       0.86946624 Ry

     iteration # 17     ecut=    30.00 Ry     beta=0.70
     Davidson diagonalization with overlap
     ethr =  3.47E-03,  avg # of iterations =  1.0

     negative rho (up, down):  2.303E-04 0.000E+00

     total cpu time spent up to now is        8.3 secs

     total energy              =     -31.55799001 Ry
     Harris-Foulkes estimate   =     -31.57230222 Ry
     estimated scf accuracy    <       0.15540846 Ry

     iteration # 18     ecut=    30.00 Ry     beta=0.70
     Davidson diagonalization with overlap
     ethr =  1.94E-03,  avg # of iterations =  1.0

     negative rho (up, down):  1.750E-06 0.000E+00

     total cpu time spent up to now is        8.4 secs

     total energy              =     -31.56492764 Ry
     Harris-Foulkes estimate   =     -31.56361013 Ry
     estimated scf accuracy    <       0.02673680 Ry

     iteration # 19     ecut=    30.00 Ry     beta=0.70
     Davidson diagonalization with overlap
     ethr =  3.34E-04,  avg # of iterations =  1.0

     negative rho (up, down):  1.372E-07 0.000E+00

     total cpu time spent up to now is        8.4 secs

     total energy              =     -31.56480385 Ry
     Harris-Foulkes estimate   =     -31.56495177 Ry
     estimated scf accuracy    <       0.03057294 Ry

     iteration # 20     ecut=    30.00 Ry     beta=0.70
     Davidson diagonalization with overlap
     ethr =  3.34E-04,  avg # of iterations =  1.0

     total cpu time spent up to now is        8.5 secs

     total energy              =     -31.56469589 Ry
     Harris-Foulkes estimate   =     -31.56481188 Ry
     estimated scf accuracy    <       0.02972131 Ry

     iteration # 21     ecut=    30.00 Ry     beta=0.70
     Davidson diagonalization with overlap
     ethr =  3.34E-04,  avg # of iterations =  1.0

     negative rho (up, down):  9.502E-07 0.000E+00

     total cpu time spent up to now is        8.5 secs

     total energy              =     -31.56317922 Ry
     Harris-Foulkes estimate   =     -31.56496733 Ry
     estimated scf accuracy    <       0.03297928 Ry

     iteration # 22     ecut=    30.00 Ry     beta=0.70
     Davidson diagonalization with overlap
     ethr =  3.34E-04,  avg # of iterations =  4.0

     negative rho (up, down):  1.447E-07 0.000E+00

     total cpu time spent up to now is        8.5 secs

     total energy              =     -31.56352763 Ry
     Harris-Foulkes estimate   =     -31.56372092 Ry
     estimated scf accuracy    <       0.02836771 Ry

     iteration # 23     ecut=    30.00 Ry     beta=0.70
     Davidson diagonalization with overlap
     ethr =  3.34E-04,  avg # of iterations =  1.0

     total cpu time spent up to now is        8.6 secs

     total energy              =     -31.56218528 Ry
     Harris-Foulkes estimate   =     -31.56352852 Ry
     estimated scf accuracy    <       0.02852578 Ry

     iteration # 24     ecut=    30.00 Ry     beta=0.70
[...]
     estimated scf accuracy    <       0.02086731 Ry

     iteration # 53     ecut=    30.00 Ry     beta=0.70
     Davidson diagonalization with overlap
     ethr =  9.59E-05,  avg # of iterations =  1.0

     total cpu time spent up to now is       11.5 secs

     total energy              =     -31.71227596 Ry
     Harris-Foulkes estimate   =     -31.70950371 Ry
     estimated scf accuracy    <       0.03924981 Ry

     iteration # 54     ecut=    30.00 Ry     beta=0.70
     Davidson diagonalization with overlap
     ethr =  9.59E-05,  avg # of iterations =  1.0

     total cpu time spent up to now is       11.6 secs

     total energy              =     -31.71187630 Ry
     Harris-Foulkes estimate   =     -31.71233128 Ry
     estimated scf accuracy    <       0.04453386 Ry

     iteration # 55     ecut=    30.00 Ry     beta=0.70
     Davidson diagonalization with overlap
     ethr =  9.59E-05,  avg # of iterations =  1.0

     total cpu time spent up to now is       11.6 secs

     total energy              =     -31.70243198 Ry
     Harris-Foulkes estimate   =     -31.71188210 Ry
     estimated scf accuracy    <       0.04395093 Ry

     iteration # 56     ecut=    30.00 Ry     beta=0.70
     Davidson diagonalization with overlap
     ethr =  9.59E-05,  avg # of iterations =  1.0

     total cpu time spent up to now is       11.6 secs

     total energy              =     -31.70686959 Ry
     Harris-Foulkes estimate   =     -31.70278910 Ry
     estimated scf accuracy    <       0.02751736 Ry

     iteration # 57     ecut=    30.00 Ry     beta=0.70
     Davidson diagonalization with overlap
     ethr =  9.59E-05,  avg # of iterations =  1.0

     total cpu time spent up to now is       11.7 secs

     total energy              =     -31.69142278 Ry
     Harris-Foulkes estimate   =     -31.70695235 Ry
     estimated scf accuracy    <       0.03452214 Ry

     iteration # 58     ecut=    30.00 Ry     beta=0.70
     Davidson diagonalization with overlap
     ethr =  9.59E-05,  avg # of iterations =  2.0

     total cpu time spent up to now is       11.7 secs

     total energy              =     -31.68667323 Ry
     Harris-Foulkes estimate   =     -31.69304774 Ry
     estimated scf accuracy    <       0.00841029 Ry

     iteration # 59     ecut=    30.00 Ry     beta=0.70
     Davidson diagonalization with overlap
     ethr =  9.59E-05,  avg # of iterations =  3.0

     total cpu time spent up to now is       11.7 secs

     total energy              =     -31.72112594 Ry
     Harris-Foulkes estimate   =     -31.73341597 Ry
     estimated scf accuracy    <       2.32034928 Ry

     iteration # 60     ecut=    30.00 Ry     beta=0.70
     Davidson diagonalization with overlap
     ethr =  9.59E-05,  avg # of iterations =  1.0

     total cpu time spent up to now is       11.8 secs

     total energy              =     -31.72246188 Ry
     Harris-Foulkes estimate   =     -31.72168209 Ry
     estimated scf accuracy    <       1.88573599 Ry

     iteration # 61     ecut=    30.00 Ry     beta=0.70
     Davidson diagonalization with overlap
     ethr =  9.59E-05,  avg # of iterations =  1.0

     total cpu time spent up to now is       11.8 secs

     total energy              =     -31.53807144 Ry
     Harris-Foulkes estimate   =     -31.72246594 Ry
     estimated scf accuracy    <       1.91901595 Ry

     iteration # 62     ecut=    30.00 Ry     beta=0.70
     Davidson diagonalization with overlap
     ethr =  9.59E-05,  avg # of iterations =  3.0

     total cpu time spent up to now is       11.8 secs

     total energy              =     -31.69397229 Ry
     Harris-Foulkes estimate   =     -31.69714067 Ry
     estimated scf accuracy    <       0.01654693 Ry

     iteration # 63     ecut=    30.00 Ry     beta=0.70
     Davidson diagonalization with overlap
     ethr =  9.59E-05,  avg # of iterations =  1.0

     total cpu time spent up to now is       11.9 secs

     total energy              =     -31.69374621 Ry
     Harris-Foulkes estimate   =     -31.69411978 Ry
     estimated scf accuracy    <       0.01037823 Ry

     iteration # 64     ecut=    30.00 Ry     beta=0.70
     Davidson diagonalization with overlap
     ethr =  9.59E-05,  avg # of iterations =  1.0

     total cpu time spent up to now is       11.9 secs

     total energy              =     -31.69434826 Ry
     Harris-Foulkes estimate   =     -31.69375301 Ry
     estimated scf accuracy    <       0.00959471 Ry

     iteration # 65     ecut=    30.00 Ry     beta=0.70
     Davidson diagonalization with overlap
     ethr =  9.59E-05,  avg # of iterations =  1.0

     total cpu time spent up to now is       11.9 secs

     total energy              =     -31.69449799 Ry
     Harris-Foulkes estimate   =     -31.69435495 Ry
     estimated scf accuracy    <       0.01075980 Ry

     iteration # 66     ecut=    30.00 Ry     beta=0.70
     Davidson diagonalization with overlap
     ethr =  9.59E-05,  avg # of iterations =  1.0

     total cpu time spent up to now is       12.0 secs

     total energy              =     -31.69429351 Ry
     Harris-Foulkes estimate   =     -31.69449863 Ry
     estimated scf accuracy    <       0.01106163 Ry

     iteration # 67     ecut=    30.00 Ry     beta=0.70
     Davidson diagonalization with overlap
     ethr =  9.59E-05,  avg # of iterations =  1.0

     total cpu time spent up to now is       12.0 secs

     total energy              =     -31.69378717 Ry
     Harris-Foulkes estimate   =     -31.69429428 Ry
     estimated scf accuracy    <       0.01066325 Ry

     iteration # 68     ecut=    30.00 Ry     beta=0.70
     Davidson diagonalization with overlap
     ethr =  9.59E-05,  avg # of iterations =  1.0

     total cpu time spent up to now is       12.0 secs

     total energy              =     -31.69344481 Ry
     Harris-Foulkes estimate   =     -31.69379291 Ry
     estimated scf accuracy    <       0.00962825 Ry

     iteration # 69     ecut=    30.00 Ry     beta=0.70
     Davidson diagonalization with overlap
     ethr =  9.59E-05,  avg # of iterations =  1.0

     total cpu time spent up to now is       12.1 secs

     total energy              =     -31.69327919 Ry
     Harris-Foulkes estimate   =     -31.69344829 Ry
     estimated scf accuracy    <       0.00895125 Ry

     iteration # 70     ecut=    30.00 Ry     beta=0.70
     Davidson diagonalization with overlap
     ethr =  9.59E-05,  avg # of iterations =  1.0

     total cpu time spent up to now is       12.1 secs

     total energy              =     -31.68720466 Ry
     Harris-Foulkes estimate   =     -31.69327977 Ry
     estimated scf accuracy    <       0.00867205 Ry

     iteration # 71     ecut=    30.00 Ry     beta=0.70
     Davidson diagonalization with overlap
     ethr =  9.59E-05,  avg # of iterations =  2.0

     total cpu time spent up to now is       12.1 secs

     total energy              =     -31.61863700 Ry
     Harris-Foulkes estimate   =     -31.71059162 Ry
     estimated scf accuracy    <       1.34080590 Ry

     iteration # 72     ecut=    30.00 Ry     beta=0.70
     Davidson diagonalization with overlap
     ethr =  9.59E-05,  avg # of iterations =  2.0

     total cpu time spent up to now is       12.2 secs

     total energy              =     -31.69214565 Ry
     Harris-Foulkes estimate   =     -31.69221322 Ry
     estimated scf accuracy    <       0.00773173 Ry

     iteration # 73     ecut=    30.00 Ry     beta=0.70
     Davidson diagonalization with overlap
     ethr =  9.59E-05,  avg # of iterations =  1.0

     total cpu time spent up to now is       12.2 secs

     total energy              =     -31.69165825 Ry
     Harris-Foulkes estimate   =     -31.69214941 Ry
     estimated scf accuracy    <       0.00777571 Ry

     iteration # 74     ecut=    30.00 Ry     beta=0.70
     Davidson diagonalization with overlap
     ethr =  9.59E-05,  avg # of iterations =  1.0

     total cpu time spent up to now is       12.2 secs

     total energy              =     -31.69274499 Ry
     Harris-Foulkes estimate   =     -31.69164008 Ry
     estimated scf accuracy    <       0.00846903 Ry

     iteration # 75     ecut=    30.00 Ry     beta=0.70
     Davidson diagonalization with overlap
     ethr =  9.59E-05,  avg # of iterations =  1.0

     total cpu time spent up to now is       12.3 secs

     total energy              =     -31.69245714 Ry
     Harris-Foulkes estimate   =     -31.69266931 Ry
     estimated scf accuracy    <       0.00784432 Ry

     iteration # 76     ecut=    30.00 Ry     beta=0.70
     Davidson diagonalization with overlap
     ethr =  9.59E-05,  avg # of iterations =  1.0

     total cpu time spent up to now is       12.3 secs

     total energy              =     -31.69280817 Ry
     Harris-Foulkes estimate   =     -31.69245654 Ry
     estimated scf accuracy    <       0.00777405 Ry

     iteration # 77     ecut=    30.00 Ry     beta=0.70
     Davidson diagonalization with overlap
     ethr =  9.59E-05,  avg # of iterations =  1.0

     total cpu time spent up to now is       12.3 secs

     total energy              =     -31.69330735 Ry
     Harris-Foulkes estimate   =     -31.69280558 Ry
     estimated scf accuracy    <       0.00799777 Ry

     iteration # 78     ecut=    30.00 Ry     beta=0.70
     Davidson diagonalization with overlap
     ethr =  9.59E-05,  avg # of iterations =  1.0

     total cpu time spent up to now is       12.4 secs

     total energy              =     -31.69756035 Ry
     Harris-Foulkes estimate   =     -31.69330844 Ry
     estimated scf accuracy    <       0.00870842 Ry

     iteration # 79     ecut=    30.00 Ry     beta=0.70
     Davidson diagonalization with overlap
     ethr =  9.59E-05,  avg # of iterations =  1.0

     total cpu time spent up to now is       12.4 secs

     total energy              =     -31.69739570 Ry
     Harris-Foulkes estimate   =     -31.69789077 Ry
     estimated scf accuracy    <       0.01784581 Ry

     iteration # 80     ecut=    30.00 Ry     beta=0.70
     Davidson diagonalization with overlap
     ethr =  9.59E-05,  avg # of iterations =  1.0

     total cpu time spent up to now is       12.4 secs

     total energy              =     -31.69163051 Ry
     Harris-Foulkes estimate   =     -31.69740285 Ry
     estimated scf accuracy    <       0.01698929 Ry

     iteration # 81     ecut=    30.00 Ry     beta=0.70
     Davidson diagonalization with overlap
     ethr =  9.59E-05,  avg # of iterations =  1.0

     negative rho (up, down):  1.716E-06 0.000E+00

     total cpu time spent up to now is       12.5 secs

     total energy              =     -31.68563062 Ry
     Harris-Foulkes estimate   =     -31.69209648 Ry
     estimated scf accuracy    <       0.00796457 Ry

     iteration # 82     ecut=    30.00 Ry     beta=0.70
     Davidson diagonalization with overlap
     ethr =  9.59E-05,  avg # of iterations =  3.0

     total cpu time spent up to now is       12.5 secs

     total energy              =     -31.55313113 Ry
     Harris-Foulkes estimate   =     -31.87337024 Ry
     estimated scf accuracy    <       3.31755727 Ry

     iteration # 83     ecut=    30.00 Ry     beta=0.70
     Davidson diagonalization with overlap
     ethr =  9.59E-05,  avg # of iterations =  3.0

     total cpu time spent up to now is       12.5 secs

     total energy              =     -31.69333153 Ry
     Harris-Foulkes estimate   =     -31.69248945 Ry
     estimated scf accuracy    <       0.00780194 Ry

     iteration # 84     ecut=    30.00 Ry     beta=0.70
     Davidson diagonalization with overlap
     ethr =  9.59E-05,  avg # of iterations =  1.0

     total cpu time spent up to now is       12.6 secs

     total energy              =     -31.69523548 Ry
     Harris-Foulkes estimate   =     -31.69332938 Ry
     estimated scf accuracy    <       0.00873533 Ry

     iteration # 85     ecut=    30.00 Ry     beta=0.70
     Davidson diagonalization with overlap
     ethr =  9.59E-05,  avg # of iterations =  1.0

     total cpu time spent up to now is       12.6 secs

     total energy              =     -31.69530918 Ry
     Harris-Foulkes estimate   =     -31.69531230 Ry
     estimated scf accuracy    <       0.01279079 Ry

     iteration # 86     ecut=    30.00 Ry     beta=0.70
     Davidson diagonalization with overlap
     ethr =  9.59E-05,  avg # of iterations =  1.0

     total cpu time spent up to now is       12.6 secs

     total energy              =     -31.69539702 Ry
     Harris-Foulkes estimate   =     -31.69531014 Ry
     estimated scf accuracy    <       0.01278500 Ry

     iteration # 87     ecut=    30.00 Ry     beta=0.70
     Davidson diagonalization with overlap
     ethr =  9.59E-05,  avg # of iterations =  1.0

     total cpu time spent up to now is       12.7 secs

     total energy              =     -31.69548735 Ry
     Harris-Foulkes estimate   =     -31.69539726 Ry
     estimated scf accuracy    <       0.01298284 Ry

     iteration # 88     ecut=    30.00 Ry     beta=0.70
     Davidson diagonalization with overlap
     ethr =  9.59E-05,  avg # of iterations =  1.0

     total cpu time spent up to now is       12.7 secs

     total energy              =     -31.69496285 Ry
     Harris-Foulkes estimate   =     -31.69548753 Ry
     estimated scf accuracy    <       0.01317288 Ry

     iteration # 89     ecut=    30.00 Ry     beta=0.70
     Davidson diagonalization with overlap
     ethr =  9.59E-05,  avg # of iterations =  1.0

     total cpu time spent up to now is       12.7 secs

     total energy              =     -31.69476818 Ry
     Harris-Foulkes estimate   =     -31.69496760 Ry
     estimated scf accuracy    <       0.01209868 Ry

     iteration # 90     ecut=    30.00 Ry     beta=0.70
     Davidson diagonalization with overlap
     ethr =  9.59E-05,  avg # of iterations =  1.0

     total cpu time spent up to now is       12.8 secs

     total energy              =     -31.69347945 Ry
     Harris-Foulkes estimate   =     -31.69476916 Ry
     estimated scf accuracy    <       0.01166782 Ry

     iteration # 91     ecut=    30.00 Ry     beta=0.70
     Davidson diagonalization with overlap
     ethr =  9.59E-05,  avg # of iterations =  1.0

     total cpu time spent up to now is       12.8 secs

     total energy              =     -31.68687650 Ry
     Harris-Foulkes estimate   =     -31.69351343 Ry
     estimated scf accuracy    <       0.00912250 Ry

     iteration # 92     ecut=    30.00 Ry     beta=0.70
     Davidson diagonalization with overlap
     ethr =  9.59E-05,  avg # of iterations =  2.0

     total cpu time spent up to now is       12.8 secs

     total energy              =     -31.62763358 Ry
     Harris-Foulkes estimate   =     -31.71766981 Ry
     estimated scf accuracy    <       1.70635348 Ry

     iteration # 93     ecut=    30.00 Ry     beta=0.70
     Davidson diagonalization with overlap
     ethr =  9.59E-05,  avg # of iterations =  2.0

     total cpu time spent up to now is       12.9 secs

     total energy              =     -31.68563339 Ry
     Harris-Foulkes estimate   =     -31.69060095 Ry
     estimated scf accuracy    <       0.01172657 Ry

     iteration # 94     ecut=    30.00 Ry     beta=0.70
     Davidson diagonalization with overlap
     ethr =  9.59E-05,  avg # of iterations =  1.0

     total cpu time spent up to now is       12.9 secs

     total energy              =     -31.66932912 Ry
     Harris-Foulkes estimate   =     -31.69990551 Ry
     estimated scf accuracy    <       0.70309408 Ry

     iteration # 95     ecut=    30.00 Ry     beta=0.70
     Davidson diagonalization with overlap
     ethr =  9.59E-05,  avg # of iterations =  1.0

     total cpu time spent up to now is       12.9 secs

     total energy              =     -31.69304100 Ry
     Harris-Foulkes estimate   =     -31.68877928 Ry
     estimated scf accuracy    <       0.00654267 Ry

     iteration # 96     ecut=    30.00 Ry     beta=0.70
     Davidson diagonalization with overlap
     ethr =  8.18E-05,  avg # of iterations =  1.0

     total cpu time spent up to now is       13.0 secs

     total energy              =     -31.69179637 Ry
     Harris-Foulkes estimate   =     -31.69327576 Ry
     estimated scf accuracy    <       0.00870099 Ry

     iteration # 97     ecut=    30.00 Ry     beta=0.70
     Davidson diagonalization with overlap
     ethr =  8.18E-05,  avg # of iterations =  1.0

     total cpu time spent up to now is       13.0 secs

     total energy              =     -31.69156938 Ry
     Harris-Foulkes estimate   =     -31.69177746 Ry
     estimated scf accuracy    <       0.00831619 Ry

     iteration # 98     ecut=    30.00 Ry     beta=0.70
     Davidson diagonalization with overlap
     ethr =  8.18E-05,  avg # of iterations =  1.0

     total cpu time spent up to now is       13.0 secs

     total energy              =     -31.69145317 Ry
     Harris-Foulkes estimate   =     -31.69156777 Ry
     estimated scf accuracy    <       0.00868251 Ry

     iteration # 99     ecut=    30.00 Ry     beta=0.70
     Davidson diagonalization with overlap
     ethr =  8.18E-05,  avg # of iterations =  1.0

     total cpu time spent up to now is       13.1 secs

     total energy              =     -31.69162124 Ry
     Harris-Foulkes estimate   =     -31.69145217 Ry
     estimated scf accuracy    <       0.00895833 Ry

     iteration #100     ecut=    30.00 Ry     beta=0.70
     Davidson diagonalization with overlap
     ethr =  8.18E-05,  avg # of iterations =  1.0

     total cpu time spent up to now is       13.1 secs

     total energy              =     -31.69203088 Ry
     Harris-Foulkes estimate   =     -31.69161820 Ry
     estimated scf accuracy    <       0.00852201 Ry

     End of self-consistent calculation

     convergence NOT achieved after 100 iterations: stopping

     Writing output data file pwscf.save
 
     init_run     :      0.09s CPU      0.11s WALL (       1 calls)
     electrons    :      9.39s CPU     11.82s WALL (       5 calls)
     update_pot   :      0.44s CPU      0.66s WALL (       4 calls)
     forces       :      0.11s CPU      0.11s WALL (       4 calls)

     Called by init_run:
     wfcinit      :      0.01s CPU      0.02s WALL (       1 calls)
     potinit      :      0.02s CPU      0.03s WALL (       1 calls)

     Called by electrons:
     c_bands      :      3.99s CPU      4.18s WALL (     291 calls)
     sum_band     :      0.84s CPU      0.90s WALL (     291 calls)
     v_of_rho     :      2.08s CPU      2.27s WALL (     296 calls)
     mix_rho      :      2.19s CPU      3.69s WALL (     291 calls)

     Called by c_bands:
     init_us_2    :      0.03s CPU      0.03s WALL (     583 calls)
     cegterg      :      3.93s CPU      4.03s WALL (     291 calls)

     Called by sum_band:

     Called by *egterg:
     h_psi        :      3.34s CPU      3.42s WALL (    1114 calls)
     g_psi        :      0.03s CPU      0.03s WALL (     822 calls)
     cdiaghg      :      0.21s CPU      0.21s WALL (    1109 calls)

     Called by h_psi:
     h_psi:pot    :      3.32s CPU      3.40s WALL (    1114 calls)
     h_psi:calbec :      0.05s CPU      0.07s WALL (    1114 calls)
     vloc_psi     :      3.26s CPU      3.32s WALL (    1114 calls)
     add_vuspsi   :      0.01s CPU      0.01s WALL (    1114 calls)

     General routines
     calbec       :      0.07s CPU      0.10s WALL (    1133 calls)
     fft          :      1.52s CPU      1.67s WALL (    3264 calls)
     fftw         :      3.47s CPU      3.56s WALL (   15556 calls)
     davcio       :      0.32s CPU      1.31s WALL (    5388 calls)
 
     Parallel routines
     fft_scatter  :      2.00s CPU      2.17s WALL (   18820 calls)
 
     PWSCF        :    10.21s CPU        13.20s WALL

 
   This run was terminated on:   7:57:40  14Feb2018            

=------------------------------------------------------------------------------=
   JOB DONE.
=------------------------------------------------------------------------------=
