
     Program PWSCF v.6.0 (svn rev. 13079) starts on 14Feb2018 at  7:57:53 

     This program is part of the open-source Quantum ESPRESSO suite
     for quantum simulation of materials; please cite
         "P. Giannozzi et al., J. Phys.:Condens. Matter 21 395502 (2009);
          URL http://www.quantum-espresso.org", 
     in publications or presentations arising from this work. More details at
     http://www.quantum-espresso.org/quote

     Parallel version (MPI), running on    28 processors
     R & G space division:  proc/nbgrp/npool/nimage =      28
     Reading input from inputs/MD-H2O-2/238.in

     Current dimensions of program PWSCF are:
     Max number of different atomic species (ntypx) = 10
     Max number of k-points (npk) =  40000
     Max angular momentum in pseudopotentials (lmaxx) =  3

     Subspace diagonalization in iterative solution of the eigenvalue problem:
     a serial algorithm will be used

 
     Parallelization info
     --------------------
     sticks:   dense  smooth     PW     G-vecs:    dense   smooth      PW
     Min         136     136     33                 6338     6338     787
     Max         137     137     34                 6341     6341     792
     Sum        3809    3809    949               177509   177509   22119
 


     bravais-lattice index     =            1
     lattice parameter (alat)  =      20.0000  a.u.
     unit-cell volume          =    8000.0000 (a.u.)^3
     number of atoms/cell      =            3
     number of atomic types    =            2
     number of electrons       =         8.00
     number of Kohn-Sham states=            8
     kinetic-energy cutoff     =      30.0000  Ry
     charge density cutoff     =     120.0000  Ry
     convergence threshold     =      1.0E-08
     mixing beta               =       0.7000
     number of iterations used =            8  plain     mixing
     Exchange-correlation      = BLYP ( 1  3  1  3 0 0)
     nstep                     =         5000


     celldm(1)=  20.000000  celldm(2)=   0.000000  celldm(3)=   0.000000
     celldm(4)=   0.000000  celldm(5)=   0.000000  celldm(6)=   0.000000

     crystal axes: (cart. coord. in units of alat)
               a(1) = (   1.000000   0.000000   0.000000 )  
               a(2) = (   0.000000   1.000000   0.000000 )  
               a(3) = (   0.000000   0.000000   1.000000 )  

     reciprocal axes: (cart. coord. in units 2 pi/alat)
               b(1) = (  1.000000  0.000000  0.000000 )  
               b(2) = (  0.000000  1.000000  0.000000 )  
               b(3) = (  0.000000  0.000000  1.000000 )  


     PseudoPot. # 1 for  H read from file:
     ./H.blyp-hgh.UPF
     MD5 check sum: c576e69559cde411e611be972c763230
     Pseudo is Norm-conserving, Zval =  1.0
     Generated in analytical, separable form
     Using radial grid of  929 points,  0 beta functions with: 

     PseudoPot. # 2 for  O read from file:
     ./O.blyp-hgh.UPF
     MD5 check sum: d0b7156309aa9befef28faac7bc56342
     Pseudo is Norm-conserving, Zval =  6.0
     Generated in analytical, separable form
     Using radial grid of 1095 points,  1 beta functions with: 
                l(1) =   0

     atomic species   valence    mass     pseudopotential
        H              1.00     1.01000      H( 1.00)
        O              6.00    16.00000      O( 1.00)

     No symmetry found



   Cartesian axes

     site n.     atom                  positions (alat units)
         1           H   tau(   1) = (   0.4128111   0.2196116   0.1508999  )
         2           H   tau(   2) = (   0.6541335   0.3870298   0.8046033  )
         3           O   tau(   3) = (   0.3263328   0.1717316   0.1612408  )

     number of k points=     1  Marzari-Vanderbilt smearing, width (Ry)=  0.0250
                       cart. coord. in units 2pi/alat
        k(    1) = (   0.0000000   0.0000000   0.0000000), wk =   2.0000000

     Dense  grid:   177509 G-vectors     FFT dimensions: (  72,  72,  72)

     Estimated max dynamical RAM per process >       6.09Mb

     Estimated total allocated dynamical RAM >     170.64Mb

     Initial potential from superposition of free atoms
     Check: negative starting charge=   -0.350706

     starting charge    7.99998, renormalised to    8.00000

     negative rho (up, down):  3.507E-01 0.000E+00
     Starting wfc are    6 randomized atomic wfcs +    2 random wfc

     total cpu time spent up to now is        0.2 secs

     per-process dynamical memory:    18.8 Mb

     Self-consistent Calculation

     iteration #  1     ecut=    30.00 Ry     beta=0.70
     Davidson diagonalization with overlap
     ethr =  1.00E-02,  avg # of iterations =  6.0

     negative rho (up, down):  9.175E-02 0.000E+00

     total cpu time spent up to now is        0.3 secs

     total energy              =     -30.35991467 Ry
     Harris-Foulkes estimate   =     -32.23530213 Ry
     estimated scf accuracy    <       2.15851924 Ry

     iteration #  2     ecut=    30.00 Ry     beta=0.70
     Davidson diagonalization with overlap
     ethr =  1.00E-02,  avg # of iterations =  3.0

     negative rho (up, down):  6.681E-02 0.000E+00

     total cpu time spent up to now is        0.3 secs

     total energy              =     -32.28877737 Ry
     Harris-Foulkes estimate   =     -34.57994388 Ry
     estimated scf accuracy    <       5.58788356 Ry

     iteration #  3     ecut=    30.00 Ry     beta=0.70
     Davidson diagonalization with overlap
     ethr =  1.00E-02,  avg # of iterations =  3.0

     negative rho (up, down):  6.428E-02 0.000E+00

     total cpu time spent up to now is        0.4 secs

     total energy              =     -32.43880858 Ry
     Harris-Foulkes estimate   =     -32.52395053 Ry
     estimated scf accuracy    <       1.81609180 Ry

     iteration #  4     ecut=    30.00 Ry     beta=0.70
     Davidson diagonalization with overlap
     ethr =  1.00E-02,  avg # of iterations =  1.0

     negative rho (up, down):  1.261E-02 0.000E+00

     total cpu time spent up to now is        0.4 secs

     total energy              =     -31.29977390 Ry
     Harris-Foulkes estimate   =     -32.43912447 Ry
     estimated scf accuracy    <       1.69809575 Ry

     iteration #  5     ecut=    30.00 Ry     beta=0.70
     Davidson diagonalization with overlap
     ethr =  1.00E-02,  avg # of iterations =  3.0

     negative rho (up, down):  2.272E-02 0.000E+00

     total cpu time spent up to now is        0.4 secs

     total energy              =     -33.31036419 Ry
     Harris-Foulkes estimate   =     -33.18217398 Ry
     estimated scf accuracy    <       7.64046036 Ry

     iteration #  6     ecut=    30.00 Ry     beta=0.70
     Davidson diagonalization with overlap
     ethr =  1.00E-02,  avg # of iterations =  1.0

     negative rho (up, down):  1.399E-02 0.000E+00

     total cpu time spent up to now is        0.5 secs

     total energy              =     -32.92726634 Ry
     Harris-Foulkes estimate   =     -33.32078795 Ry
     estimated scf accuracy    <       9.18621370 Ry

     iteration #  7     ecut=    30.00 Ry     beta=0.70
     Davidson diagonalization with overlap
     ethr =  1.00E-02,  avg # of iterations =  1.0

     negative rho (up, down):  1.483E-02 0.000E+00

     total cpu time spent up to now is        0.5 secs

     total energy              =     -32.82045053 Ry
     Harris-Foulkes estimate   =     -33.00254275 Ry
     estimated scf accuracy    <       3.28819989 Ry

     iteration #  8     ecut=    30.00 Ry     beta=0.70
     Davidson diagonalization with overlap
     ethr =  1.00E-02,  avg # of iterations =  1.0

     negative rho (up, down):  5.513E-02 0.000E+00

     total cpu time spent up to now is        0.5 secs

     total energy              =     -32.47142135 Ry
     Harris-Foulkes estimate   =     -32.82644431 Ry
     estimated scf accuracy    <       2.80141138 Ry

     iteration #  9     ecut=    30.00 Ry     beta=0.70
     Davidson diagonalization with overlap
     ethr =  1.00E-02,  avg # of iterations =  1.0

     negative rho (up, down):  5.717E-02 0.000E+00

     total cpu time spent up to now is        0.5 secs

     total energy              =     -31.97742246 Ry
     Harris-Foulkes estimate   =     -32.47911069 Ry
     estimated scf accuracy    <       2.13044133 Ry

     iteration # 10     ecut=    30.00 Ry     beta=0.70
     Davidson diagonalization with overlap
     ethr =  1.00E-02,  avg # of iterations =  1.0

     negative rho (up, down):  4.664E-02 0.000E+00

     total cpu time spent up to now is        0.6 secs

     total energy              =     -32.30141355 Ry
     Harris-Foulkes estimate   =     -31.99618305 Ry
     estimated scf accuracy    <       1.42108859 Ry

     iteration # 11     ecut=    30.00 Ry     beta=0.70
     Davidson diagonalization with overlap
     ethr =  1.00E-02,  avg # of iterations =  1.0

     negative rho (up, down):  2.735E-02 0.000E+00

     total cpu time spent up to now is        0.6 secs

     total energy              =     -32.11001934 Ry
     Harris-Foulkes estimate   =     -32.29196404 Ry
     estimated scf accuracy    <       1.75270380 Ry

     iteration # 12     ecut=    30.00 Ry     beta=0.70
     Davidson diagonalization with overlap
     ethr =  1.00E-02,  avg # of iterations =  1.0

     negative rho (up, down):  2.432E-01 0.000E+00

     total cpu time spent up to now is        0.7 secs

     total energy              =     -31.96232570 Ry
     Harris-Foulkes estimate   =     -32.11233604 Ry
     estimated scf accuracy    <       1.45993954 Ry

     iteration # 13     ecut=    30.00 Ry     beta=0.70
     Davidson diagonalization with overlap
     ethr =  1.00E-02,  avg # of iterations =  1.0

     negative rho (up, down):  1.045E+00 0.000E+00

     total cpu time spent up to now is        0.7 secs

     total energy              =     -32.21381228 Ry
     Harris-Foulkes estimate   =     -31.96928646 Ry
     estimated scf accuracy    <       1.34349289 Ry

     iteration # 14     ecut=    30.00 Ry     beta=0.70
     Davidson diagonalization with overlap
     ethr =  1.00E-02,  avg # of iterations =  2.0

     negative rho (up, down):  3.609E-01 0.000E+00

     total cpu time spent up to now is        0.7 secs

     total energy              =     -31.18428457 Ry
     Harris-Foulkes estimate   =     -32.30098076 Ry
     estimated scf accuracy    <       2.51680325 Ry

     iteration # 15     ecut=    30.00 Ry     beta=0.70
     Davidson diagonalization with overlap
     ethr =  1.00E-02,  avg # of iterations =  3.0

     negative rho (up, down):  6.476E-02 0.000E+00

     total cpu time spent up to now is        0.8 secs

     total energy              =     -32.32452685 Ry
     Harris-Foulkes estimate   =     -32.67595103 Ry
     estimated scf accuracy    <       1.89344908 Ry

     iteration # 16     ecut=    30.00 Ry     beta=0.70
     Davidson diagonalization with overlap
     ethr =  1.00E-02,  avg # of iterations =  1.0

     negative rho (up, down):  9.084E-03 0.000E+00

     total cpu time spent up to now is        0.8 secs

     total energy              =     -32.16007380 Ry
     Harris-Foulkes estimate   =     -32.32747056 Ry
     estimated scf accuracy    <       1.41612174 Ry

     iteration # 17     ecut=    30.00 Ry     beta=0.70
     Davidson diagonalization with overlap
     ethr =  1.00E-02,  avg # of iterations =  1.0

     negative rho (up, down):  7.166E-03 0.000E+00

     total cpu time spent up to now is        0.8 secs

     total energy              =     -32.11156137 Ry
     Harris-Foulkes estimate   =     -32.15235558 Ry
     estimated scf accuracy    <       1.20380676 Ry

     iteration # 18     ecut=    30.00 Ry     beta=0.70
     Davidson diagonalization with overlap
     ethr =  1.00E-02,  avg # of iterations =  1.0

     negative rho (up, down):  8.474E-03 0.000E+00

     total cpu time spent up to now is        0.9 secs

     total energy              =     -32.17940812 Ry
     Harris-Foulkes estimate   =     -32.11168524 Ry
     estimated scf accuracy    <       1.14414980 Ry

     iteration # 19     ecut=    30.00 Ry     beta=0.70
     Davidson diagonalization with overlap
     ethr =  1.00E-02,  avg # of iterations =  1.0

     negative rho (up, down):  8.325E-03 0.000E+00

     total cpu time spent up to now is        0.9 secs

     total energy              =     -32.26282184 Ry
     Harris-Foulkes estimate   =     -32.17952414 Ry
     estimated scf accuracy    <       1.23671528 Ry

     iteration # 20     ecut=    30.00 Ry     beta=0.70
     Davidson diagonalization with overlap
     ethr =  1.00E-02,  avg # of iterations =  1.0

     negative rho (up, down):  1.371E-02 0.000E+00

     total cpu time spent up to now is        0.9 secs

     total energy              =     -32.16715507 Ry
     Harris-Foulkes estimate   =     -32.26302818 Ry
     estimated scf accuracy    <       1.35441655 Ry

     iteration # 21     ecut=    30.00 Ry     beta=0.70
     Davidson diagonalization with overlap
     ethr =  1.00E-02,  avg # of iterations =  1.0

     negative rho (up, down):  2.915E-02 0.000E+00

     total cpu time spent up to now is        0.9 secs

     total energy              =     -32.32253084 Ry
     Harris-Foulkes estimate   =     -32.16780312 Ry
     estimated scf accuracy    <       1.20559218 Ry

     iteration # 22     ecut=    30.00 Ry     beta=0.70
     Davidson diagonalization with overlap
     ethr =  1.00E-02,  avg # of iterations =  1.0

     negative rho (up, down):  4.240E-01 0.000E+00

     total cpu time spent up to now is        1.0 secs

     total energy              =     -31.22572533 Ry
     Harris-Foulkes estimate   =     -32.33147625 Ry
     estimated scf accuracy    <       1.42566517 Ry

     iteration # 23     ecut=    30.00 Ry     beta=0.70
     Davidson diagonalization with overlap
     ethr =  1.00E-02,  avg # of iterations =  5.0

     negative rho (up, down):  3.152E-01 0.000E+00

     total cpu time spent up to now is        1.0 secs

     total energy              =     -35.53084841 Ry
     Harris-Foulkes estimate   =     -36.72673051 Ry
     estimated scf accuracy    <      27.83490810 Ry

     iteration # 24     ecut=    30.00 Ry     beta=0.70
     Davidson diagonalization with overlap
     ethr =  1.00E-02,  avg # of iterations =  1.0

     negative rho (up, down):  1.524E-01 0.000E+00

     total cpu time spent up to now is        1.1 secs

     total energy              =     -34.20761914 Ry
     Harris-Foulkes estimate   =     -35.55627075 Ry
     estimated scf accuracy    <      25.99685940 Ry

     iteration # 25     ecut=    30.00 Ry     beta=0.70
     Davidson diagonalization with overlap
     ethr =  1.00E-02,  avg # of iterations =  1.0

     negative rho (up, down):  4.133E-02 0.000E+00

     total cpu time spent up to now is        1.1 secs

     total energy              =     -31.99405241 Ry
     Harris-Foulkes estimate   =     -34.33673043 Ry
     estimated scf accuracy    <      12.20812425 Ry

     iteration # 26     ecut=    30.00 Ry     beta=0.70
     Davidson diagonalization with overlap
     ethr =  1.00E-02,  avg # of iterations =  3.0

     negative rho (up, down):  3.522E-02 0.000E+00

     total cpu time spent up to now is        1.1 secs

     total energy              =     -32.15475412 Ry
     Harris-Foulkes estimate   =     -32.07841177 Ry
     estimated scf accuracy    <       7.51428331 Ry

     iteration # 27     ecut=    30.00 Ry     beta=0.70
     Davidson diagonalization with overlap
     ethr =  1.00E-02,  avg # of iterations =  1.0

     negative rho (up, down):  3.544E-02 0.000E+00

     total cpu time spent up to now is        1.2 secs

     total energy              =     -32.15865921 Ry
     Harris-Foulkes estimate   =     -32.15841718 Ry
     estimated scf accuracy    <       7.62939965 Ry

     iteration # 28     ecut=    30.00 Ry     beta=0.70
     Davidson diagonalization with overlap
     ethr =  1.00E-02,  avg # of iterations =  1.0

     negative rho (up, down):  3.773E-02 0.000E+00

     total cpu time spent up to now is        1.2 secs

     total energy              =     -31.95064384 Ry
     Harris-Foulkes estimate   =     -32.16021185 Ry
     estimated scf accuracy    <       7.60700950 Ry

     iteration # 29     ecut=    30.00 Ry     beta=0.70
     Davidson diagonalization with overlap
     ethr =  1.00E-02,  avg # of iterations =  1.0

     negative rho (up, down):  5.273E-02 0.000E+00

     total cpu time spent up to now is        1.2 secs

     total energy              =     -32.00470480 Ry
     Harris-Foulkes estimate   =     -31.95950056 Ry
     estimated scf accuracy    <       7.12855290 Ry

     iteration # 30     ecut=    30.00 Ry     beta=0.70
     Davidson diagonalization with overlap
     ethr =  1.00E-02,  avg # of iterations =  1.0

     negative rho (up, down):  6.799E-02 0.000E+00

     total cpu time spent up to now is        1.3 secs

     total energy              =     -31.32158329 Ry
     Harris-Foulkes estimate   =     -32.00682154 Ry
     estimated scf accuracy    <       7.17581155 Ry

     iteration # 31     ecut=    30.00 Ry     beta=0.70
     Davidson diagonalization with overlap
     ethr =  1.00E-02,  avg # of iterations =  5.0

     negative rho (up, down):  4.292E-01 0.000E+00

     total cpu time spent up to now is        1.3 secs

     total energy              =     -30.99930594 Ry
     Harris-Foulkes estimate   =     -32.09096686 Ry
     estimated scf accuracy    <       1.63051936 Ry

     iteration # 32     ecut=    30.00 Ry     beta=0.70
     Davidson diagonalization with overlap
     ethr =  1.00E-02,  avg # of iterations =  7.0

     negative rho (up, down):  1.599E-01 0.000E+00

     total cpu time spent up to now is        1.3 secs

     total energy              =     -32.36686478 Ry
     Harris-Foulkes estimate   =     -33.48355189 Ry
     estimated scf accuracy    <       3.67400596 Ry

     iteration # 33     ecut=    30.00 Ry     beta=0.70
     Davidson diagonalization with overlap
     ethr =  1.00E-02,  avg # of iterations =  1.0

     negative rho (up, down):  1.177E-01 0.000E+00

     total cpu time spent up to now is        1.4 secs

     total energy              =     -32.14385699 Ry
     Harris-Foulkes estimate   =     -32.42210110 Ry
     estimated scf accuracy    <       1.78538982 Ry

     iteration # 34     ecut=    30.00 Ry     beta=0.70
     Davidson diagonalization with overlap
     ethr =  1.00E-02,  avg # of iterations =  1.0

     negative rho (up, down):  5.539E-02 0.000E+00

     total cpu time spent up to now is        1.4 secs

     total energy              =     -32.01859634 Ry
     Harris-Foulkes estimate   =     -32.14368911 Ry
     estimated scf accuracy    <       1.32950595 Ry

     iteration # 35     ecut=    30.00 Ry     beta=0.70
     Davidson diagonalization with overlap
     ethr =  1.00E-02,  avg # of iterations =  1.0

     negative rho (up, down):  2.001E-03 0.000E+00

     total cpu time spent up to now is        1.4 secs

     total energy              =     -31.84947068 Ry
     Harris-Foulkes estimate   =     -32.02042370 Ry
     estimated scf accuracy    <       1.10117238 Ry

     iteration # 36     ecut=    30.00 Ry     beta=0.70
     Davidson diagonalization with overlap
     ethr =  1.00E-02,  avg # of iterations =  1.0

     negative rho (up, down):  7.232E-04 0.000E+00

     total cpu time spent up to now is        1.5 secs

     total energy              =     -32.02402181 Ry
     Harris-Foulkes estimate   =     -32.03761513 Ry
     estimated scf accuracy    <       1.32973793 Ry

     iteration # 37     ecut=    30.00 Ry     beta=0.70
     Davidson diagonalization with overlap
     ethr =  1.00E-02,  avg # of iterations =  1.0

     negative rho (up, down):  5.613E-05 0.000E+00

     total cpu time spent up to now is        1.5 secs

     total energy              =     -32.05922727 Ry
     Harris-Foulkes estimate   =     -32.02462041 Ry
     estimated scf accuracy    <       1.31206612 Ry

     iteration # 38     ecut=    30.00 Ry     beta=0.70
     Davidson diagonalization with overlap
     ethr =  1.00E-02,  avg # of iterations =  1.0

     total cpu time spent up to now is        1.5 secs

     total energy              =     -32.11262950 Ry
     Harris-Foulkes estimate   =     -32.05961708 Ry
     estimated scf accuracy    <       1.35635282 Ry

     iteration # 39     ecut=    30.00 Ry     beta=0.70
     Davidson diagonalization with overlap
     ethr =  1.00E-02,  avg # of iterations =  1.0

     negative rho (up, down):  1.083E-02 0.000E+00

     total cpu time spent up to now is        1.6 secs

     total energy              =     -31.98834388 Ry
     Harris-Foulkes estimate   =     -32.11309797 Ry
     estimated scf accuracy    <       1.45225492 Ry

     iteration # 40     ecut=    30.00 Ry     beta=0.70
     Davidson diagonalization with overlap
     ethr =  1.00E-02,  avg # of iterations =  1.0

     negative rho (up, down):  1.450E-03 0.000E+00

     total cpu time spent up to now is        1.6 secs

     total energy              =     -32.01632780 Ry
     Harris-Foulkes estimate   =     -31.98977276 Ry
     estimated scf accuracy    <       1.52546287 Ry

     iteration # 41     ecut=    30.00 Ry     beta=0.70
     Davidson diagonalization with overlap
     ethr =  1.00E-02,  avg # of iterations =  1.0

     negative rho (up, down):  9.033E-04 0.000E+00

     total cpu time spent up to now is        1.7 secs

     total energy              =     -31.99617526 Ry
     Harris-Foulkes estimate   =     -32.01542241 Ry
     estimated scf accuracy    <       1.29974605 Ry

     iteration # 42     ecut=    30.00 Ry     beta=0.70
     Davidson diagonalization with overlap
     ethr =  1.00E-02,  avg # of iterations =  1.0

     negative rho (up, down):  1.800E-04 0.000E+00

     total cpu time spent up to now is        1.7 secs

     total energy              =     -31.97424781 Ry
     Harris-Foulkes estimate   =     -31.99576905 Ry
     estimated scf accuracy    <       1.45121578 Ry

     iteration # 43     ecut=    30.00 Ry     beta=0.70
     Davidson diagonalization with overlap
     ethr =  1.00E-02,  avg # of iterations =  1.0

     negative rho (up, down):  6.214E-03 0.000E+00

     total cpu time spent up to now is        1.7 secs

     total energy              =     -31.93221792 Ry
     Harris-Foulkes estimate   =     -31.97336247 Ry
     estimated scf accuracy    <       1.54550535 Ry

     iteration # 44     ecut=    30.00 Ry     beta=0.70
     Davidson diagonalization with overlap
     ethr =  1.00E-02,  avg # of iterations =  1.0

     negative rho (up, down):  2.389E-03 0.000E+00

     total cpu time spent up to now is        1.8 secs

     total energy              =     -31.94349389 Ry
     Harris-Foulkes estimate   =     -31.94651985 Ry
     estimated scf accuracy    <       0.04753079 Ry

     iteration # 45     ecut=    30.00 Ry     beta=0.70
     Davidson diagonalization with overlap
     ethr =  5.94E-04,  avg # of iterations =  1.0

     negative rho (up, down):  4.959E-06 0.000E+00

     total cpu time spent up to now is        1.8 secs

     total energy              =     -31.94788857 Ry
     Harris-Foulkes estimate   =     -31.94684352 Ry
     estimated scf accuracy    <       0.07071682 Ry

     iteration # 46     ecut=    30.00 Ry     beta=0.70
     Davidson diagonalization with overlap
     ethr =  5.94E-04,  avg # of iterations =  1.0

     negative rho (up, down):  2.174E-05 0.000E+00

     total cpu time spent up to now is        1.8 secs

     total energy              =     -31.94874369 Ry
     Harris-Foulkes estimate   =     -31.94811477 Ry
     estimated scf accuracy    <       0.14738868 Ry

     iteration # 47     ecut=    30.00 Ry     beta=0.70
     Davidson diagonalization with overlap
     ethr =  5.94E-04,  avg # of iterations =  1.0

     negative rho (up, down):  2.425E-05 0.000E+00

     total cpu time spent up to now is        1.9 secs

     total energy              =     -31.94830405 Ry
     Harris-Foulkes estimate   =     -31.94878651 Ry
     estimated scf accuracy    <       0.18915656 Ry

     iteration # 48     ecut=    30.00 Ry     beta=0.70
     Davidson diagonalization with overlap
     ethr =  5.94E-04,  avg # of iterations =  1.0

     negative rho (up, down):  1.260E-05 0.000E+00

     total cpu time spent up to now is        1.9 secs

     total energy              =     -31.94411171 Ry
     Harris-Foulkes estimate   =     -31.94832291 Ry
     estimated scf accuracy    <       0.16066349 Ry

     iteration # 49     ecut=    30.00 Ry     beta=0.70
     Davidson diagonalization with overlap
     ethr =  5.94E-04,  avg # of iterations =  1.0

     negative rho (up, down):  5.530E-06 0.000E+00

     total cpu time spent up to now is        1.9 secs

     total energy              =     -31.94593742 Ry
     Harris-Foulkes estimate   =     -31.94598011 Ry
     estimated scf accuracy    <       0.00084228 Ry

     iteration # 50     ecut=    30.00 Ry     beta=0.70
     Davidson diagonalization with overlap
     ethr =  1.05E-05,  avg # of iterations = 15.0

     total cpu time spent up to now is        2.0 secs

     total energy              =     -31.94596342 Ry
     Harris-Foulkes estimate   =     -31.94598052 Ry
     estimated scf accuracy    <       0.00082671 Ry

     iteration # 51     ecut=    30.00 Ry     beta=0.70
     Davidson diagonalization with overlap
     ethr =  1.03E-05,  avg # of iterations =  1.0

     total cpu time spent up to now is        2.0 secs

     total energy              =     -31.94596949 Ry
     Harris-Foulkes estimate   =     -31.94597037 Ry
     estimated scf accuracy    <       0.00003040 Ry

     iteration # 52     ecut=    30.00 Ry     beta=0.70
     Davidson diagonalization with overlap
     ethr =  3.80E-07,  avg # of iterations =  6.0

     total cpu time spent up to now is        2.0 secs

     total energy              =     -31.94596971 Ry
     Harris-Foulkes estimate   =     -31.94597001 Ry
     estimated scf accuracy    <       0.00000022 Ry

     iteration # 53     ecut=    30.00 Ry     beta=0.70
     Davidson diagonalization with overlap
     ethr =  2.70E-09,  avg # of iterations =  1.0

     total cpu time spent up to now is        2.1 secs

     total energy              =     -31.94596969 Ry
     Harris-Foulkes estimate   =     -31.94596973 Ry
     estimated scf accuracy    <       0.00000106 Ry

     iteration # 54     ecut=    30.00 Ry     beta=0.70
     Davidson diagonalization with overlap
     ethr =  2.70E-09,  avg # of iterations =  1.0

     total cpu time spent up to now is        2.1 secs

     total energy              =     -31.94596969 Ry
     Harris-Foulkes estimate   =     -31.94596970 Ry
     estimated scf accuracy    <       0.00000014 Ry

     iteration # 55     ecut=    30.00 Ry     beta=0.70
     Davidson diagonalization with overlap
     ethr =  1.69E-09,  avg # of iterations =  1.0

     total cpu time spent up to now is        2.1 secs

     End of self-consistent calculation

          k = 0.0000 0.0000 0.0000 ( 22119 PWs)   bands (ev):

   -24.8284 -10.6717  -7.0804  -7.0797  -6.9413  -0.7225   0.2864   0.8113

     the Fermi energy is    -6.9099 ev

!    total energy              =     -31.94596970 Ry
     Harris-Foulkes estimate   =     -31.94596969 Ry
     estimated scf accuracy    <          1.3E-09 Ry

     convergence has been achieved in  55 iterations

     Forces acting on atoms (Ry/au):

     atom    1 type  1   force =     0.01508436    0.00852663   -0.00151674
     atom    2 type  1   force =     0.00014179   -0.00012731    0.00008709
     atom    3 type  2   force =    -0.01522614   -0.00839932    0.00142965

     Total force =     0.024638     Total SCF correction =     0.000056

     Molecular Dynamics Calculation

     Starting temperature  =  1000.00 K

     temperature is controlled by Andersen thermostat
     Collision frequency = 1.0000/timestep
     mass H                =     1.01
     mass O                =    16.00
     Time step             =   100.00 a.u.,  4.8378 femto-seconds

     Entering Dynamics:    iteration =     1
                           time      =   0.0048 pico-seconds


     Andersen thermostat:    3 collisions

ATOMIC_POSITIONS (bohr)
H        8.526600271   4.685103677   2.706333384
H       13.017850594   8.079270958  15.809636570
O        6.513679970   3.394765682   3.262319123


     kinetic energy (Ekin) =     0.01989335 Ry
     temperature           =  1046.96910849 K 
     Ekin + Etot (const)   =   -31.92607635 Ry

     Linear momentum :    0.0000000000   -0.0000000000   -0.0000000000

     Writing output data file pwscf.save
     Check: negative starting charge=   -0.350706
     NEW-OLD atomic charge density approx. for the potential
     Check: negative starting charge=   -0.348002

     negative rho (up, down):  1.093E-01 0.000E+00

     total cpu time spent up to now is        2.4 secs

     per-process dynamical memory:    20.4 Mb

     Self-consistent Calculation

     iteration #  1     ecut=    30.00 Ry     beta=0.70
     Davidson diagonalization with overlap
     c_bands:  1 eigenvalues not converged
     ethr =  1.00E-06,  avg # of iterations = 20.0

     negative rho (up, down):  2.674E-02 0.000E+00

     total cpu time spent up to now is        2.5 secs

     total energy              =     -30.64655074 Ry
     Harris-Foulkes estimate   =     -31.83941981 Ry
     estimated scf accuracy    <       1.53880187 Ry

     iteration #  2     ecut=    30.00 Ry     beta=0.70
     Davidson diagonalization with overlap
     ethr =  1.00E-02,  avg # of iterations =  3.0

     negative rho (up, down):  2.004E-02 0.000E+00

     total cpu time spent up to now is        2.6 secs

     total energy              =     -32.23621520 Ry
     Harris-Foulkes estimate   =     -34.30673373 Ry
     estimated scf accuracy    <       5.45177816 Ry

     iteration #  3     ecut=    30.00 Ry     beta=0.70
     Davidson diagonalization with overlap
     ethr =  1.00E-02,  avg # of iterations =  4.0

     negative rho (up, down):  1.704E-02 0.000E+00

     total cpu time spent up to now is        2.6 secs

     total energy              =     -32.18328433 Ry
     Harris-Foulkes estimate   =     -32.47878410 Ry
     estimated scf accuracy    <       1.77537643 Ry

     iteration #  4     ecut=    30.00 Ry     beta=0.70
     Davidson diagonalization with overlap
     ethr =  1.00E-02,  avg # of iterations =  1.0

     negative rho (up, down):  1.301E-02 0.000E+00

     total cpu time spent up to now is        2.7 secs

     total energy              =     -31.83383663 Ry
     Harris-Foulkes estimate   =     -32.18475979 Ry
     estimated scf accuracy    <       1.39032506 Ry

     iteration #  5     ecut=    30.00 Ry     beta=0.70
     Davidson diagonalization with overlap
     ethr =  1.00E-02,  avg # of iterations =  2.0

     negative rho (up, down):  1.195E-03 0.000E+00

     total cpu time spent up to now is        2.7 secs

     total energy              =     -31.79145957 Ry
     Harris-Foulkes estimate   =     -31.89211055 Ry
     estimated scf accuracy    <       1.15815300 Ry

     iteration #  6     ecut=    30.00 Ry     beta=0.70
     Davidson diagonalization with overlap
     ethr =  1.00E-02,  avg # of iterations =  1.0

     negative rho (up, down):  2.269E-04 0.000E+00

     total cpu time spent up to now is        2.7 secs

     total energy              =     -31.92437133 Ry
     Harris-Foulkes estimate   =     -31.94836681 Ry
     estimated scf accuracy    <       0.98942860 Ry

     iteration #  7     ecut=    30.00 Ry     beta=0.70
     Davidson diagonalization with overlap
     ethr =  1.00E-02,  avg # of iterations =  1.0

     negative rho (up, down):  3.165E-05 0.000E+00

     total cpu time spent up to now is        2.8 secs

     total energy              =     -31.80162614 Ry
     Harris-Foulkes estimate   =     -31.92444038 Ry
     estimated scf accuracy    <       0.95861947 Ry

     iteration #  8     ecut=    30.00 Ry     beta=0.70
     Davidson diagonalization with overlap
     ethr =  1.00E-02,  avg # of iterations =  1.0

     negative rho (up, down):  7.918E-07 0.000E+00

     total cpu time spent up to now is        2.8 secs

     total energy              =     -31.96944074 Ry
     Harris-Foulkes estimate   =     -31.96026381 Ry
     estimated scf accuracy    <       1.27459565 Ry

     iteration #  9     ecut=    30.00 Ry     beta=0.70
     Davidson diagonalization with overlap
     ethr =  1.00E-02,  avg # of iterations =  1.0

     negative rho (up, down):  2.220E-06 0.000E+00

     total cpu time spent up to now is        2.8 secs

     total energy              =     -31.97283737 Ry
     Harris-Foulkes estimate   =     -31.96948057 Ry
     estimated scf accuracy    <       1.27890675 Ry

     iteration # 10     ecut=    30.00 Ry     beta=0.70
     Davidson diagonalization with overlap
     ethr =  1.00E-02,  avg # of iterations =  1.0

     negative rho (up, down):  2.854E-06 0.000E+00

     total cpu time spent up to now is        2.9 secs

     total energy              =     -31.93221065 Ry
     Harris-Foulkes estimate   =     -31.97284633 Ry
     estimated scf accuracy    <       1.28570592 Ry

     iteration # 11     ecut=    30.00 Ry     beta=0.70
     Davidson diagonalization with overlap
     ethr =  1.00E-02,  avg # of iterations =  1.0

     negative rho (up, down):  1.660E-06 0.000E+00

     total cpu time spent up to now is        2.9 secs

     total energy              =     -31.86729380 Ry
     Harris-Foulkes estimate   =     -31.93112065 Ry
     estimated scf accuracy    <       1.50827764 Ry

     iteration # 12     ecut=    30.00 Ry     beta=0.70
     Davidson diagonalization with overlap
     ethr =  1.00E-02,  avg # of iterations =  1.0

     negative rho (up, down):  1.268E-07 0.000E+00

     total cpu time spent up to now is        2.9 secs

     total energy              =     -31.88682527 Ry
     Harris-Foulkes estimate   =     -31.88727347 Ry
     estimated scf accuracy    <       0.00178359 Ry

     iteration # 13     ecut=    30.00 Ry     beta=0.70
     Davidson diagonalization with overlap
     ethr =  2.23E-05,  avg # of iterations =  8.0

     negative rho (up, down):  2.463E-08 0.000E+00

     total cpu time spent up to now is        3.0 secs

     total energy              =     -31.88927965 Ry
     Harris-Foulkes estimate   =     -31.88946505 Ry
     estimated scf accuracy    <       0.17854124 Ry

     iteration # 14     ecut=    30.00 Ry     beta=0.70
     Davidson diagonalization with overlap
     ethr =  2.23E-05,  avg # of iterations =  1.0

     negative rho (up, down):  4.106E-08 0.000E+00

     total cpu time spent up to now is        3.0 secs

     total energy              =     -31.88932982 Ry
     Harris-Foulkes estimate   =     -31.88928429 Ry
     estimated scf accuracy    <       0.16404453 Ry

     iteration # 15     ecut=    30.00 Ry     beta=0.70
     Davidson diagonalization with overlap
     ethr =  2.23E-05,  avg # of iterations =  1.0

     total cpu time spent up to now is        3.1 secs

     total energy              =     -31.88891334 Ry
     Harris-Foulkes estimate   =     -31.88933116 Ry
     estimated scf accuracy    <       0.16754766 Ry

     iteration # 16     ecut=    30.00 Ry     beta=0.70
     Davidson diagonalization with overlap
     ethr =  2.23E-05,  avg # of iterations =  1.0

     negative rho (up, down):  1.704E-07 0.000E+00

     total cpu time spent up to now is        3.1 secs

     total energy              =     -31.88658909 Ry
     Harris-Foulkes estimate   =     -31.88893470 Ry
     estimated scf accuracy    <       0.13514673 Ry

     iteration # 17     ecut=    30.00 Ry     beta=0.70
     Davidson diagonalization with overlap
     ethr =  2.23E-05,  avg # of iterations =  1.0

     negative rho (up, down):  2.712E-08 0.000E+00

     total cpu time spent up to now is        3.1 secs

     total energy              =     -31.88802978 Ry
     Harris-Foulkes estimate   =     -31.88740602 Ry
     estimated scf accuracy    <       0.01190401 Ry

     iteration # 18     ecut=    30.00 Ry     beta=0.70
     Davidson diagonalization with overlap
     ethr =  2.23E-05,  avg # of iterations =  1.0

     negative rho (up, down):  2.565E-08 0.000E+00

     total cpu time spent up to now is        3.2 secs

     total energy              =     -31.88348509 Ry
     Harris-Foulkes estimate   =     -31.88865567 Ry
     estimated scf accuracy    <       0.11294830 Ry

     iteration # 19     ecut=    30.00 Ry     beta=0.70
     Davidson diagonalization with overlap
     ethr =  2.23E-05,  avg # of iterations =  1.0

     total cpu time spent up to now is        3.2 secs

     total energy              =     -31.88649916 Ry
     Harris-Foulkes estimate   =     -31.88824327 Ry
     estimated scf accuracy    <       0.07162596 Ry

     iteration # 20     ecut=    30.00 Ry     beta=0.70
     Davidson diagonalization with overlap
     ethr =  2.23E-05,  avg # of iterations =  1.0

     total cpu time spent up to now is        3.2 secs

     total energy              =     -31.88726471 Ry
     Harris-Foulkes estimate   =     -31.88726568 Ry
     estimated scf accuracy    <       0.00067777 Ry

     iteration # 21     ecut=    30.00 Ry     beta=0.70
     Davidson diagonalization with overlap
     ethr =  8.47E-06,  avg # of iterations =  1.0

     total cpu time spent up to now is        3.3 secs

     total energy              =     -31.88725520 Ry
     Harris-Foulkes estimate   =     -31.88726494 Ry
     estimated scf accuracy    <       0.00059808 Ry

     iteration # 22     ecut=    30.00 Ry     beta=0.70
     Davidson diagonalization with overlap
     ethr =  7.48E-06,  avg # of iterations =  1.0

     total cpu time spent up to now is        3.3 secs

     total energy              =     -31.88725717 Ry
     Harris-Foulkes estimate   =     -31.88725841 Ry
     estimated scf accuracy    <       0.00007441 Ry

     iteration # 23     ecut=    30.00 Ry     beta=0.70
     Davidson diagonalization with overlap
     ethr =  9.30E-07,  avg # of iterations =  1.0

     total cpu time spent up to now is        3.3 secs

     total energy              =     -31.88725743 Ry
     Harris-Foulkes estimate   =     -31.88725757 Ry
     estimated scf accuracy    <       0.00000925 Ry

     iteration # 24     ecut=    30.00 Ry     beta=0.70
     Davidson diagonalization with overlap
     ethr =  1.16E-07,  avg # of iterations =  1.0

     total cpu time spent up to now is        3.4 secs

     total energy              =     -31.88725740 Ry
     Harris-Foulkes estimate   =     -31.88725748 Ry
     estimated scf accuracy    <       0.00000093 Ry

     iteration # 25     ecut=    30.00 Ry     beta=0.70
     Davidson diagonalization with overlap
     ethr =  1.17E-08,  avg # of iterations =  1.0

     total cpu time spent up to now is        3.4 secs

     total energy              =     -31.88725740 Ry
     Harris-Foulkes estimate   =     -31.88725742 Ry
     estimated scf accuracy    <       0.00000004 Ry

     iteration # 26     ecut=    30.00 Ry     beta=0.70
     Davidson diagonalization with overlap
     ethr =  4.72E-10,  avg # of iterations =  1.0

     total cpu time spent up to now is        3.4 secs

     total energy              =     -31.88725741 Ry
     Harris-Foulkes estimate   =     -31.88725741 Ry
     estimated scf accuracy    <       0.00000031 Ry

     iteration # 27     ecut=    30.00 Ry     beta=0.70
     Davidson diagonalization with overlap
     ethr =  4.72E-10,  avg # of iterations =  1.0

     total cpu time spent up to now is        3.5 secs

     total energy              =     -31.88725742 Ry
     Harris-Foulkes estimate   =     -31.88725741 Ry
     estimated scf accuracy    <       0.00000025 Ry

     iteration # 28     ecut=    30.00 Ry     beta=0.70
     Davidson diagonalization with overlap
     ethr =  4.72E-10,  avg # of iterations =  1.0

     total cpu time spent up to now is        3.5 secs

     total energy              =     -31.88725736 Ry
     Harris-Foulkes estimate   =     -31.88725743 Ry
     estimated scf accuracy    <       0.00000001 Ry

     iteration # 29     ecut=    30.00 Ry     beta=0.70
     Davidson diagonalization with overlap
     ethr =  1.69E-10,  avg # of iterations =  1.0

     total cpu time spent up to now is        3.5 secs

     End of self-consistent calculation

          k = 0.0000 0.0000 0.0000 ( 22119 PWs)   bands (ev):

   -24.0463  -9.9161  -7.0031  -7.0028  -6.8681  -1.7869   0.0447   0.8239

     the Fermi energy is    -6.8341 ev

!    total energy              =     -31.88725734 Ry
     Harris-Foulkes estimate   =     -31.88725736 Ry
     estimated scf accuracy    <          2.6E-09 Ry

     convergence has been achieved in  29 iterations

     Forces acting on atoms (Ry/au):

     atom    1 type  1   force =    -0.15927116   -0.10192709    0.04462567
     atom    2 type  1   force =     0.00002925   -0.00025647    0.00029070
     atom    3 type  2   force =     0.15924190    0.10218357   -0.04491637

     Total force =     0.274891     Total SCF correction =     0.000048

     Entering Dynamics:    iteration =     2
                           time      =   0.0097 pico-seconds


     Andersen thermostat:    3 collisions

ATOMIC_POSITIONS (bohr)
H        6.756647028   2.966765728   3.070080829
H       13.091194452   7.591906428  15.754922118
O        6.620778438   3.534000651   3.242811416


     kinetic energy (Ekin) =     0.12269468 Ry
     temperature           =  6457.31131090 K 
     Ekin + Etot (const)   =   -31.76456267 Ry
     Message from routine dynamics:
     Total linear momentum <> 0

     Linear momentum :    0.2201519779    0.0849447722   -0.0269998274

     Writing output data file pwscf.save

     first order wave-functions extrapolation
     Check: negative starting charge=   -0.348002
     first order charge density extrapolation
     Check: negative starting charge=   -0.353119

     negative rho (up, down):  5.709E-01 0.000E+00

     total cpu time spent up to now is        3.9 secs

     per-process dynamical memory:    20.4 Mb

     Self-consistent Calculation

     iteration #  1     ecut=    30.00 Ry     beta=0.70
     Davidson diagonalization with overlap
     ethr =  1.00E-06,  avg # of iterations = 14.0

     negative rho (up, down):  1.142E-01 0.000E+00

     total cpu time spent up to now is        4.0 secs

     total energy              =      41.32515390 Ry
     Harris-Foulkes estimate   =    -295.04968563 Ry
     estimated scf accuracy    <      12.06563286 Ry

     iteration #  2     ecut=    30.00 Ry     beta=0.70
     Davidson diagonalization with overlap
     ethr =  1.00E-02,  avg # of iterations =  5.0

     negative rho (up, down):  7.432E-02 0.000E+00

     total cpu time spent up to now is        4.0 secs

     total energy              =     -26.59972397 Ry
     Harris-Foulkes estimate   =     -33.18092723 Ry
     estimated scf accuracy    <      13.52628623 Ry

     iteration #  3     ecut=    30.00 Ry     beta=0.70
     Davidson diagonalization with overlap
     ethr =  1.00E-02,  avg # of iterations =  4.0

     negative rho (up, down):  5.635E-02 0.000E+00

     total cpu time spent up to now is        4.1 secs

     total energy              =     -17.29250365 Ry
     Harris-Foulkes estimate   =     -27.17254592 Ry
     estimated scf accuracy    <       3.61906901 Ry

     iteration #  4     ecut=    30.00 Ry     beta=0.70
     Davidson diagonalization with overlap
     ethr =  1.00E-02,  avg # of iterations =  3.0

     negative rho (up, down):  2.758E-02 0.000E+00

     total cpu time spent up to now is        4.1 secs

     total energy              =     -24.49576521 Ry
     Harris-Foulkes estimate   =     -26.50402544 Ry
     estimated scf accuracy    <       4.08502739 Ry

     iteration #  5     ecut=    30.00 Ry     beta=0.70
     Davidson diagonalization with overlap
     ethr =  1.00E-02,  avg # of iterations =  2.0

     negative rho (up, down):  2.818E-02 0.000E+00

     total cpu time spent up to now is        4.2 secs

     total energy              =     -24.63858202 Ry
     Harris-Foulkes estimate   =     -25.19605389 Ry
     estimated scf accuracy    <       2.52055175 Ry

     iteration #  6     ecut=    30.00 Ry     beta=0.70
     Davidson diagonalization with overlap
     ethr =  1.00E-02,  avg # of iterations =  2.0

     negative rho (up, down):  1.182E-02 0.000E+00

     total cpu time spent up to now is        4.2 secs

     total energy              =     -24.36709145 Ry
     Harris-Foulkes estimate   =     -24.88061775 Ry
     estimated scf accuracy    <       1.56900001 Ry

     iteration #  7     ecut=    30.00 Ry     beta=0.70
     Davidson diagonalization with overlap
     ethr =  1.00E-02,  avg # of iterations =  1.0

     negative rho (up, down):  1.116E-02 0.000E+00

     total cpu time spent up to now is        4.2 secs

     total energy              =     -24.86121700 Ry
     Harris-Foulkes estimate   =     -24.89080694 Ry
     estimated scf accuracy    <       1.96378732 Ry

     iteration #  8     ecut=    30.00 Ry     beta=0.70
     Davidson diagonalization with overlap
     ethr =  1.00E-02,  avg # of iterations =  1.0

     negative rho (up, down):  8.885E-03 0.000E+00

     total cpu time spent up to now is        4.3 secs

     total energy              =     -24.77235977 Ry
     Harris-Foulkes estimate   =     -24.86253075 Ry
     estimated scf accuracy    <       1.91559229 Ry

     iteration #  9     ecut=    30.00 Ry     beta=0.70
     Davidson diagonalization with overlap
     ethr =  1.00E-02,  avg # of iterations =  1.0

     negative rho (up, down):  4.856E-04 0.000E+00

     total cpu time spent up to now is        4.3 secs

     total energy              =     -24.44891093 Ry
     Harris-Foulkes estimate   =     -24.77265126 Ry
     estimated scf accuracy    <       1.76009184 Ry

     iteration # 10     ecut=    30.00 Ry     beta=0.70
     Davidson diagonalization with overlap
     ethr =  1.00E-02,  avg # of iterations =  1.0

     negative rho (up, down):  1.337E-06 0.000E+00

     total cpu time spent up to now is        4.3 secs

     total energy              =     -24.55301030 Ry
     Harris-Foulkes estimate   =     -24.62939364 Ry
     estimated scf accuracy    <       0.91159822 Ry

     iteration # 11     ecut=    30.00 Ry     beta=0.70
     Davidson diagonalization with overlap
     ethr =  1.00E-02,  avg # of iterations =  1.0

     negative rho (up, down):  4.053E-07 0.000E+00

     total cpu time spent up to now is        4.4 secs

     total energy              =     -24.56832358 Ry
     Harris-Foulkes estimate   =     -24.56584020 Ry
     estimated scf accuracy    <       0.00966210 Ry

     iteration # 12     ecut=    30.00 Ry     beta=0.70
     Davidson diagonalization with overlap
     ethr =  1.21E-04,  avg # of iterations =  9.0

     negative rho (up, down):  4.100E-05 0.000E+00

     total cpu time spent up to now is        4.4 secs

     total energy              =     -24.45928991 Ry
     Harris-Foulkes estimate   =     -24.57623224 Ry
     estimated scf accuracy    <       0.50817146 Ry

     iteration # 13     ecut=    30.00 Ry     beta=0.70
     Davidson diagonalization with overlap
     ethr =  1.21E-04,  avg # of iterations =  4.0

     negative rho (up, down):  9.722E-06 0.000E+00

     total cpu time spent up to now is        4.5 secs

     total energy              =     -24.57288982 Ry
     Harris-Foulkes estimate   =     -24.75314677 Ry
     estimated scf accuracy    <       1.69331720 Ry

     iteration # 14     ecut=    30.00 Ry     beta=0.70
     Davidson diagonalization with overlap
     ethr =  1.21E-04,  avg # of iterations =  3.0

     negative rho (up, down):  9.540E-08 0.000E+00

     total cpu time spent up to now is        4.5 secs

     total energy              =     -24.55377795 Ry
     Harris-Foulkes estimate   =     -24.57472614 Ry
     estimated scf accuracy    <       0.43256602 Ry

     iteration # 15     ecut=    30.00 Ry     beta=0.70
     Davidson diagonalization with overlap
     ethr =  1.21E-04,  avg # of iterations =  1.0

     total cpu time spent up to now is        4.5 secs

     total energy              =     -24.56771010 Ry
     Harris-Foulkes estimate   =     -24.57492035 Ry
     estimated scf accuracy    <       0.31332648 Ry

     iteration # 16     ecut=    30.00 Ry     beta=0.70
     Davidson diagonalization with overlap
     ethr =  1.21E-04,  avg # of iterations =  1.0

     total cpu time spent up to now is        4.6 secs

     total energy              =     -24.56970176 Ry
     Harris-Foulkes estimate   =     -24.57012197 Ry
     estimated scf accuracy    <       0.02387269 Ry

     iteration # 17     ecut=    30.00 Ry     beta=0.70
     Davidson diagonalization with overlap
     ethr =  1.21E-04,  avg # of iterations =  1.0

     total cpu time spent up to now is        4.6 secs

     total energy              =     -24.56974000 Ry
     Harris-Foulkes estimate   =     -24.56984178 Ry
     estimated scf accuracy    <       0.00266814 Ry

     iteration # 18     ecut=    30.00 Ry     beta=0.70
     Davidson diagonalization with overlap
     ethr =  3.34E-05,  avg # of iterations =  1.0

     total cpu time spent up to now is        4.6 secs

     total energy              =     -24.56980974 Ry
     Harris-Foulkes estimate   =     -24.56981203 Ry
     estimated scf accuracy    <       0.00059118 Ry

     iteration # 19     ecut=    30.00 Ry     beta=0.70
     Davidson diagonalization with overlap
     ethr =  7.39E-06,  avg # of iterations =  1.0

     total cpu time spent up to now is        4.7 secs

     total energy              =     -24.56980313 Ry
     Harris-Foulkes estimate   =     -24.56981054 Ry
     estimated scf accuracy    <       0.00042211 Ry

     iteration # 20     ecut=    30.00 Ry     beta=0.70
     Davidson diagonalization with overlap
     ethr =  5.28E-06,  avg # of iterations =  1.0

     total cpu time spent up to now is        4.7 secs

     total energy              =     -24.56980581 Ry
     Harris-Foulkes estimate   =     -24.56980618 Ry
     estimated scf accuracy    <       0.00002451 Ry

     iteration # 21     ecut=    30.00 Ry     beta=0.70
     Davidson diagonalization with overlap
     ethr =  3.06E-07,  avg # of iterations =  1.0

     total cpu time spent up to now is        4.7 secs

     total energy              =     -24.56980571 Ry
     Harris-Foulkes estimate   =     -24.56980588 Ry
     estimated scf accuracy    <       0.00000689 Ry

     iteration # 22     ecut=    30.00 Ry     beta=0.70
     Davidson diagonalization with overlap
     ethr =  8.62E-08,  avg # of iterations =  1.0

     total cpu time spent up to now is        4.8 secs

     total energy              =     -24.56980579 Ry
     Harris-Foulkes estimate   =     -24.56980578 Ry
     estimated scf accuracy    <       0.00000007 Ry

     iteration # 23     ecut=    30.00 Ry     beta=0.70
     Davidson diagonalization with overlap
     ethr =  9.08E-10,  avg # of iterations =  1.0

     total cpu time spent up to now is        4.8 secs

     End of self-consistent calculation

          k = 0.0000 0.0000 0.0000 ( 22119 PWs)   bands (ev):

   -31.0423 -11.4838  -7.6567  -7.6563  -7.4914  -0.2962   0.5784   0.7746

     the Fermi energy is    -7.4774 ev

!    total energy              =     -24.56980581 Ry
     Harris-Foulkes estimate   =     -24.56980579 Ry
     estimated scf accuracy    <          1.2E-09 Ry

     convergence has been achieved in  23 iterations

     Forces acting on atoms (Ry/au):

     atom    1 type  1   force =     6.56632654  -27.41022667   -8.34700490
     atom    2 type  1   force =     0.00022423    0.00154949    0.00078627
     atom    3 type  2   force =    -6.56655077   27.40867718    8.34621863

     Total force =    41.570713     Total SCF correction =     0.000009

     Entering Dynamics:    iteration =     3
                           time      =   0.0145 pico-seconds


     Andersen thermostat:    3 collisions

ATOMIC_POSITIONS (bohr)
H       78.071360400-294.852852746 -87.881814019
H       12.758537414   7.830465460  15.929139659
O        2.140036132  22.318805028   8.973152296


     kinetic energy (Ekin) =  1249.22223745 Ry
     temperature           = ************** K 
     Ekin + Etot (const)   =  1224.65243164 Ry
     Message from routine dynamics:
     Total linear momentum <> 0

     Linear momentum :    0.1010034985    0.1903142319   -0.0689567204

     Writing output data file pwscf.save

     second order wave-functions extrapolation
     Check: negative starting charge=   -0.353119
     second order charge density extrapolation
     Check: negative starting charge=   -0.347414

     negative rho (up, down):  6.857E+01 0.000E+00

     total cpu time spent up to now is        5.1 secs

     per-process dynamical memory:    20.4 Mb

     Self-consistent Calculation

     iteration #  1     ecut=    30.00 Ry     beta=0.70
     Davidson diagonalization with overlap
     c_bands:  4 eigenvalues not converged
     ethr =  1.00E-06,  avg # of iterations = 20.0

     negative rho (up, down):  1.953E+01 0.000E+00

     total cpu time spent up to now is        5.3 secs

     total energy              =    -503.65893850 Ry
     Harris-Foulkes estimate   =  -50788.35242669 Ry
     estimated scf accuracy    <    1215.91432747 Ry

     iteration #  2     ecut=    30.00 Ry     beta=0.70
     Davidson diagonalization with overlap
     c_bands:  1 eigenvalues not converged
     ethr =  1.00E-02,  avg # of iterations = 20.0

     negative rho (up, down):  1.248E+00 0.000E+00

     total cpu time spent up to now is        5.4 secs

     total energy              =     148.23107345 Ry
     Harris-Foulkes estimate   = -123507.84806515 Ry
     estimated scf accuracy    <     117.52992021 Ry

     iteration #  3     ecut=    30.00 Ry     beta=0.70
     Davidson diagonalization with overlap
     ethr =  1.00E-02,  avg # of iterations = 13.0

     negative rho (up, down):  3.054E-02 0.000E+00

     total cpu time spent up to now is        5.5 secs

     total energy              =     142.73775555 Ry
     Harris-Foulkes estimate   =   -1132.61829482 Ry
     estimated scf accuracy    <      34.96077651 Ry

     iteration #  4     ecut=    30.00 Ry     beta=0.70
     Davidson diagonalization with overlap
     ethr =  1.00E-02,  avg # of iterations = 12.0

     negative rho (up, down):  2.168E-02 0.000E+00

     total cpu time spent up to now is        5.5 secs

     total energy              =     -80.46991280 Ry
     Harris-Foulkes estimate   =     -94.87372447 Ry
     estimated scf accuracy    <      86.58282585 Ry

     iteration #  5     ecut=    30.00 Ry     beta=0.70
     Davidson diagonalization with overlap
     ethr =  1.00E-02,  avg # of iterations =  1.0

     negative rho (up, down):  6.523E-01 0.000E+00

     total cpu time spent up to now is        5.6 secs

     total energy              =     -22.54151642 Ry
     Harris-Foulkes estimate   =     -80.49897594 Ry
     estimated scf accuracy    <      65.45486581 Ry

     iteration #  6     ecut=    30.00 Ry     beta=0.70
     Davidson diagonalization with overlap
     ethr =  1.00E-02,  avg # of iterations = 12.0

     negative rho (up, down):  5.391E-01 0.000E+00

     total cpu time spent up to now is        5.6 secs

     total energy              =      20.44419632 Ry
     Harris-Foulkes estimate   =   -1220.84270349 Ry
     estimated scf accuracy    <      97.76952758 Ry

     iteration #  7     ecut=    30.00 Ry     beta=0.70
     Davidson diagonalization with overlap
     ethr =  1.00E-02,  avg # of iterations =  6.0

     negative rho (up, down):  4.833E-01 0.000E+00

     total cpu time spent up to now is        5.7 secs

     total energy              =       9.88074131 Ry
     Harris-Foulkes estimate   =    -188.32913383 Ry
     estimated scf accuracy    <      90.47077175 Ry

     iteration #  8     ecut=    30.00 Ry     beta=0.70
     Davidson diagonalization with overlap
     ethr =  1.00E-02,  avg # of iterations =  5.0

     negative rho (up, down):  3.803E-01 0.000E+00

     total cpu time spent up to now is        5.7 secs

     total energy              =     -19.87458571 Ry
     Harris-Foulkes estimate   =    -284.79086281 Ry
     estimated scf accuracy    <      88.48338183 Ry

     iteration #  9     ecut=    30.00 Ry     beta=0.70
     Davidson diagonalization with overlap
     ethr =  1.00E-02,  avg # of iterations =  6.0

     negative rho (up, down):  3.756E-01 0.000E+00

     total cpu time spent up to now is        5.8 secs

     total energy              =      30.24028127 Ry
     Harris-Foulkes estimate   =    -287.20546684 Ry
     estimated scf accuracy    <      85.99318651 Ry

     iteration # 10     ecut=    30.00 Ry     beta=0.70
     Davidson diagonalization with overlap
     ethr =  1.00E-02,  avg # of iterations =  5.0

     negative rho (up, down):  3.674E-01 0.000E+00

     total cpu time spent up to now is        5.8 secs

     total energy              =      58.56720166 Ry
     Harris-Foulkes estimate   =    -690.22776458 Ry
     estimated scf accuracy    <      84.81092577 Ry

     iteration # 11     ecut=    30.00 Ry     beta=0.70
     Davidson diagonalization with overlap
     ethr =  1.00E-02,  avg # of iterations =  8.0

     negative rho (up, down):  3.879E-01 0.000E+00

     total cpu time spent up to now is        5.9 secs

     total energy              =      -0.96614404 Ry
     Harris-Foulkes estimate   =    -280.92074973 Ry
     estimated scf accuracy    <      81.06769727 Ry

     iteration # 12     ecut=    30.00 Ry     beta=0.70
     Davidson diagonalization with overlap
     ethr =  1.00E-02,  avg # of iterations = 10.0

     negative rho (up, down):  1.331E-01 0.000E+00

     total cpu time spent up to now is        6.0 secs

     total energy              =    1115.42577924 Ry
     Harris-Foulkes estimate   =    -373.97387865 Ry
     estimated scf accuracy    <      79.89595864 Ry

     iteration # 13     ecut=    30.00 Ry     beta=0.70
     Davidson diagonalization with overlap
     ethr =  1.00E-02,  avg # of iterations = 15.0

     negative rho (up, down):  1.128E-02 0.000E+00

     total cpu time spent up to now is        6.0 secs

     total energy              =      67.98778901 Ry
     Harris-Foulkes estimate   =    -130.63320968 Ry
     estimated scf accuracy    <      69.35869209 Ry

     iteration # 14     ecut=    30.00 Ry     beta=0.70
     Davidson diagonalization with overlap
     ethr =  1.00E-02,  avg # of iterations = 12.0

     negative rho (up, down):  3.989E-01 0.000E+00

     total cpu time spent up to now is        6.1 secs

     total energy              =      -8.34175337 Ry
     Harris-Foulkes estimate   =    -211.02178873 Ry
     estimated scf accuracy    <       9.74172670 Ry

     iteration # 15     ecut=    30.00 Ry     beta=0.70
     Davidson diagonalization with overlap
     ethr =  1.00E-02,  avg # of iterations =  9.0

     negative rho (up, down):  5.556E-01 0.000E+00

     total cpu time spent up to now is        6.2 secs

     total energy              =    -564.25627784 Ry
     Harris-Foulkes estimate   =   -3741.96976597 Ry
     estimated scf accuracy    <      50.52183199 Ry

     iteration # 16     ecut=    30.00 Ry     beta=0.70
     Davidson diagonalization with overlap
     ethr =  1.00E-02,  avg # of iterations =  7.0

     negative rho (up, down):  5.596E-01 0.000E+00

     total cpu time spent up to now is        6.2 secs

     total energy              =     100.68909660 Ry
     Harris-Foulkes estimate   =   -2190.48779442 Ry
     estimated scf accuracy    <      48.32557616 Ry

     iteration # 17     ecut=    30.00 Ry     beta=0.70
     Davidson diagonalization with overlap
     ethr =  1.00E-02,  avg # of iterations = 10.0

     negative rho (up, down):  6.662E-01 0.000E+00

     total cpu time spent up to now is        6.3 secs

     total energy              =      92.42272651 Ry
     Harris-Foulkes estimate   =    -919.84213492 Ry
     estimated scf accuracy    <      45.07565235 Ry

     iteration # 18     ecut=    30.00 Ry     beta=0.70
     Davidson diagonalization with overlap
     ethr =  1.00E-02,  avg # of iterations =  7.0

     negative rho (up, down):  6.539E-01 0.000E+00

     total cpu time spent up to now is        6.3 secs

     total energy              =      66.52966427 Ry
     Harris-Foulkes estimate   =   -5032.76320879 Ry
     estimated scf accuracy    <      39.93021651 Ry

     iteration # 19     ecut=    30.00 Ry     beta=0.70
     Davidson diagonalization with overlap
     ethr =  1.00E-02,  avg # of iterations =  8.0

     negative rho (up, down):  7.085E-01 0.000E+00

     total cpu time spent up to now is        6.4 secs

     total energy              =      74.85542668 Ry
     Harris-Foulkes estimate   =   -1127.05813314 Ry
     estimated scf accuracy    <      47.35474412 Ry

     iteration # 20     ecut=    30.00 Ry     beta=0.70
     Davidson diagonalization with overlap
     ethr =  1.00E-02,  avg # of iterations =  8.0

     negative rho (up, down):  6.901E-01 0.000E+00

     total cpu time spent up to now is        6.5 secs

     total energy              =      97.98511259 Ry
     Harris-Foulkes estimate   =    -795.73240700 Ry
     estimated scf accuracy    <      36.96589235 Ry

     iteration # 21     ecut=    30.00 Ry     beta=0.70
     Davidson diagonalization with overlap
     ethr =  1.00E-02,  avg # of iterations =  6.0

     negative rho (up, down):  5.381E-01 0.000E+00

     total cpu time spent up to now is        6.5 secs

     total energy              =      74.86241748 Ry
     Harris-Foulkes estimate   =   -3432.30911877 Ry
     estimated scf accuracy    <      51.40965340 Ry

     iteration # 22     ecut=    30.00 Ry     beta=0.70
     Davidson diagonalization with overlap
     ethr =  1.00E-02,  avg # of iterations =  5.0

     negative rho (up, down):  4.298E-01 0.000E+00

     total cpu time spent up to now is        6.6 secs

     total energy              =    -465.98154556 Ry
     Harris-Foulkes estimate   =   -1825.08530915 Ry
     estimated scf accuracy    <      28.41967340 Ry

     iteration # 23     ecut=    30.00 Ry     beta=0.70
     Davidson diagonalization with overlap
     ethr =  1.00E-02,  avg # of iterations =  5.0

     negative rho (up, down):  1.057E+00 0.000E+00

     total cpu time spent up to now is        6.6 secs

     total energy              =   -6999.68581616 Ry
     Harris-Foulkes estimate   =   -6632.22873468 Ry
     estimated scf accuracy    <      37.27210879 Ry

     iteration # 24     ecut=    30.00 Ry     beta=0.70
     Davidson diagonalization with overlap
     ethr =  1.00E-02,  avg # of iterations =  7.0

     negative rho (up, down):  5.407E-01 0.000E+00

     total cpu time spent up to now is        6.7 secs

     total energy              =      77.58897493 Ry
     Harris-Foulkes estimate   =  -69293.69306790 Ry
     estimated scf accuracy    <      22.87940092 Ry

     iteration # 25     ecut=    30.00 Ry     beta=0.70
     Davidson diagonalization with overlap
     ethr =  1.00E-02,  avg # of iterations =  8.0

     negative rho (up, down):  3.263E-01 0.000E+00

     total cpu time spent up to now is        6.7 secs

     total energy              =    -125.27489558 Ry
     Harris-Foulkes estimate   =   -1652.63592083 Ry
     estimated scf accuracy    <      21.62724712 Ry

     iteration # 26     ecut=    30.00 Ry     beta=0.70
     Davidson diagonalization with overlap
     ethr =  1.00E-02,  avg # of iterations =  8.0

     negative rho (up, down):  5.667E-01 0.000E+00

     total cpu time spent up to now is        6.8 secs

     total energy              =    1837.93792948 Ry
     Harris-Foulkes estimate   =   -2741.15437457 Ry
     estimated scf accuracy    <      32.31053467 Ry

     iteration # 27     ecut=    30.00 Ry     beta=0.70
     Davidson diagonalization with overlap
     ethr =  1.00E-02,  avg # of iterations =  8.0

     negative rho (up, down):  6.030E-01 0.000E+00

     total cpu time spent up to now is        6.8 secs

     total energy              =     104.98906657 Ry
     Harris-Foulkes estimate   =   -5753.91772780 Ry
     estimated scf accuracy    <      34.31072176 Ry

     iteration # 28     ecut=    30.00 Ry     beta=0.70
     Davidson diagonalization with overlap
     ethr =  1.00E-02,  avg # of iterations =  7.0

     negative rho (up, down):  5.434E-01 0.000E+00

     total cpu time spent up to now is        6.9 secs

     total energy              =    -112.59851114 Ry
     Harris-Foulkes estimate   =   -1419.17872074 Ry
     estimated scf accuracy    <      22.04682503 Ry

     iteration # 29     ecut=    30.00 Ry     beta=0.70
     Davidson diagonalization with overlap
     ethr =  1.00E-02,  avg # of iterations =  9.0

     negative rho (up, down):  5.408E-01 0.000E+00

     total cpu time spent up to now is        7.0 secs

     total energy              =      32.18819804 Ry
     Harris-Foulkes estimate   =  -10616.33605174 Ry
     estimated scf accuracy    <      24.95093893 Ry

     iteration # 30     ecut=    30.00 Ry     beta=0.70
     Davidson diagonalization with overlap
     ethr =  1.00E-02,  avg # of iterations =  9.0

     negative rho (up, down):  5.132E-01 0.000E+00

     total cpu time spent up to now is        7.0 secs

     total energy              =      64.50175495 Ry
     Harris-Foulkes estimate   =   -2208.13800747 Ry
     estimated scf accuracy    <      20.39552974 Ry

     iteration # 31     ecut=    30.00 Ry     beta=0.70
     Davidson diagonalization with overlap
     ethr =  1.00E-02,  avg # of iterations =  8.0

     negative rho (up, down):  1.114E-01 0.000E+00

     total cpu time spent up to now is        7.1 secs

     total energy              =     139.34197905 Ry
     Harris-Foulkes estimate   =   -1132.73357345 Ry
     estimated scf accuracy    <      16.93865445 Ry

     iteration # 32     ecut=    30.00 Ry     beta=0.70
     Davidson diagonalization with overlap
     ethr =  1.00E-02,  avg # of iterations =  9.0

     negative rho (up, down):  2.645E-04 0.000E+00

     total cpu time spent up to now is        7.2 secs

     total energy              =      67.71172631 Ry
     Harris-Foulkes estimate   =    -152.31841605 Ry
     estimated scf accuracy    <      29.68027540 Ry

     iteration # 33     ecut=    30.00 Ry     beta=0.70
     Davidson diagonalization with overlap
     ethr =  1.00E-02,  avg # of iterations =  6.0

     negative rho (up, down):  5.438E-04 0.000E+00

     total cpu time spent up to now is        7.2 secs

     total energy              =     -80.20296386 Ry
     Harris-Foulkes estimate   =     -83.33159135 Ry
     estimated scf accuracy    <      70.34523567 Ry

     iteration # 34     ecut=    30.00 Ry     beta=0.70
     Davidson diagonalization with overlap
     ethr =  1.00E-02,  avg # of iterations =  1.0

     negative rho (up, down):  6.727E-03 0.000E+00

     total cpu time spent up to now is        7.2 secs

     total energy              =     -72.95392629 Ry
     Harris-Foulkes estimate   =     -80.20547016 Ry
     estimated scf accuracy    <      66.17484578 Ry

     iteration # 35     ecut=    30.00 Ry     beta=0.70
     Davidson diagonalization with overlap
     ethr =  1.00E-02,  avg # of iterations =  4.0

     negative rho (up, down):  2.668E-01 0.000E+00

     total cpu time spent up to now is        7.3 secs

     total energy              =     -57.58934247 Ry
     Harris-Foulkes estimate   =     -72.97352360 Ry
     estimated scf accuracy    <      56.84915734 Ry

     iteration # 36     ecut=    30.00 Ry     beta=0.70
     Davidson diagonalization with overlap
     ethr =  1.00E-02,  avg # of iterations =  8.0

     negative rho (up, down):  3.440E-02 0.000E+00

     total cpu time spent up to now is        7.3 secs

     total energy              =     147.76821842 Ry
     Harris-Foulkes estimate   =    -861.88260268 Ry
     estimated scf accuracy    <      32.07963466 Ry

     iteration # 37     ecut=    30.00 Ry     beta=0.70
     Davidson diagonalization with overlap
     ethr =  1.00E-02,  avg # of iterations = 10.0

     negative rho (up, down):  9.778E-03 0.000E+00

     total cpu time spent up to now is        7.4 secs

     total energy              =      60.14837849 Ry
     Harris-Foulkes estimate   =    -709.31789528 Ry
     estimated scf accuracy    <      23.36917007 Ry

     iteration # 38     ecut=    30.00 Ry     beta=0.70
     Davidson diagonalization with overlap
     ethr =  1.00E-02,  avg # of iterations =  6.0

     negative rho (up, down):  7.896E-02 0.000E+00

     total cpu time spent up to now is        7.5 secs

     total energy              =      24.17002663 Ry
     Harris-Foulkes estimate   =    -159.56389208 Ry
     estimated scf accuracy    <      15.08914698 Ry

     iteration # 39     ecut=    30.00 Ry     beta=0.70
     Davidson diagonalization with overlap
     ethr =  1.00E-02,  avg # of iterations =  6.0

     negative rho (up, down):  1.393E-01 0.000E+00

     total cpu time spent up to now is        7.5 secs

     total energy              =       5.14839132 Ry
     Harris-Foulkes estimate   =    -189.29953379 Ry
     estimated scf accuracy    <      23.60222346 Ry

     iteration # 40     ecut=    30.00 Ry     beta=0.70
     Davidson diagonalization with overlap
     ethr =  1.00E-02,  avg # of iterations =  5.0

     negative rho (up, down):  1.132E-01 0.000E+00

     total cpu time spent up to now is        7.6 secs

     total energy              =     131.95067164 Ry
     Harris-Foulkes estimate   =    -667.16076983 Ry
     estimated scf accuracy    <      40.77700821 Ry

     iteration # 41     ecut=    30.00 Ry     beta=0.70
     Davidson diagonalization with overlap
     ethr =  1.00E-02,  avg # of iterations =  4.0

     negative rho (up, down):  2.770E-02 0.000E+00

     total cpu time spent up to now is        7.6 secs

     total energy              =     -26.86891911 Ry
     Harris-Foulkes estimate   =     -92.10928138 Ry
     estimated scf accuracy    <      34.51860379 Ry

     iteration # 42     ecut=    30.00 Ry     beta=0.70
     Davidson diagonalization with overlap
     ethr =  1.00E-02,  avg # of iterations =  6.0

     negative rho (up, down):  1.174E-01 0.000E+00

     total cpu time spent up to now is        7.6 secs

     total energy              =     -67.83614421 Ry
     Harris-Foulkes estimate   =     -74.33290689 Ry
     estimated scf accuracy    <      60.41841646 Ry

     iteration # 43     ecut=    30.00 Ry     beta=0.70
     Davidson diagonalization with overlap
     ethr =  1.00E-02,  avg # of iterations =  8.0

     negative rho (up, down):  7.222E-02 0.000E+00

     total cpu time spent up to now is        7.7 secs

     total energy              =     -19.91904747 Ry
     Harris-Foulkes estimate   =    -152.89714251 Ry
     estimated scf accuracy    <      31.69991107 Ry

     iteration # 44     ecut=    30.00 Ry     beta=0.70
     Davidson diagonalization with overlap
     ethr =  1.00E-02,  avg # of iterations =  7.0

     negative rho (up, down):  4.834E-04 0.000E+00

     total cpu time spent up to now is        7.8 secs

     total energy              =     101.06007849 Ry
     Harris-Foulkes estimate   =    -434.19300337 Ry
     estimated scf accuracy    <      26.30928431 Ry

     iteration # 45     ecut=    30.00 Ry     beta=0.70
     Davidson diagonalization with overlap
     ethr =  1.00E-02,  avg # of iterations =  9.0

     negative rho (up, down):  5.601E-08 0.000E+00

     total cpu time spent up to now is        7.8 secs

     total energy              =      -9.86251164 Ry
     Harris-Foulkes estimate   =     -96.87801276 Ry
     estimated scf accuracy    <      25.02535959 Ry

     iteration # 46     ecut=    30.00 Ry     beta=0.70
     Davidson diagonalization with overlap
     ethr =  1.00E-02,  avg # of iterations =  4.0

     negative rho (up, down):  6.108E-01 0.000E+00

     total cpu time spent up to now is        7.9 secs

     total energy              =     -43.79359124 Ry
     Harris-Foulkes estimate   =     -52.39926572 Ry
     estimated scf accuracy    <      31.48361439 Ry

     iteration # 47     ecut=    30.00 Ry     beta=0.70
     Davidson diagonalization with overlap
     ethr =  1.00E-02,  avg # of iterations =  9.0

     negative rho (up, down):  3.591E-01 0.000E+00

     total cpu time spent up to now is        7.9 secs

     total energy              =      98.89543744 Ry
     Harris-Foulkes estimate   =   -3427.21069830 Ry
     estimated scf accuracy    <      41.57556720 Ry

     iteration # 48     ecut=    30.00 Ry     beta=0.70
     Davidson diagonalization with overlap
     ethr =  1.00E-02,  avg # of iterations = 13.0

     negative rho (up, down):  2.280E-01 0.000E+00

     total cpu time spent up to now is        8.0 secs

     total energy              =     110.12512159 Ry
     Harris-Foulkes estimate   =    -751.36512965 Ry
     estimated scf accuracy    <      17.46736194 Ry

     iteration # 49     ecut=    30.00 Ry     beta=0.70
     Davidson diagonalization with overlap
     ethr =  1.00E-02,  avg # of iterations =  6.0

     negative rho (up, down):  1.846E-01 0.000E+00

     total cpu time spent up to now is        8.1 secs

     total energy              =      80.37518793 Ry
     Harris-Foulkes estimate   =    -173.78368538 Ry
     estimated scf accuracy    <      42.85681066 Ry

     iteration # 50     ecut=    30.00 Ry     beta=0.70
     Davidson diagonalization with overlap
     ethr =  1.00E-02,  avg # of iterations = 10.0

     negative rho (up, down):  2.017E-02 0.000E+00

     total cpu time spent up to now is        8.1 secs

     total energy              =     -84.80876713 Ry
     Harris-Foulkes estimate   =    -274.90583313 Ry
     estimated scf accuracy    <      11.12029317 Ry

     iteration # 51     ecut=    30.00 Ry     beta=0.70
     Davidson diagonalization with overlap
     ethr =  1.00E-02,  avg # of iterations =  7.0

     negative rho (up, down):  3.584E-04 0.000E+00

     total cpu time spent up to now is        8.2 secs

     total energy              =      80.79550572 Ry
     Harris-Foulkes estimate   =    -355.25378658 Ry
     estimated scf accuracy    <      34.95276485 Ry

     iteration # 52     ecut=    30.00 Ry     beta=0.70
     Davidson diagonalization with overlap
     ethr =  1.00E-02,  avg # of iterations =  4.0

     negative rho (up, down):  1.092E-01 0.000E+00

     total cpu time spent up to now is        8.2 secs

     total energy              =     -41.12293309 Ry
     Harris-Foulkes estimate   =     -46.75502675 Ry
     estimated scf accuracy    <      23.99136963 Ry

     iteration # 53     ecut=    30.00 Ry     beta=0.70
     Davidson diagonalization with overlap
     ethr =  1.00E-02,  avg # of iterations =  8.0

     negative rho (up, down):  2.015E-02 0.000E+00

     total cpu time spent up to now is        8.3 secs

     total energy              =      29.82446941 Ry
     Harris-Foulkes estimate   =    -119.33564657 Ry
     estimated scf accuracy    <      11.56342022 Ry

     iteration # 54     ecut=    30.00 Ry     beta=0.70
     Davidson diagonalization with overlap
     ethr =  1.00E-02,  avg # of iterations =  7.0

     negative rho (up, down):  3.869E-02 0.000E+00

     total cpu time spent up to now is        8.3 secs

     total energy              =     -36.01956174 Ry
     Harris-Foulkes estimate   =     -40.27010580 Ry
     estimated scf accuracy    <      14.69647850 Ry

     iteration # 55     ecut=    30.00 Ry     beta=0.70
     Davidson diagonalization with overlap
     ethr =  1.00E-02,  avg # of iterations =  2.0

     negative rho (up, down):  1.201E-01 0.000E+00

     total cpu time spent up to now is        8.3 secs

     total energy              =     -33.73555165 Ry
     Harris-Foulkes estimate   =     -36.08526848 Ry
     estimated scf accuracy    <       8.81240162 Ry

     iteration # 56     ecut=    30.00 Ry     beta=0.70
     Davidson diagonalization with overlap
     ethr =  1.00E-02,  avg # of iterations =  8.0

     negative rho (up, down):  1.130E-01 0.000E+00

     total cpu time spent up to now is        8.4 secs

     total energy              =      -9.97891742 Ry
     Harris-Foulkes estimate   =    -145.55639415 Ry
     estimated scf accuracy    <      19.55306967 Ry

     iteration # 57     ecut=    30.00 Ry     beta=0.70
     Davidson diagonalization with overlap
     ethr =  1.00E-02,  avg # of iterations =  5.0

     negative rho (up, down):  1.897E-01 0.000E+00

     total cpu time spent up to now is        8.4 secs

     total energy              =     -72.46124215 Ry
     Harris-Foulkes estimate   =    -103.94590631 Ry
     estimated scf accuracy    <      20.58774017 Ry

     iteration # 58     ecut=    30.00 Ry     beta=0.70
     Davidson diagonalization with overlap
     ethr =  1.00E-02,  avg # of iterations = 10.0

     negative rho (up, down):  2.053E-01 0.000E+00

     total cpu time spent up to now is        8.5 secs

     total energy              =       5.03186360 Ry
     Harris-Foulkes estimate   =    -431.80434395 Ry
     estimated scf accuracy    <      56.33494903 Ry

     iteration # 59     ecut=    30.00 Ry     beta=0.70
     Davidson diagonalization with overlap
     ethr =  1.00E-02,  avg # of iterations =  7.0

     negative rho (up, down):  1.175E-01 0.000E+00

     total cpu time spent up to now is        8.6 secs

     total energy              =      46.38025912 Ry
     Harris-Foulkes estimate   =    -268.52808760 Ry
     estimated scf accuracy    <      62.17537922 Ry

     iteration # 60     ecut=    30.00 Ry     beta=0.70
     Davidson diagonalization with overlap
     ethr =  1.00E-02,  avg # of iterations =  8.0

     negative rho (up, down):  1.884E-01 0.000E+00

     total cpu time spent up to now is        8.6 secs

     total energy              =      58.45539559 Ry
     Harris-Foulkes estimate   =    -408.90292064 Ry
     estimated scf accuracy    <      59.99485519 Ry

     iteration # 61     ecut=    30.00 Ry     beta=0.70
     Davidson diagonalization with overlap
     ethr =  1.00E-02,  avg # of iterations =  8.0

     negative rho (up, down):  1.934E-01 0.000E+00

     total cpu time spent up to now is        8.7 secs

     total energy              =      34.11074026 Ry
     Harris-Foulkes estimate   =    -325.65398636 Ry
     estimated scf accuracy    <      58.83796763 Ry

     iteration # 62     ecut=    30.00 Ry     beta=0.70
     Davidson diagonalization with overlap
     ethr =  1.00E-02,  avg # of iterations =  8.0

     negative rho (up, down):  2.019E-01 0.000E+00

     total cpu time spent up to now is        8.7 secs

     total energy              =    -137.37590541 Ry
     Harris-Foulkes estimate   =    -324.99449536 Ry
     estimated scf accuracy    <      65.87760331 Ry

     iteration # 63     ecut=    30.00 Ry     beta=0.70
     Davidson diagonalization with overlap
     ethr =  1.00E-02,  avg # of iterations =  6.0

     negative rho (up, down):  1.516E-01 0.000E+00

     total cpu time spent up to now is        8.8 secs

     total energy              =    -115.19450221 Ry
     Harris-Foulkes estimate   =    -318.68894020 Ry
     estimated scf accuracy    <      61.34210636 Ry

     iteration # 64     ecut=    30.00 Ry     beta=0.70
     Davidson diagonalization with overlap
     ethr =  1.00E-02,  avg # of iterations =  7.0

     negative rho (up, down):  9.690E-01 0.000E+00

     total cpu time spent up to now is        8.8 secs

     total energy              =    -153.13901296 Ry
     Harris-Foulkes estimate   =    -409.18115824 Ry
     estimated scf accuracy    <      50.26704136 Ry

     iteration # 65     ecut=    30.00 Ry     beta=0.70
     Davidson diagonalization with overlap
     ethr =  1.00E-02,  avg # of iterations =  8.0

     negative rho (up, down):  1.927E+00 0.000E+00

     total cpu time spent up to now is        8.9 secs

     total energy              =    -183.24563105 Ry
     Harris-Foulkes estimate   =   -2263.95318209 Ry
     estimated scf accuracy    <      50.20645152 Ry

     iteration # 66     ecut=    30.00 Ry     beta=0.70
     Davidson diagonalization with overlap
     ethr =  1.00E-02,  avg # of iterations =  7.0

     negative rho (up, down):  1.826E+00 0.000E+00

     total cpu time spent up to now is        9.0 secs

     total energy              =      33.99627553 Ry
     Harris-Foulkes estimate   =   -6542.49133735 Ry
     estimated scf accuracy    <      33.23781563 Ry

     iteration # 67     ecut=    30.00 Ry     beta=0.70
     Davidson diagonalization with overlap
     ethr =  1.00E-02,  avg # of iterations =  8.0

     negative rho (up, down):  1.467E+00 0.000E+00

     total cpu time spent up to now is        9.0 secs

     total energy              =     106.71262965 Ry
     Harris-Foulkes estimate   =   -2085.51055764 Ry
     estimated scf accuracy    <      26.43771919 Ry

     iteration # 68     ecut=    30.00 Ry     beta=0.70
     Davidson diagonalization with overlap
     ethr =  1.00E-02,  avg # of iterations =  6.0

     negative rho (up, down):  1.148E+00 0.000E+00

     total cpu time spent up to now is        9.1 secs

     total energy              =    -641.32793265 Ry
     Harris-Foulkes estimate   =    -675.47958545 Ry
     estimated scf accuracy    <      23.36810848 Ry

     iteration # 69     ecut=    30.00 Ry     beta=0.70
     Davidson diagonalization with overlap
     ethr =  1.00E-02,  avg # of iterations =  5.0

     negative rho (up, down):  4.860E-01 0.000E+00

     total cpu time spent up to now is        9.1 secs

     total energy              =      93.30450018 Ry
     Harris-Foulkes estimate   =   -7879.29208632 Ry
     estimated scf accuracy    <      27.83721643 Ry

     iteration # 70     ecut=    30.00 Ry     beta=0.70
     Davidson diagonalization with overlap
     ethr =  1.00E-02,  avg # of iterations =  8.0

     negative rho (up, down):  4.601E-01 0.000E+00

     total cpu time spent up to now is        9.2 secs

     total energy              =    -818.23708410 Ry
     Harris-Foulkes estimate   =   -5761.86912116 Ry
     estimated scf accuracy    <      42.87490381 Ry

     iteration # 71     ecut=    30.00 Ry     beta=0.70
     Davidson diagonalization with overlap
     ethr =  1.00E-02,  avg # of iterations =  7.0

     negative rho (up, down):  3.078E-01 0.000E+00

     total cpu time spent up to now is        9.2 secs

     total energy              =   -2118.06446130 Ry
     Harris-Foulkes estimate   =   -6704.94311740 Ry
     estimated scf accuracy    <      20.13378371 Ry

     iteration # 72     ecut=    30.00 Ry     beta=0.70
     Davidson diagonalization with overlap
     ethr =  1.00E-02,  avg # of iterations = 13.0

     negative rho (up, down):  2.730E-02 0.000E+00

     total cpu time spent up to now is        9.3 secs

     total energy              =     149.87675052 Ry
     Harris-Foulkes estimate   =  -11187.50292335 Ry
     estimated scf accuracy    <      16.98014066 Ry

     iteration # 73     ecut=    30.00 Ry     beta=0.70
     Davidson diagonalization with overlap
     ethr =  1.00E-02,  avg # of iterations = 15.0

     negative rho (up, down):  3.121E-03 0.000E+00

     total cpu time spent up to now is        9.4 secs

     total energy              =      76.53111656 Ry
     Harris-Foulkes estimate   =    -404.60058108 Ry
     estimated scf accuracy    <      25.03653939 Ry

     iteration # 74     ecut=    30.00 Ry     beta=0.70
     Davidson diagonalization with overlap
     ethr =  1.00E-02,  avg # of iterations =  9.0

     negative rho (up, down):  9.497E-03 0.000E+00

     total cpu time spent up to now is        9.4 secs

     total energy              =     -31.14887078 Ry
     Harris-Foulkes estimate   =     -88.88512425 Ry
     estimated scf accuracy    <      45.84582355 Ry

     iteration # 75     ecut=    30.00 Ry     beta=0.70
     Davidson diagonalization with overlap
     ethr =  1.00E-02,  avg # of iterations = 11.0

     negative rho (up, down):  5.567E-03 0.000E+00

     total cpu time spent up to now is        9.5 secs

     total energy              =      24.75561707 Ry
     Harris-Foulkes estimate   =    -116.98366407 Ry
     estimated scf accuracy    <      28.90285794 Ry

     iteration # 76     ecut=    30.00 Ry     beta=0.70
     Davidson diagonalization with overlap
     ethr =  1.00E-02,  avg # of iterations =  4.0

     negative rho (up, down):  4.495E-03 0.000E+00

     total cpu time spent up to now is        9.5 secs

     total energy              =     -78.68729399 Ry
     Harris-Foulkes estimate   =     -78.12531612 Ry
     estimated scf accuracy    <      63.72859998 Ry

     iteration # 77     ecut=    30.00 Ry     beta=0.70
     Davidson diagonalization with overlap
     ethr =  1.00E-02,  avg # of iterations =  1.0

     negative rho (up, down):  4.394E-02 0.000E+00

     total cpu time spent up to now is        9.5 secs

     total energy              =    -101.33473328 Ry
     Harris-Foulkes estimate   =     -78.68776650 Ry
     estimated scf accuracy    <      64.47291531 Ry

     iteration # 78     ecut=    30.00 Ry     beta=0.70
     Davidson diagonalization with overlap
     ethr =  1.00E-02,  avg # of iterations =  7.0

     negative rho (up, down):  4.884E-02 0.000E+00

     total cpu time spent up to now is        9.6 secs

     total energy              =    -121.31831075 Ry
     Harris-Foulkes estimate   =    -150.84495709 Ry
     estimated scf accuracy    <      50.25834799 Ry

     iteration # 79     ecut=    30.00 Ry     beta=0.70
     Davidson diagonalization with overlap
     ethr =  1.00E-02,  avg # of iterations = 12.0

     negative rho (up, down):  1.476E-01 0.000E+00

     total cpu time spent up to now is        9.7 secs

     total energy              =      32.78958910 Ry
     Harris-Foulkes estimate   =    -992.29938486 Ry
     estimated scf accuracy    <      49.42228095 Ry

     iteration # 80     ecut=    30.00 Ry     beta=0.70
     Davidson diagonalization with overlap
     ethr =  1.00E-02,  avg # of iterations =  7.0

     negative rho (up, down):  2.110E-01 0.000E+00

     total cpu time spent up to now is        9.7 secs

     total energy              =      18.89238906 Ry
     Harris-Foulkes estimate   =    -264.23370506 Ry
     estimated scf accuracy    <      44.75413493 Ry

     iteration # 81     ecut=    30.00 Ry     beta=0.70
     Davidson diagonalization with overlap
     ethr =  1.00E-02,  avg # of iterations = 10.0

     negative rho (up, down):  1.043E+00 0.000E+00

     total cpu time spent up to now is        9.8 secs

     total energy              =    -245.58208402 Ry
     Harris-Foulkes estimate   =    -786.56908438 Ry
     estimated scf accuracy    <      49.37540725 Ry

     iteration # 82     ecut=    30.00 Ry     beta=0.70
     Davidson diagonalization with overlap
     ethr =  1.00E-02,  avg # of iterations =  7.0

     negative rho (up, down):  1.700E+00 0.000E+00

     total cpu time spent up to now is        9.8 secs

     total energy              =    -280.72298528 Ry
     Harris-Foulkes estimate   =   -1240.65760306 Ry
     estimated scf accuracy    <      62.88069177 Ry

     iteration # 83     ecut=    30.00 Ry     beta=0.70
     Davidson diagonalization with overlap
     ethr =  1.00E-02,  avg # of iterations =  8.0

     negative rho (up, down):  1.548E+00 0.000E+00

     total cpu time spent up to now is        9.9 secs

     total energy              =    -217.22773536 Ry
     Harris-Foulkes estimate   =   -2204.69248824 Ry
     estimated scf accuracy    <      39.47712508 Ry

     iteration # 84     ecut=    30.00 Ry     beta=0.70
     Davidson diagonalization with overlap
     ethr =  1.00E-02,  avg # of iterations =  8.0

     negative rho (up, down):  2.094E+00 0.000E+00

     total cpu time spent up to now is       10.0 secs

     total energy              =    -156.55491239 Ry
     Harris-Foulkes estimate   =   -2392.26823995 Ry
     estimated scf accuracy    <      35.99777232 Ry

     iteration # 85     ecut=    30.00 Ry     beta=0.70
     Davidson diagonalization with overlap
     ethr =  1.00E-02,  avg # of iterations =  9.0

     negative rho (up, down):  2.642E+00 0.000E+00

     total cpu time spent up to now is       10.0 secs

     total energy              =  -14046.12373679 Ry
     Harris-Foulkes estimate   =  -25779.04632297 Ry
     estimated scf accuracy    <      60.73489706 Ry

     iteration # 86     ecut=    30.00 Ry     beta=0.70
     Davidson diagonalization with overlap
     ethr =  1.00E-02,  avg # of iterations =  7.0

     negative rho (up, down):  1.429E+00 0.000E+00

     total cpu time spent up to now is       10.1 secs

     total energy              =   -1537.97570890 Ry
     Harris-Foulkes estimate   =  -54309.73154932 Ry
     estimated scf accuracy    <      28.57799819 Ry

     iteration # 87     ecut=    30.00 Ry     beta=0.70
     Davidson diagonalization with overlap
     ethr =  1.00E-02,  avg # of iterations =  8.0

     negative rho (up, down):  1.843E+00 0.000E+00

     total cpu time spent up to now is       10.1 secs

     total energy              =    1486.91847243 Ry
     Harris-Foulkes estimate   =   -4563.99505579 Ry
     estimated scf accuracy    <      30.22811808 Ry

     iteration # 88     ecut=    30.00 Ry     beta=0.70
     Davidson diagonalization with overlap
     ethr =  1.00E-02,  avg # of iterations =  8.0

     negative rho (up, down):  1.571E+00 0.000E+00

     total cpu time spent up to now is       10.2 secs

     total energy              =      65.95714854 Ry
     Harris-Foulkes estimate   =    -835.42046043 Ry
     estimated scf accuracy    <      36.01901903 Ry

     iteration # 89     ecut=    30.00 Ry     beta=0.70
     Davidson diagonalization with overlap
     ethr =  1.00E-02,  avg # of iterations =  9.0

     negative rho (up, down):  1.347E+00 0.000E+00

     total cpu time spent up to now is       10.3 secs

     total energy              =      55.42063345 Ry
     Harris-Foulkes estimate   =   -1729.94509302 Ry
     estimated scf accuracy    <      36.26960636 Ry

     iteration # 90     ecut=    30.00 Ry     beta=0.70
     Davidson diagonalization with overlap
     ethr =  1.00E-02,  avg # of iterations =  8.0

     negative rho (up, down):  1.144E+00 0.000E+00

     total cpu time spent up to now is       10.3 secs

     total energy              =       1.13759901 Ry
     Harris-Foulkes estimate   =   -1516.04934622 Ry
     estimated scf accuracy    <      21.23742888 Ry

     iteration # 91     ecut=    30.00 Ry     beta=0.70
     Davidson diagonalization with overlap
     ethr =  1.00E-02,  avg # of iterations =  8.0

     negative rho (up, down):  5.214E-01 0.000E+00

     total cpu time spent up to now is       10.4 secs

     total energy              =      42.71385720 Ry
     Harris-Foulkes estimate   =    -918.89330542 Ry
     estimated scf accuracy    <      20.02386865 Ry

     iteration # 92     ecut=    30.00 Ry     beta=0.70
     Davidson diagonalization with overlap
     ethr =  1.00E-02,  avg # of iterations =  7.0

     negative rho (up, down):  6.570E-01 0.000E+00

     total cpu time spent up to now is       10.4 secs

     total energy              =    -692.74988728 Ry
     Harris-Foulkes estimate   =  -11315.28347587 Ry
     estimated scf accuracy    <      36.91725017 Ry

     iteration # 93     ecut=    30.00 Ry     beta=0.70
     Davidson diagonalization with overlap
     ethr =  1.00E-02,  avg # of iterations =  8.0

     negative rho (up, down):  4.338E-01 0.000E+00

     total cpu time spent up to now is       10.5 secs

     total energy              =      51.33879162 Ry
     Harris-Foulkes estimate   =   -3852.31637595 Ry
     estimated scf accuracy    <      31.78664856 Ry

     iteration # 94     ecut=    30.00 Ry     beta=0.70
     Davidson diagonalization with overlap
     ethr =  1.00E-02,  avg # of iterations = 12.0

     negative rho (up, down):  1.076E-01 0.000E+00

     total cpu time spent up to now is       10.6 secs

     total energy              =      73.50591159 Ry
     Harris-Foulkes estimate   =    -410.91254256 Ry
     estimated scf accuracy    <      20.06115333 Ry

     iteration # 95     ecut=    30.00 Ry     beta=0.70
     Davidson diagonalization with overlap
     ethr =  1.00E-02,  avg # of iterations =  8.0

     negative rho (up, down):  2.149E-01 0.000E+00

     total cpu time spent up to now is       10.6 secs

     total energy              =     -24.56084995 Ry
     Harris-Foulkes estimate   =    -160.02393756 Ry
     estimated scf accuracy    <      30.77431908 Ry

     iteration # 96     ecut=    30.00 Ry     beta=0.70
     Davidson diagonalization with overlap
     ethr =  1.00E-02,  avg # of iterations =  5.0

     negative rho (up, down):  4.929E-01 0.000E+00

     total cpu time spent up to now is       10.7 secs

     total energy              =      -4.36294546 Ry
     Harris-Foulkes estimate   =    -236.13094416 Ry
     estimated scf accuracy    <      31.63368697 Ry

     iteration # 97     ecut=    30.00 Ry     beta=0.70
     Davidson diagonalization with overlap
     ethr =  1.00E-02,  avg # of iterations =  8.0

     negative rho (up, down):  6.380E-01 0.000E+00

     total cpu time spent up to now is       10.7 secs

     total energy              =   -3050.93823589 Ry
     Harris-Foulkes estimate   =    -302.28779371 Ry
     estimated scf accuracy    <      35.72362712 Ry

     iteration # 98     ecut=    30.00 Ry     beta=0.70
     Davidson diagonalization with overlap
     ethr =  1.00E-02,  avg # of iterations =  7.0

     negative rho (up, down):  8.597E-01 0.000E+00

     total cpu time spent up to now is       10.8 secs

     total energy              =      46.32935518 Ry
     Harris-Foulkes estimate   =  -24137.55329583 Ry
     estimated scf accuracy    <      25.53819379 Ry

     iteration # 99     ecut=    30.00 Ry     beta=0.70
     Davidson diagonalization with overlap
     ethr =  1.00E-02,  avg # of iterations =  8.0

     negative rho (up, down):  8.418E-01 0.000E+00

     total cpu time spent up to now is       10.9 secs

     total energy              =     -53.75563286 Ry
     Harris-Foulkes estimate   =    -889.38756846 Ry
     estimated scf accuracy    <      29.42521502 Ry

     iteration #100     ecut=    30.00 Ry     beta=0.70
     Davidson diagonalization with overlap
     ethr =  1.00E-02,  avg # of iterations =  7.0

     negative rho (up, down):  1.209E+00 0.000E+00

     total cpu time spent up to now is       10.9 secs

     total energy              =     -12.15323858 Ry
     Harris-Foulkes estimate   =    -330.05721559 Ry
     estimated scf accuracy    <      27.38450987 Ry

     End of self-consistent calculation

     convergence NOT achieved after 100 iterations: stopping

     Writing output data file pwscf.save
 
     init_run     :      0.09s CPU      0.10s WALL (       1 calls)
     electrons    :      8.18s CPU      9.95s WALL (       4 calls)
     update_pot   :      0.34s CPU      0.50s WALL (       3 calls)
     forces       :      0.08s CPU      0.08s WALL (       3 calls)

     Called by init_run:
     wfcinit      :      0.01s CPU      0.02s WALL (       1 calls)
     potinit      :      0.02s CPU      0.03s WALL (       1 calls)

     Called by electrons:
     c_bands      :      4.26s CPU      4.43s WALL (     207 calls)
     sum_band     :      0.60s CPU      0.64s WALL (     207 calls)
     v_of_rho     :      1.54s CPU      1.65s WALL (     211 calls)
     mix_rho      :      1.55s CPU      2.65s WALL (     207 calls)

     Called by c_bands:
     init_us_2    :      0.02s CPU      0.02s WALL (     415 calls)
     cegterg      :      4.22s CPU      4.32s WALL (     207 calls)

     Called by sum_band:

     Called by *egterg:
     h_psi        :      3.52s CPU      3.60s WALL (    1221 calls)
     g_psi        :      0.04s CPU      0.04s WALL (    1013 calls)
     cdiaghg      :      0.26s CPU      0.27s WALL (    1217 calls)

     Called by h_psi:
     h_psi:pot    :      3.50s CPU      3.58s WALL (    1221 calls)
     h_psi:calbec :      0.07s CPU      0.07s WALL (    1221 calls)
     vloc_psi     :      3.41s CPU      3.49s WALL (    1221 calls)
     add_vuspsi   :      0.01s CPU      0.01s WALL (    1221 calls)

     General routines
     calbec       :      0.08s CPU      0.09s WALL (    1235 calls)
     fft          :      0.94s CPU      1.00s WALL (    2327 calls)
     fftw         :      3.47s CPU      3.57s WALL (   15520 calls)
     davcio       :      0.23s CPU      0.95s WALL (    3797 calls)
 
     Parallel routines
     fft_scatter  :      1.69s CPU      1.78s WALL (   17847 calls)
 
     PWSCF        :     8.85s CPU        11.01s WALL

 
   This run was terminated on:   7:58: 4  14Feb2018            

=------------------------------------------------------------------------------=
   JOB DONE.
=------------------------------------------------------------------------------=
