
     Program PWSCF v.6.0 (svn rev. 13079) starts on 14Feb2018 at  7:59:43 

     This program is part of the open-source Quantum ESPRESSO suite
     for quantum simulation of materials; please cite
         "P. Giannozzi et al., J. Phys.:Condens. Matter 21 395502 (2009);
          URL http://www.quantum-espresso.org", 
     in publications or presentations arising from this work. More details at
     http://www.quantum-espresso.org/quote

     Parallel version (MPI), running on    28 processors
     R & G space division:  proc/nbgrp/npool/nimage =      28
     Reading input from inputs/MD-H2O-2/247.in

     Current dimensions of program PWSCF are:
     Max number of different atomic species (ntypx) = 10
     Max number of k-points (npk) =  40000
     Max angular momentum in pseudopotentials (lmaxx) =  3

     Subspace diagonalization in iterative solution of the eigenvalue problem:
     a serial algorithm will be used

 
     Parallelization info
     --------------------
     sticks:   dense  smooth     PW     G-vecs:    dense   smooth      PW
     Min         136     136     33                 6338     6338     787
     Max         137     137     34                 6341     6341     792
     Sum        3809    3809    949               177509   177509   22119
 


     bravais-lattice index     =            1
     lattice parameter (alat)  =      20.0000  a.u.
     unit-cell volume          =    8000.0000 (a.u.)^3
     number of atoms/cell      =            3
     number of atomic types    =            2
     number of electrons       =         8.00
     number of Kohn-Sham states=            8
     kinetic-energy cutoff     =      30.0000  Ry
     charge density cutoff     =     120.0000  Ry
     convergence threshold     =      1.0E-08
     mixing beta               =       0.7000
     number of iterations used =            8  plain     mixing
     Exchange-correlation      = BLYP ( 1  3  1  3 0 0)
     nstep                     =         5000


     celldm(1)=  20.000000  celldm(2)=   0.000000  celldm(3)=   0.000000
     celldm(4)=   0.000000  celldm(5)=   0.000000  celldm(6)=   0.000000

     crystal axes: (cart. coord. in units of alat)
               a(1) = (   1.000000   0.000000   0.000000 )  
               a(2) = (   0.000000   1.000000   0.000000 )  
               a(3) = (   0.000000   0.000000   1.000000 )  

     reciprocal axes: (cart. coord. in units 2 pi/alat)
               b(1) = (  1.000000  0.000000  0.000000 )  
               b(2) = (  0.000000  1.000000  0.000000 )  
               b(3) = (  0.000000  0.000000  1.000000 )  


     PseudoPot. # 1 for  H read from file:
     ./H.blyp-hgh.UPF
     MD5 check sum: c576e69559cde411e611be972c763230
     Pseudo is Norm-conserving, Zval =  1.0
     Generated in analytical, separable form
     Using radial grid of  929 points,  0 beta functions with: 

     PseudoPot. # 2 for  O read from file:
     ./O.blyp-hgh.UPF
     MD5 check sum: d0b7156309aa9befef28faac7bc56342
     Pseudo is Norm-conserving, Zval =  6.0
     Generated in analytical, separable form
     Using radial grid of 1095 points,  1 beta functions with: 
                l(1) =   0

     atomic species   valence    mass     pseudopotential
        H              1.00     1.01000      H( 1.00)
        O              6.00    16.00000      O( 1.00)

     No symmetry found



   Cartesian axes

     site n.     atom                  positions (alat units)
         1           H   tau(   1) = (   0.1505788   0.4034694   0.2796582  )
         2           H   tau(   2) = (   0.2069164   0.0204001   0.8673389  )
         3           O   tau(   3) = (   0.1376797   0.4831008   0.3377431  )

     number of k points=     1  Marzari-Vanderbilt smearing, width (Ry)=  0.0250
                       cart. coord. in units 2pi/alat
        k(    1) = (   0.0000000   0.0000000   0.0000000), wk =   2.0000000

     Dense  grid:   177509 G-vectors     FFT dimensions: (  72,  72,  72)

     Estimated max dynamical RAM per process >       6.09Mb

     Estimated total allocated dynamical RAM >     170.64Mb

     Initial potential from superposition of free atoms
     Check: negative starting charge=   -0.349588

     starting charge    7.99998, renormalised to    8.00000

     negative rho (up, down):  3.496E-01 0.000E+00
     Starting wfc are    6 randomized atomic wfcs +    2 random wfc

     total cpu time spent up to now is        0.3 secs

     per-process dynamical memory:    18.8 Mb

     Self-consistent Calculation

     iteration #  1     ecut=    30.00 Ry     beta=0.70
     Davidson diagonalization with overlap
     ethr =  1.00E-02,  avg # of iterations =  6.0

     negative rho (up, down):  9.142E-02 0.000E+00

     total cpu time spent up to now is        0.4 secs

     total energy              =     -30.33325331 Ry
     Harris-Foulkes estimate   =     -32.23809994 Ry
     estimated scf accuracy    <       2.18915593 Ry

     iteration #  2     ecut=    30.00 Ry     beta=0.70
     Davidson diagonalization with overlap
     ethr =  1.00E-02,  avg # of iterations =  3.0

     negative rho (up, down):  6.650E-02 0.000E+00

     total cpu time spent up to now is        0.4 secs

     total energy              =     -32.30321463 Ry
     Harris-Foulkes estimate   =     -34.61467729 Ry
     estimated scf accuracy    <       5.62034793 Ry

     iteration #  3     ecut=    30.00 Ry     beta=0.70
     Davidson diagonalization with overlap
     ethr =  1.00E-02,  avg # of iterations =  2.0

     negative rho (up, down):  6.390E-02 0.000E+00

     total cpu time spent up to now is        0.5 secs

     total energy              =     -32.44894604 Ry
     Harris-Foulkes estimate   =     -32.53816515 Ry
     estimated scf accuracy    <       1.83460636 Ry

     iteration #  4     ecut=    30.00 Ry     beta=0.70
     Davidson diagonalization with overlap
     ethr =  1.00E-02,  avg # of iterations =  1.0

     negative rho (up, down):  1.184E-02 0.000E+00

     total cpu time spent up to now is        0.5 secs

     total energy              =     -31.28906880 Ry
     Harris-Foulkes estimate   =     -32.44926913 Ry
     estimated scf accuracy    <       1.71164433 Ry

     iteration #  5     ecut=    30.00 Ry     beta=0.70
     Davidson diagonalization with overlap
     ethr =  1.00E-02,  avg # of iterations =  4.0

     negative rho (up, down):  2.513E-02 0.000E+00

     total cpu time spent up to now is        0.5 secs

     total energy              =     -33.43102709 Ry
     Harris-Foulkes estimate   =     -33.25126326 Ry
     estimated scf accuracy    <       8.57164622 Ry

     iteration #  6     ecut=    30.00 Ry     beta=0.70
     Davidson diagonalization with overlap
     ethr =  1.00E-02,  avg # of iterations =  1.0

     negative rho (up, down):  2.102E-02 0.000E+00

     total cpu time spent up to now is        0.6 secs

     total energy              =     -33.29071291 Ry
     Harris-Foulkes estimate   =     -33.43803279 Ry
     estimated scf accuracy    <       9.50307596 Ry

     iteration #  7     ecut=    30.00 Ry     beta=0.70
     Davidson diagonalization with overlap
     ethr =  1.00E-02,  avg # of iterations =  1.0

     negative rho (up, down):  2.998E-02 0.000E+00

     total cpu time spent up to now is        0.6 secs

     total energy              =     -33.20553139 Ry
     Harris-Foulkes estimate   =     -33.29231835 Ry
     estimated scf accuracy    <       8.95224975 Ry

     iteration #  8     ecut=    30.00 Ry     beta=0.70
     Davidson diagonalization with overlap
     ethr =  1.00E-02,  avg # of iterations =  1.0

     negative rho (up, down):  3.082E-02 0.000E+00

     total cpu time spent up to now is        0.6 secs

     total energy              =     -32.69117082 Ry
     Harris-Foulkes estimate   =     -33.20941630 Ry
     estimated scf accuracy    <       7.54607362 Ry

     iteration #  9     ecut=    30.00 Ry     beta=0.70
     Davidson diagonalization with overlap
     ethr =  1.00E-02,  avg # of iterations =  1.0

     negative rho (up, down):  2.581E-02 0.000E+00

     total cpu time spent up to now is        0.7 secs

     total energy              =     -32.69064494 Ry
     Harris-Foulkes estimate   =     -32.83959455 Ry
     estimated scf accuracy    <       2.82113677 Ry

     iteration # 10     ecut=    30.00 Ry     beta=0.70
     Davidson diagonalization with overlap
     ethr =  1.00E-02,  avg # of iterations =  1.0

     negative rho (up, down):  7.417E-02 0.000E+00

     total cpu time spent up to now is        0.7 secs

     total energy              =     -32.51419771 Ry
     Harris-Foulkes estimate   =     -32.69259960 Ry
     estimated scf accuracy    <       2.55738593 Ry

     iteration # 11     ecut=    30.00 Ry     beta=0.70
     Davidson diagonalization with overlap
     ethr =  1.00E-02,  avg # of iterations =  1.0

     negative rho (up, down):  1.681E-01 0.000E+00

     total cpu time spent up to now is        0.7 secs

     total energy              =     -32.02087229 Ry
     Harris-Foulkes estimate   =     -32.51668107 Ry
     estimated scf accuracy    <       2.23548496 Ry

     iteration # 12     ecut=    30.00 Ry     beta=0.70
     Davidson diagonalization with overlap
     ethr =  1.00E-02,  avg # of iterations =  1.0

     negative rho (up, down):  4.061E-01 0.000E+00

     total cpu time spent up to now is        0.8 secs

     total energy              =     -32.06392829 Ry
     Harris-Foulkes estimate   =     -32.03763558 Ry
     estimated scf accuracy    <       1.39619968 Ry

     iteration # 13     ecut=    30.00 Ry     beta=0.70
     Davidson diagonalization with overlap
     ethr =  1.00E-02,  avg # of iterations =  1.0

     negative rho (up, down):  3.673E-01 0.000E+00

     total cpu time spent up to now is        0.8 secs

     total energy              =     -30.96606068 Ry
     Harris-Foulkes estimate   =     -32.06744883 Ry
     estimated scf accuracy    <       1.51671907 Ry

     iteration # 14     ecut=    30.00 Ry     beta=0.70
     Davidson diagonalization with overlap
     ethr =  1.00E-02,  avg # of iterations =  4.0

     negative rho (up, down):  1.116E-01 0.000E+00

     total cpu time spent up to now is        0.8 secs

     total energy              =     -32.68828744 Ry
     Harris-Foulkes estimate   =     -33.59259173 Ry
     estimated scf accuracy    <       3.49488482 Ry

     iteration # 15     ecut=    30.00 Ry     beta=0.70
     Davidson diagonalization with overlap
     ethr =  1.00E-02,  avg # of iterations =  1.0

     negative rho (up, down):  1.112E-01 0.000E+00

     total cpu time spent up to now is        0.9 secs

     total energy              =     -32.58903645 Ry
     Harris-Foulkes estimate   =     -32.71977415 Ry
     estimated scf accuracy    <       2.05767388 Ry

     iteration # 16     ecut=    30.00 Ry     beta=0.70
     Davidson diagonalization with overlap
     ethr =  1.00E-02,  avg # of iterations =  1.0

     negative rho (up, down):  8.994E-02 0.000E+00

     total cpu time spent up to now is        0.9 secs

     total energy              =     -32.50456991 Ry
     Harris-Foulkes estimate   =     -32.59074745 Ry
     estimated scf accuracy    <       1.84460832 Ry

     iteration # 17     ecut=    30.00 Ry     beta=0.70
     Davidson diagonalization with overlap
     ethr =  1.00E-02,  avg # of iterations =  1.0

     negative rho (up, down):  2.625E-02 0.000E+00

     total cpu time spent up to now is        0.9 secs

     total energy              =     -32.37192770 Ry
     Harris-Foulkes estimate   =     -32.50515283 Ry
     estimated scf accuracy    <       1.70315616 Ry

     iteration # 18     ecut=    30.00 Ry     beta=0.70
     Davidson diagonalization with overlap
     ethr =  1.00E-02,  avg # of iterations =  1.0

     negative rho (up, down):  4.013E-03 0.000E+00

     total cpu time spent up to now is        1.0 secs

     total energy              =     -32.09111139 Ry
     Harris-Foulkes estimate   =     -32.37214862 Ry
     estimated scf accuracy    <       1.52590214 Ry

     iteration # 19     ecut=    30.00 Ry     beta=0.70
     Davidson diagonalization with overlap
     ethr =  1.00E-02,  avg # of iterations =  1.0

     negative rho (up, down):  1.298E-03 0.000E+00

     total cpu time spent up to now is        1.0 secs

     total energy              =     -31.99536817 Ry
     Harris-Foulkes estimate   =     -32.08582855 Ry
     estimated scf accuracy    <       1.11564239 Ry

     iteration # 20     ecut=    30.00 Ry     beta=0.70
     Davidson diagonalization with overlap
     ethr =  1.00E-02,  avg # of iterations =  1.0

     negative rho (up, down):  2.319E-04 0.000E+00

     total cpu time spent up to now is        1.0 secs

     total energy              =     -31.66966348 Ry
     Harris-Foulkes estimate   =     -31.99581907 Ry
     estimated scf accuracy    <       0.98062768 Ry

     iteration # 21     ecut=    30.00 Ry     beta=0.70
     Davidson diagonalization with overlap
     ethr =  1.00E-02,  avg # of iterations =  1.0

     negative rho (up, down):  1.287E-03 0.000E+00

     total cpu time spent up to now is        1.1 secs

     total energy              =     -32.56827468 Ry
     Harris-Foulkes estimate   =     -32.30993624 Ry
     estimated scf accuracy    <       1.75537254 Ry

     iteration # 22     ecut=    30.00 Ry     beta=0.70
     Davidson diagonalization with overlap
     ethr =  1.00E-02,  avg # of iterations =  1.0

     negative rho (up, down):  2.289E-03 0.000E+00

     total cpu time spent up to now is        1.1 secs

     total energy              =     -32.42357677 Ry
     Harris-Foulkes estimate   =     -32.57388683 Ry
     estimated scf accuracy    <       2.21647295 Ry

     iteration # 23     ecut=    30.00 Ry     beta=0.70
     Davidson diagonalization with overlap
     ethr =  1.00E-02,  avg # of iterations =  1.0

     negative rho (up, down):  4.441E-04 0.000E+00

     total cpu time spent up to now is        1.1 secs

     total energy              =     -31.89259606 Ry
     Harris-Foulkes estimate   =     -32.42446232 Ry
     estimated scf accuracy    <       1.98314117 Ry

     iteration # 24     ecut=    30.00 Ry     beta=0.70
     Davidson diagonalization with overlap
     ethr =  1.00E-02,  avg # of iterations =  1.0

     negative rho (up, down):  9.772E-04 0.000E+00

     total cpu time spent up to now is        1.2 secs

     total energy              =     -31.96696748 Ry
     Harris-Foulkes estimate   =     -31.95444513 Ry
     estimated scf accuracy    <       0.48338564 Ry

     iteration # 25     ecut=    30.00 Ry     beta=0.70
     Davidson diagonalization with overlap
     ethr =  6.04E-03,  avg # of iterations =  1.0

     negative rho (up, down):  2.014E-03 0.000E+00

     total cpu time spent up to now is        1.2 secs

     total energy              =     -31.97393393 Ry
     Harris-Foulkes estimate   =     -31.97000756 Ry
     estimated scf accuracy    <       0.86918512 Ry

     iteration # 26     ecut=    30.00 Ry     beta=0.70
     Davidson diagonalization with overlap
     ethr =  6.04E-03,  avg # of iterations =  1.0

     negative rho (up, down):  2.228E-03 0.000E+00

     total cpu time spent up to now is        1.2 secs

     total energy              =     -31.83975617 Ry
     Harris-Foulkes estimate   =     -31.97407697 Ry
     estimated scf accuracy    <       0.91622123 Ry

     iteration # 27     ecut=    30.00 Ry     beta=0.70
     Davidson diagonalization with overlap
     ethr =  6.04E-03,  avg # of iterations =  1.0

     negative rho (up, down):  1.044E-03 0.000E+00

     total cpu time spent up to now is        1.2 secs

     total energy              =     -31.90151366 Ry
     Harris-Foulkes estimate   =     -32.05345007 Ry
     estimated scf accuracy    <       1.33193296 Ry

     iteration # 28     ecut=    30.00 Ry     beta=0.70
     Davidson diagonalization with overlap
     ethr =  6.04E-03,  avg # of iterations =  1.0

     negative rho (up, down):  2.570E-04 0.000E+00

     total cpu time spent up to now is        1.3 secs

     total energy              =     -31.96667040 Ry
     Harris-Foulkes estimate   =     -31.96115156 Ry
     estimated scf accuracy    <       0.70330324 Ry

     iteration # 29     ecut=    30.00 Ry     beta=0.70
     Davidson diagonalization with overlap
     ethr =  6.04E-03,  avg # of iterations =  1.0

     negative rho (up, down):  2.983E-04 0.000E+00

     total cpu time spent up to now is        1.3 secs

     total energy              =     -31.98012724 Ry
     Harris-Foulkes estimate   =     -31.96696965 Ry
     estimated scf accuracy    <       0.82585639 Ry

     iteration # 30     ecut=    30.00 Ry     beta=0.70
     Davidson diagonalization with overlap
     ethr =  6.04E-03,  avg # of iterations =  1.0

     negative rho (up, down):  3.334E-04 0.000E+00

     total cpu time spent up to now is        1.3 secs

     total energy              =     -31.98816940 Ry
     Harris-Foulkes estimate   =     -31.98060689 Ry
     estimated scf accuracy    <       0.93823736 Ry

     iteration # 31     ecut=    30.00 Ry     beta=0.70
     Davidson diagonalization with overlap
     ethr =  6.04E-03,  avg # of iterations =  1.0

     negative rho (up, down):  2.987E-04 0.000E+00

     total cpu time spent up to now is        1.4 secs

     total energy              =     -31.98896301 Ry
     Harris-Foulkes estimate   =     -31.98819548 Ry
     estimated scf accuracy    <       0.95828499 Ry

     iteration # 32     ecut=    30.00 Ry     beta=0.70
     Davidson diagonalization with overlap
     ethr =  6.04E-03,  avg # of iterations =  1.0

     negative rho (up, down):  7.259E-04 0.000E+00

     total cpu time spent up to now is        1.4 secs

     total energy              =     -31.76255066 Ry
     Harris-Foulkes estimate   =     -31.98896360 Ry
     estimated scf accuracy    <       0.96005081 Ry

     iteration # 33     ecut=    30.00 Ry     beta=0.70
     Davidson diagonalization with overlap
     ethr =  6.04E-03,  avg # of iterations =  1.0

     negative rho (up, down):  5.516E-04 0.000E+00

     total cpu time spent up to now is        1.4 secs

     total energy              =     -32.05442485 Ry
     Harris-Foulkes estimate   =     -32.15686294 Ry
     estimated scf accuracy    <       1.51499237 Ry

     iteration # 34     ecut=    30.00 Ry     beta=0.70
     Davidson diagonalization with overlap
     ethr =  6.04E-03,  avg # of iterations =  1.0

     negative rho (up, down):  1.214E-04 0.000E+00

     total cpu time spent up to now is        1.5 secs

     total energy              =     -31.96475077 Ry
     Harris-Foulkes estimate   =     -32.05522332 Ry
     estimated scf accuracy    <       1.35459513 Ry

     iteration # 35     ecut=    30.00 Ry     beta=0.70
     Davidson diagonalization with overlap
     ethr =  6.04E-03,  avg # of iterations =  1.0

     negative rho (up, down):  6.839E-05 0.000E+00

     total cpu time spent up to now is        1.5 secs

     total energy              =     -31.77557448 Ry
     Harris-Foulkes estimate   =     -31.96161767 Ry
     estimated scf accuracy    <       1.10240457 Ry

     iteration # 36     ecut=    30.00 Ry     beta=0.70
     Davidson diagonalization with overlap
     ethr =  6.04E-03,  avg # of iterations =  1.0

     negative rho (up, down):  8.062E-05 0.000E+00

     total cpu time spent up to now is        1.5 secs

     total energy              =     -32.10256710 Ry
     Harris-Foulkes estimate   =     -32.08947765 Ry
     estimated scf accuracy    <       1.11178633 Ry

     iteration # 37     ecut=    30.00 Ry     beta=0.70
     Davidson diagonalization with overlap
     ethr =  6.04E-03,  avg # of iterations =  1.0

     negative rho (up, down):  1.248E-04 0.000E+00

     total cpu time spent up to now is        1.6 secs

     total energy              =     -32.07959719 Ry
     Harris-Foulkes estimate   =     -32.10265249 Ry
     estimated scf accuracy    <       1.13221311 Ry

     iteration # 38     ecut=    30.00 Ry     beta=0.70
     Davidson diagonalization with overlap
     ethr =  6.04E-03,  avg # of iterations =  1.0

     negative rho (up, down):  1.237E-04 0.000E+00

     total cpu time spent up to now is        1.6 secs

     total energy              =     -32.07894743 Ry
     Harris-Foulkes estimate   =     -32.07960906 Ry
     estimated scf accuracy    <       1.10252674 Ry

     iteration # 39     ecut=    30.00 Ry     beta=0.70
     Davidson diagonalization with overlap
     ethr =  6.04E-03,  avg # of iterations =  1.0

     negative rho (up, down):  1.061E-04 0.000E+00

     total cpu time spent up to now is        1.6 secs

     total energy              =     -32.06809539 Ry
     Harris-Foulkes estimate   =     -32.07894828 Ry
     estimated scf accuracy    <       1.10118992 Ry

     iteration # 40     ecut=    30.00 Ry     beta=0.70
     Davidson diagonalization with overlap
     ethr =  6.04E-03,  avg # of iterations =  1.0

     negative rho (up, down):  9.638E-05 0.000E+00

     total cpu time spent up to now is        1.7 secs

     total energy              =     -32.12582686 Ry
     Harris-Foulkes estimate   =     -32.06810320 Ry
     estimated scf accuracy    <       1.08483077 Ry

     iteration # 41     ecut=    30.00 Ry     beta=0.70
     Davidson diagonalization with overlap
     ethr =  6.04E-03,  avg # of iterations =  1.0

     negative rho (up, down):  5.595E-05 0.000E+00

     total cpu time spent up to now is        1.7 secs

     total energy              =     -32.04997138 Ry
     Harris-Foulkes estimate   =     -32.12599746 Ry
     estimated scf accuracy    <       1.17126278 Ry

     iteration # 42     ecut=    30.00 Ry     beta=0.70
     Davidson diagonalization with overlap
     ethr =  6.04E-03,  avg # of iterations =  1.0

     negative rho (up, down):  1.341E-05 0.000E+00

     total cpu time spent up to now is        1.8 secs

     total energy              =     -31.87235811 Ry
     Harris-Foulkes estimate   =     -32.05025490 Ry
     estimated scf accuracy    <       1.05932084 Ry

     iteration # 43     ecut=    30.00 Ry     beta=0.70
     Davidson diagonalization with overlap
     ethr =  6.04E-03,  avg # of iterations =  1.0

     negative rho (up, down):  1.488E-05 0.000E+00

     total cpu time spent up to now is        1.8 secs

     total energy              =     -31.97031101 Ry
     Harris-Foulkes estimate   =     -32.00315302 Ry
     estimated scf accuracy    <       1.37614079 Ry

     iteration # 44     ecut=    30.00 Ry     beta=0.70
     Davidson diagonalization with overlap
     ethr =  6.04E-03,  avg # of iterations =  1.0

     negative rho (up, down):  1.023E-05 0.000E+00

     total cpu time spent up to now is        1.8 secs

     total energy              =     -31.86819996 Ry
     Harris-Foulkes estimate   =     -31.96840795 Ry
     estimated scf accuracy    <       1.41329176 Ry

     iteration # 45     ecut=    30.00 Ry     beta=0.70
     Davidson diagonalization with overlap
     ethr =  6.04E-03,  avg # of iterations =  1.0

     negative rho (up, down):  8.482E-06 0.000E+00

     total cpu time spent up to now is        1.9 secs

     total energy              =     -31.93019912 Ry
     Harris-Foulkes estimate   =     -31.98088169 Ry
     estimated scf accuracy    <       0.93566035 Ry

     iteration # 46     ecut=    30.00 Ry     beta=0.70
     Davidson diagonalization with overlap
     ethr =  6.04E-03,  avg # of iterations =  1.0

     negative rho (up, down):  2.465E-08 0.000E+00

     total cpu time spent up to now is        1.9 secs

     total energy              =     -31.94646940 Ry
     Harris-Foulkes estimate   =     -31.94616974 Ry
     estimated scf accuracy    <       0.00211380 Ry

     iteration # 47     ecut=    30.00 Ry     beta=0.70
     Davidson diagonalization with overlap
     ethr =  2.64E-05,  avg # of iterations =  1.0

     negative rho (up, down):  2.830E-08 0.000E+00

     total cpu time spent up to now is        1.9 secs

     total energy              =     -31.94460703 Ry
     Harris-Foulkes estimate   =     -31.94733414 Ry
     estimated scf accuracy    <       0.09592217 Ry

     iteration # 48     ecut=    30.00 Ry     beta=0.70
     Davidson diagonalization with overlap
     ethr =  2.64E-05,  avg # of iterations =  1.0

     total cpu time spent up to now is        2.0 secs

     total energy              =     -31.94534628 Ry
     Harris-Foulkes estimate   =     -31.94618325 Ry
     estimated scf accuracy    <       0.00208598 Ry

     iteration # 49     ecut=    30.00 Ry     beta=0.70
     Davidson diagonalization with overlap
     ethr =  2.61E-05,  avg # of iterations =  1.0

     total cpu time spent up to now is        2.0 secs

     total energy              =     -31.93949321 Ry
     Harris-Foulkes estimate   =     -31.95443934 Ry
     estimated scf accuracy    <       0.64877097 Ry

     iteration # 50     ecut=    30.00 Ry     beta=0.70
     Davidson diagonalization with overlap
     ethr =  2.61E-05,  avg # of iterations =  1.0

     total cpu time spent up to now is        2.0 secs

     total energy              =     -31.94504722 Ry
     Harris-Foulkes estimate   =     -31.94620834 Ry
     estimated scf accuracy    <       0.00416726 Ry

     iteration # 51     ecut=    30.00 Ry     beta=0.70
     Davidson diagonalization with overlap
     ethr =  2.61E-05,  avg # of iterations =  1.0

     total cpu time spent up to now is        2.1 secs

     total energy              =     -31.93434710 Ry
     Harris-Foulkes estimate   =     -31.95212735 Ry
     estimated scf accuracy    <       0.36468433 Ry

     iteration # 52     ecut=    30.00 Ry     beta=0.70
     Davidson diagonalization with overlap
     ethr =  2.61E-05,  avg # of iterations =  2.0

     total cpu time spent up to now is        2.1 secs

     total energy              =     -31.94451118 Ry
     Harris-Foulkes estimate   =     -31.94880824 Ry
     estimated scf accuracy    <       0.21524721 Ry

     iteration # 53     ecut=    30.00 Ry     beta=0.70
     Davidson diagonalization with overlap
     ethr =  2.61E-05,  avg # of iterations =  1.0

     total cpu time spent up to now is        2.1 secs

     total energy              =     -31.94603387 Ry
     Harris-Foulkes estimate   =     -31.94625190 Ry
     estimated scf accuracy    <       0.00738460 Ry

     iteration # 54     ecut=    30.00 Ry     beta=0.70
     Davidson diagonalization with overlap
     ethr =  2.61E-05,  avg # of iterations =  1.0

     total cpu time spent up to now is        2.2 secs

     total energy              =     -31.94614717 Ry
     Harris-Foulkes estimate   =     -31.94616215 Ry
     estimated scf accuracy    <       0.00022859 Ry

     iteration # 55     ecut=    30.00 Ry     beta=0.70
     Davidson diagonalization with overlap
     ethr =  2.86E-06,  avg # of iterations = 12.0

     total cpu time spent up to now is        2.2 secs

     total energy              =     -31.94616201 Ry
     Harris-Foulkes estimate   =     -31.94616825 Ry
     estimated scf accuracy    <       0.00066268 Ry

     iteration # 56     ecut=    30.00 Ry     beta=0.70
     Davidson diagonalization with overlap
     ethr =  2.86E-06,  avg # of iterations =  1.0

     total cpu time spent up to now is        2.2 secs

     total energy              =     -31.94615821 Ry
     Harris-Foulkes estimate   =     -31.94616308 Ry
     estimated scf accuracy    <       0.00027601 Ry

     iteration # 57     ecut=    30.00 Ry     beta=0.70
     Davidson diagonalization with overlap
     ethr =  2.86E-06,  avg # of iterations =  1.0

     total cpu time spent up to now is        2.3 secs

     total energy              =     -31.94615945 Ry
     Harris-Foulkes estimate   =     -31.94615968 Ry
     estimated scf accuracy    <       0.00003481 Ry

     iteration # 58     ecut=    30.00 Ry     beta=0.70
     Davidson diagonalization with overlap
     ethr =  4.35E-07,  avg # of iterations =  1.0

     total cpu time spent up to now is        2.3 secs

     total energy              =     -31.94615903 Ry
     Harris-Foulkes estimate   =     -31.94615946 Ry
     estimated scf accuracy    <       0.00002566 Ry

     iteration # 59     ecut=    30.00 Ry     beta=0.70
     Davidson diagonalization with overlap
     ethr =  3.21E-07,  avg # of iterations =  1.0

     total cpu time spent up to now is        2.3 secs

     total energy              =     -31.94615825 Ry
     Harris-Foulkes estimate   =     -31.94615906 Ry
     estimated scf accuracy    <       0.00001437 Ry

     iteration # 60     ecut=    30.00 Ry     beta=0.70
     Davidson diagonalization with overlap
     ethr =  1.80E-07,  avg # of iterations =  1.0

     total cpu time spent up to now is        2.4 secs

     total energy              =     -31.94615851 Ry
     Harris-Foulkes estimate   =     -31.94615851 Ry
     estimated scf accuracy    <       0.00000047 Ry

     iteration # 61     ecut=    30.00 Ry     beta=0.70
     Davidson diagonalization with overlap
     ethr =  5.91E-09,  avg # of iterations =  1.0

     total cpu time spent up to now is        2.4 secs

     End of self-consistent calculation

          k = 0.0000 0.0000 0.0000 ( 22119 PWs)   bands (ev):

   -24.8010 -10.6475  -7.0554  -7.0543  -6.9160  -0.7104   0.3500   0.8163

     the Fermi energy is    -6.8847 ev

!    total energy              =     -31.94615852 Ry
     Harris-Foulkes estimate   =     -31.94615852 Ry
     estimated scf accuracy    <          2.8E-09 Ry

     convergence has been achieved in  61 iterations

     Forces acting on atoms (Ry/au):

     atom    1 type  1   force =     0.00261293   -0.01314202   -0.01088826
     atom    2 type  1   force =     0.00019067    0.00042990   -0.00056103
     atom    3 type  2   force =    -0.00280360    0.01271212    0.01144929

     Total force =     0.024478     Total SCF correction =     0.000016

     Molecular Dynamics Calculation

     Starting temperature  =  1000.00 K

     temperature is controlled by Andersen thermostat
     Collision frequency = 1.0000/timestep
     mass H                =     1.01
     mass O                =    16.00
     Time step             =   100.00 a.u.,  4.8378 femto-seconds

     Entering Dynamics:    iteration =     1
                           time      =   0.0048 pico-seconds


     Andersen thermostat:    3 collisions

ATOMIC_POSITIONS (bohr)
H        3.257325173   8.274546476   5.335897711
H        4.145895017   0.639351006  17.154834658
O        2.737603352   9.634461402   6.783219421


     kinetic energy (Ekin) =     0.01319564 Ry
     temperature           =   694.47456190 K 
     Ekin + Etot (const)   =   -31.93296288 Ry

     Linear momentum :   -0.0000000000   -0.0000000000   -0.0000000000

     Writing output data file pwscf.save
     Check: negative starting charge=   -0.349588
     NEW-OLD atomic charge density approx. for the potential
     Check: negative starting charge=   -0.350442

     negative rho (up, down):  8.732E-02 0.000E+00

     total cpu time spent up to now is        2.7 secs

     per-process dynamical memory:    20.4 Mb

     Self-consistent Calculation

     iteration #  1     ecut=    30.00 Ry     beta=0.70
     Davidson diagonalization with overlap
     ethr =  1.00E-06,  avg # of iterations = 20.0

     negative rho (up, down):  2.110E-02 0.000E+00

     total cpu time spent up to now is        2.8 secs

     total energy              =     -31.88991814 Ry
     Harris-Foulkes estimate   =     -31.87902794 Ry
     estimated scf accuracy    <       0.04867533 Ry

     iteration #  2     ecut=    30.00 Ry     beta=0.70
     Davidson diagonalization with overlap
     ethr =  6.08E-04,  avg # of iterations =  3.0

     negative rho (up, down):  1.860E-02 0.000E+00

     total cpu time spent up to now is        2.8 secs

     total energy              =     -31.93407369 Ry
     Harris-Foulkes estimate   =     -32.18021515 Ry
     estimated scf accuracy    <       1.36915960 Ry

     iteration #  3     ecut=    30.00 Ry     beta=0.70
     Davidson diagonalization with overlap
     ethr =  6.08E-04,  avg # of iterations =  2.0

     negative rho (up, down):  1.798E-02 0.000E+00

     total cpu time spent up to now is        2.9 secs

     total energy              =     -31.92768880 Ry
     Harris-Foulkes estimate   =     -31.94520748 Ry
     estimated scf accuracy    <       0.74744359 Ry

     iteration #  4     ecut=    30.00 Ry     beta=0.70
     Davidson diagonalization with overlap
     ethr =  6.08E-04,  avg # of iterations =  1.0

     negative rho (up, down):  2.502E-03 0.000E+00

     total cpu time spent up to now is        2.9 secs

     total energy              =     -31.93241448 Ry
     Harris-Foulkes estimate   =     -31.93150892 Ry
     estimated scf accuracy    <       0.17828684 Ry

     iteration #  5     ecut=    30.00 Ry     beta=0.70
     Davidson diagonalization with overlap
     ethr =  6.08E-04,  avg # of iterations =  2.0

     negative rho (up, down):  7.344E-04 0.000E+00

     total cpu time spent up to now is        3.0 secs

     total energy              =     -31.94279404 Ry
     Harris-Foulkes estimate   =     -31.95484618 Ry
     estimated scf accuracy    <       0.80298119 Ry

     iteration #  6     ecut=    30.00 Ry     beta=0.70
     Davidson diagonalization with overlap
     ethr =  6.08E-04,  avg # of iterations =  1.0

     negative rho (up, down):  2.672E-05 0.000E+00

     total cpu time spent up to now is        3.0 secs

     total energy              =     -31.93953961 Ry
     Harris-Foulkes estimate   =     -31.94683138 Ry
     estimated scf accuracy    <       0.11039967 Ry

     iteration #  7     ecut=    30.00 Ry     beta=0.70
     Davidson diagonalization with overlap
     ethr =  6.08E-04,  avg # of iterations =  1.0

     negative rho (up, down):  6.124E-07 0.000E+00

     total cpu time spent up to now is        3.0 secs

     total energy              =     -31.94405285 Ry
     Harris-Foulkes estimate   =     -31.94919847 Ry
     estimated scf accuracy    <       0.24155750 Ry

     iteration #  8     ecut=    30.00 Ry     beta=0.70
     Davidson diagonalization with overlap
     ethr =  6.08E-04,  avg # of iterations =  1.0

     negative rho (up, down):  2.294E-08 0.000E+00

     total cpu time spent up to now is        3.1 secs

     total energy              =     -31.94551443 Ry
     Harris-Foulkes estimate   =     -31.94578133 Ry
     estimated scf accuracy    <       0.02038889 Ry

     iteration #  9     ecut=    30.00 Ry     beta=0.70
     Davidson diagonalization with overlap
     ethr =  2.55E-04,  avg # of iterations =  1.0

     total cpu time spent up to now is        3.1 secs

     total energy              =     -31.94549357 Ry
     Harris-Foulkes estimate   =     -31.94557973 Ry
     estimated scf accuracy    <       0.00522497 Ry

     iteration # 10     ecut=    30.00 Ry     beta=0.70
     Davidson diagonalization with overlap
     ethr =  6.53E-05,  avg # of iterations =  1.0

     total cpu time spent up to now is        3.2 secs

     total energy              =     -31.94549604 Ry
     Harris-Foulkes estimate   =     -31.94552066 Ry
     estimated scf accuracy    <       0.00069715 Ry

     iteration # 11     ecut=    30.00 Ry     beta=0.70
     Davidson diagonalization with overlap
     ethr =  8.71E-06,  avg # of iterations =  3.0

     total cpu time spent up to now is        3.2 secs

     total energy              =     -31.94551143 Ry
     Harris-Foulkes estimate   =     -31.94551320 Ry
     estimated scf accuracy    <       0.00010754 Ry

     iteration # 12     ecut=    30.00 Ry     beta=0.70
     Davidson diagonalization with overlap
     ethr =  1.34E-06,  avg # of iterations = 13.0

     total cpu time spent up to now is        3.3 secs

     total energy              =     -31.94551046 Ry
     Harris-Foulkes estimate   =     -31.94551185 Ry
     estimated scf accuracy    <       0.00002135 Ry

     iteration # 13     ecut=    30.00 Ry     beta=0.70
     Davidson diagonalization with overlap
     ethr =  2.67E-07,  avg # of iterations =  1.0

     total cpu time spent up to now is        3.3 secs

     total energy              =     -31.94551106 Ry
     Harris-Foulkes estimate   =     -31.94551140 Ry
     estimated scf accuracy    <       0.00001600 Ry

     iteration # 14     ecut=    30.00 Ry     beta=0.70
     Davidson diagonalization with overlap
     ethr =  2.00E-07,  avg # of iterations =  1.0

     total cpu time spent up to now is        3.3 secs

     total energy              =     -31.94551118 Ry
     Harris-Foulkes estimate   =     -31.94551116 Ry
     estimated scf accuracy    <       0.00000120 Ry

     iteration # 15     ecut=    30.00 Ry     beta=0.70
     Davidson diagonalization with overlap
     ethr =  1.49E-08,  avg # of iterations =  1.0

     total cpu time spent up to now is        3.4 secs

     total energy              =     -31.94551118 Ry
     Harris-Foulkes estimate   =     -31.94551119 Ry
     estimated scf accuracy    <       0.00000009 Ry

     iteration # 16     ecut=    30.00 Ry     beta=0.70
     Davidson diagonalization with overlap
     ethr =  1.14E-09,  avg # of iterations =  1.0

     total cpu time spent up to now is        3.4 secs

     End of self-consistent calculation

          k = 0.0000 0.0000 0.0000 ( 22119 PWs)   bands (ev):

   -24.6474 -10.5515  -7.0402  -7.0391  -6.9014  -0.7925   0.3059   0.8117

     the Fermi energy is    -6.8696 ev

!    total energy              =     -31.94551119 Ry
     Harris-Foulkes estimate   =     -31.94551118 Ry
     estimated scf accuracy    <          4.8E-10 Ry

     convergence has been achieved in  16 iterations

     Forces acting on atoms (Ry/au):

     atom    1 type  1   force =    -0.01021014    0.02693976    0.02841318
     atom    2 type  1   force =     0.00022190    0.00018986   -0.00031604
     atom    3 type  2   force =     0.00998824   -0.02712962   -0.02809714

     Total force =     0.057120     Total SCF correction =     0.000129

     Entering Dynamics:    iteration =     2
                           time      =   0.0097 pico-seconds


     Andersen thermostat:    3 collisions

ATOMIC_POSITIONS (bohr)
H        3.198826403   8.743342081   5.789679896
H        4.211561982   0.487562824  17.327642744
O        2.737150860   9.614450308   6.743665910


     kinetic energy (Ekin) =     0.01523575 Ry
     temperature           =   801.84396272 K 
     Ekin + Etot (const)   =   -31.93027544 Ry
     Message from routine dynamics:
     Total linear momentum <> 0

     Linear momentum :   -0.0482643422    0.4839037204    0.0463385468

     Writing output data file pwscf.save

     first order wave-functions extrapolation
     Check: negative starting charge=   -0.350442
     first order charge density extrapolation
     Check: negative starting charge=   -0.351714

     negative rho (up, down):  1.799E-01 0.000E+00

     total cpu time spent up to now is        3.7 secs

     per-process dynamical memory:    20.4 Mb

     Self-consistent Calculation

     iteration #  1     ecut=    30.00 Ry     beta=0.70
     Davidson diagonalization with overlap
     c_bands:  1 eigenvalues not converged
     ethr =  1.00E-06,  avg # of iterations = 20.0

     negative rho (up, down):  4.697E-02 0.000E+00

     total cpu time spent up to now is        3.8 secs

     total energy              =     -30.73614764 Ry
     Harris-Foulkes estimate   =     -31.67664604 Ry
     estimated scf accuracy    <       1.25427897 Ry

     iteration #  2     ecut=    30.00 Ry     beta=0.70
     Davidson diagonalization with overlap
     ethr =  1.00E-02,  avg # of iterations =  3.0

     negative rho (up, down):  4.198E-03 0.000E+00

     total cpu time spent up to now is        3.9 secs

     total energy              =     -30.34426883 Ry
     Harris-Foulkes estimate   =     -34.09111470 Ry
     estimated scf accuracy    <      13.81451788 Ry

     iteration #  3     ecut=    30.00 Ry     beta=0.70
     Davidson diagonalization with overlap
     ethr =  1.00E-02,  avg # of iterations =  5.0

     negative rho (up, down):  5.551E-03 0.000E+00

     total cpu time spent up to now is        3.9 secs

     total energy              =     -31.67117644 Ry
     Harris-Foulkes estimate   =     -31.82070610 Ry
     estimated scf accuracy    <       1.83947335 Ry

     iteration #  4     ecut=    30.00 Ry     beta=0.70
     Davidson diagonalization with overlap
     ethr =  1.00E-02,  avg # of iterations =  1.0

     negative rho (up, down):  1.573E-01 0.000E+00

     total cpu time spent up to now is        3.9 secs

     total energy              =     -31.16903006 Ry
     Harris-Foulkes estimate   =     -31.67437259 Ry
     estimated scf accuracy    <       1.54811103 Ry

     iteration #  5     ecut=    30.00 Ry     beta=0.70
     Davidson diagonalization with overlap
     ethr =  1.00E-02,  avg # of iterations =  1.0

     negative rho (up, down):  3.838E-01 0.000E+00

     total cpu time spent up to now is        4.0 secs

     total energy              =     -30.85252861 Ry
     Harris-Foulkes estimate   =     -31.20198957 Ry
     estimated scf accuracy    <       0.71670999 Ry

     iteration #  6     ecut=    30.00 Ry     beta=0.70
     Davidson diagonalization with overlap
     ethr =  8.96E-03,  avg # of iterations =  6.0

     negative rho (up, down):  1.820E-01 0.000E+00

     total cpu time spent up to now is        4.0 secs

     total energy              =     -32.24354614 Ry
     Harris-Foulkes estimate   =     -32.83117336 Ry
     estimated scf accuracy    <       2.74693562 Ry

     iteration #  7     ecut=    30.00 Ry     beta=0.70
     Davidson diagonalization with overlap
     ethr =  8.96E-03,  avg # of iterations =  1.0

     negative rho (up, down):  1.156E-01 0.000E+00

     total cpu time spent up to now is        4.0 secs

     total energy              =     -32.09809082 Ry
     Harris-Foulkes estimate   =     -32.25146068 Ry
     estimated scf accuracy    <       1.83038067 Ry

     iteration #  8     ecut=    30.00 Ry     beta=0.70
     Davidson diagonalization with overlap
     ethr =  8.96E-03,  avg # of iterations =  1.0

     negative rho (up, down):  1.220E-01 0.000E+00

     total cpu time spent up to now is        4.1 secs

     total energy              =     -32.11993092 Ry
     Harris-Foulkes estimate   =     -32.09877757 Ry
     estimated scf accuracy    <       1.59514914 Ry

     iteration #  9     ecut=    30.00 Ry     beta=0.70
     Davidson diagonalization with overlap
     ethr =  8.96E-03,  avg # of iterations =  1.0

     negative rho (up, down):  9.250E-02 0.000E+00

     total cpu time spent up to now is        4.1 secs

     total energy              =     -32.03131566 Ry
     Harris-Foulkes estimate   =     -32.11995459 Ry
     estimated scf accuracy    <       1.62059715 Ry

     iteration # 10     ecut=    30.00 Ry     beta=0.70
     Davidson diagonalization with overlap
     ethr =  8.96E-03,  avg # of iterations =  1.0

     total cpu time spent up to now is        4.1 secs

     total energy              =     -31.36014420 Ry
     Harris-Foulkes estimate   =     -32.03143137 Ry
     estimated scf accuracy    <       1.49224740 Ry

     iteration # 11     ecut=    30.00 Ry     beta=0.70
     Davidson diagonalization with overlap
     ethr =  8.96E-03,  avg # of iterations =  2.0

     negative rho (up, down):  5.547E-04 0.000E+00

     total cpu time spent up to now is        4.2 secs

     total energy              =     -31.62399845 Ry
     Harris-Foulkes estimate   =     -32.00556349 Ry
     estimated scf accuracy    <       2.02037884 Ry

     iteration # 12     ecut=    30.00 Ry     beta=0.70
     Davidson diagonalization with overlap
     ethr =  8.96E-03,  avg # of iterations =  1.0

     negative rho (up, down):  7.050E-05 0.000E+00

     total cpu time spent up to now is        4.2 secs

     total energy              =     -31.64376752 Ry
     Harris-Foulkes estimate   =     -31.64800828 Ry
     estimated scf accuracy    <       0.27036866 Ry

     iteration # 13     ecut=    30.00 Ry     beta=0.70
     Davidson diagonalization with overlap
     ethr =  3.38E-03,  avg # of iterations =  1.0

     negative rho (up, down):  2.582E-05 0.000E+00

     total cpu time spent up to now is        4.2 secs

     total energy              =     -31.64610953 Ry
     Harris-Foulkes estimate   =     -31.64508471 Ry
     estimated scf accuracy    <       0.15035493 Ry

     iteration # 14     ecut=    30.00 Ry     beta=0.70
     Davidson diagonalization with overlap
     ethr =  1.88E-03,  avg # of iterations =  1.0

     negative rho (up, down):  6.247E-03 0.000E+00

     total cpu time spent up to now is        4.3 secs

     total energy              =     -31.69107881 Ry
     Harris-Foulkes estimate   =     -31.69781379 Ry
     estimated scf accuracy    <       0.97255338 Ry

     iteration # 15     ecut=    30.00 Ry     beta=0.70
     Davidson diagonalization with overlap
     ethr =  1.88E-03,  avg # of iterations =  1.0

     negative rho (up, down):  7.359E-03 0.000E+00

     total cpu time spent up to now is        4.3 secs

     total energy              =     -31.65713900 Ry
     Harris-Foulkes estimate   =     -31.69232372 Ry
     estimated scf accuracy    <       0.93279741 Ry

     iteration # 16     ecut=    30.00 Ry     beta=0.70
     Davidson diagonalization with overlap
     ethr =  1.88E-03,  avg # of iterations =  1.0

     negative rho (up, down):  1.123E-02 0.000E+00

     total cpu time spent up to now is        4.3 secs

     total energy              =     -31.65668909 Ry
     Harris-Foulkes estimate   =     -31.65929851 Ry
     estimated scf accuracy    <       0.57020138 Ry

     iteration # 17     ecut=    30.00 Ry     beta=0.70
     Davidson diagonalization with overlap
     ethr =  1.88E-03,  avg # of iterations =  1.0

     negative rho (up, down):  2.169E-02 0.000E+00

     total cpu time spent up to now is        4.4 secs

     total energy              =     -31.67609296 Ry
     Harris-Foulkes estimate   =     -31.65691670 Ry
     estimated scf accuracy    <       0.46139032 Ry

     iteration # 18     ecut=    30.00 Ry     beta=0.70
     Davidson diagonalization with overlap
     ethr =  1.88E-03,  avg # of iterations =  1.0

     negative rho (up, down):  3.494E-02 0.000E+00

     total cpu time spent up to now is        4.4 secs

     total energy              =     -31.68915091 Ry
     Harris-Foulkes estimate   =     -31.67824045 Ry
     estimated scf accuracy    <       0.80643433 Ry

     iteration # 19     ecut=    30.00 Ry     beta=0.70
     Davidson diagonalization with overlap
     ethr =  1.88E-03,  avg # of iterations =  1.0

     negative rho (up, down):  7.392E-04 0.000E+00

     total cpu time spent up to now is        4.4 secs

     total energy              =     -31.48908360 Ry
     Harris-Foulkes estimate   =     -31.68923728 Ry
     estimated scf accuracy    <       0.87714659 Ry

     iteration # 20     ecut=    30.00 Ry     beta=0.70
     Davidson diagonalization with overlap
     ethr =  1.88E-03,  avg # of iterations =  2.0

     total cpu time spent up to now is        4.5 secs

     total energy              =     -31.58525169 Ry
     Harris-Foulkes estimate   =     -31.77050500 Ry
     estimated scf accuracy    <       1.54534573 Ry

     iteration # 21     ecut=    30.00 Ry     beta=0.70
     Davidson diagonalization with overlap
     ethr =  1.88E-03,  avg # of iterations =  1.0

     negative rho (up, down):  4.919E-05 0.000E+00

     total cpu time spent up to now is        4.5 secs

     total energy              =     -31.61185012 Ry
     Harris-Foulkes estimate   =     -31.61833826 Ry
     estimated scf accuracy    <       0.04813549 Ry

     iteration # 22     ecut=    30.00 Ry     beta=0.70
     Davidson diagonalization with overlap
     ethr =  6.02E-04,  avg # of iterations =  1.0

     total cpu time spent up to now is        4.5 secs

     total energy              =     -31.60043449 Ry
     Harris-Foulkes estimate   =     -31.61673907 Ry
     estimated scf accuracy    <       0.21236719 Ry

     iteration # 23     ecut=    30.00 Ry     beta=0.70
     Davidson diagonalization with overlap
     ethr =  6.02E-04,  avg # of iterations =  1.0

     total cpu time spent up to now is        4.6 secs

     total energy              =     -31.59599331 Ry
     Harris-Foulkes estimate   =     -31.63208871 Ry
     estimated scf accuracy    <       0.66351929 Ry

     iteration # 24     ecut=    30.00 Ry     beta=0.70
     Davidson diagonalization with overlap
     ethr =  6.02E-04,  avg # of iterations =  1.0

     total cpu time spent up to now is        4.6 secs

     total energy              =     -31.61133825 Ry
     Harris-Foulkes estimate   =     -31.61512487 Ry
     estimated scf accuracy    <       0.11113879 Ry

     iteration # 25     ecut=    30.00 Ry     beta=0.70
     Davidson diagonalization with overlap
     ethr =  6.02E-04,  avg # of iterations =  1.0

     total cpu time spent up to now is        4.6 secs

     total energy              =     -31.61309271 Ry
     Harris-Foulkes estimate   =     -31.61395957 Ry
     estimated scf accuracy    <       0.01371656 Ry

     iteration # 26     ecut=    30.00 Ry     beta=0.70
     Davidson diagonalization with overlap
     ethr =  1.71E-04,  avg # of iterations =  1.0

     total cpu time spent up to now is        4.7 secs

     total energy              =     -31.61315718 Ry
     Harris-Foulkes estimate   =     -31.61402139 Ry
     estimated scf accuracy    <       0.02093874 Ry

     iteration # 27     ecut=    30.00 Ry     beta=0.70
     Davidson diagonalization with overlap
     ethr =  1.71E-04,  avg # of iterations =  1.0

     negative rho (up, down):  4.420E-08 0.000E+00

     total cpu time spent up to now is        4.7 secs

     total energy              =     -31.61368579 Ry
     Harris-Foulkes estimate   =     -31.61383956 Ry
     estimated scf accuracy    <       0.00617652 Ry

     iteration # 28     ecut=    30.00 Ry     beta=0.70
     Davidson diagonalization with overlap
     ethr =  7.72E-05,  avg # of iterations =  1.0

     total cpu time spent up to now is        4.7 secs

     total energy              =     -31.61373707 Ry
     Harris-Foulkes estimate   =     -31.61374719 Ry
     estimated scf accuracy    <       0.00021664 Ry

     iteration # 29     ecut=    30.00 Ry     beta=0.70
     Davidson diagonalization with overlap
     ethr =  2.71E-06,  avg # of iterations = 10.0

     total cpu time spent up to now is        4.8 secs

     total energy              =     -31.61374442 Ry
     Harris-Foulkes estimate   =     -31.61374486 Ry
     estimated scf accuracy    <       0.00009607 Ry

     iteration # 30     ecut=    30.00 Ry     beta=0.70
     Davidson diagonalization with overlap
     ethr =  1.20E-06,  avg # of iterations =  1.0

     total cpu time spent up to now is        4.8 secs

     total energy              =     -31.61374192 Ry
     Harris-Foulkes estimate   =     -31.61374458 Ry
     estimated scf accuracy    <       0.00007094 Ry

     iteration # 31     ecut=    30.00 Ry     beta=0.70
     Davidson diagonalization with overlap
     ethr =  8.87E-07,  avg # of iterations =  1.0

     total cpu time spent up to now is        4.9 secs

     total energy              =     -31.61374301 Ry
     Harris-Foulkes estimate   =     -31.61374315 Ry
     estimated scf accuracy    <       0.00000103 Ry

     iteration # 32     ecut=    30.00 Ry     beta=0.70
     Davidson diagonalization with overlap
     ethr =  1.29E-08,  avg # of iterations =  1.0

     total cpu time spent up to now is        4.9 secs

     total energy              =     -31.61374304 Ry
     Harris-Foulkes estimate   =     -31.61374304 Ry
     estimated scf accuracy    <       0.00000025 Ry

     iteration # 33     ecut=    30.00 Ry     beta=0.70
     Davidson diagonalization with overlap
     ethr =  3.09E-09,  avg # of iterations =  1.0

     total cpu time spent up to now is        4.9 secs

     End of self-consistent calculation

          k = 0.0000 0.0000 0.0000 ( 22119 PWs)   bands (ev):

   -27.4848 -11.3237  -7.2486  -7.2474  -7.1013  -0.3998   0.5809   0.7999

     the Fermi energy is    -7.0752 ev

!    total energy              =     -31.61374305 Ry
     Harris-Foulkes estimate   =     -31.61374305 Ry
     estimated scf accuracy    <          8.3E-10 Ry

     convergence has been achieved in  33 iterations

     Forces acting on atoms (Ry/au):

     atom    1 type  1   force =     0.49034392   -0.92390968   -1.01285394
     atom    2 type  1   force =     0.00019651    0.00031155   -0.00047355
     atom    3 type  2   force =    -0.49054044    0.92359814    1.01332750

     Total force =     2.059227     Total SCF correction =     0.000013

     Entering Dynamics:    iteration =     3
                           time      =   0.0145 pico-seconds


     Andersen thermostat:    3 collisions

ATOMIC_POSITIONS (bohr)
H        8.747029516  -1.575778863  -5.124472899
H        4.357053832   0.563504233  17.661448716
O        2.377736366  10.261051017   7.411550303


     kinetic energy (Ekin) =     3.21520802 Ry
     temperature           = ************** K 
     Ekin + Etot (const)   =   -28.39853503 Ry
     Message from routine dynamics:
     Total linear momentum <> 0

     Linear momentum :    0.3047675616   -0.3500624036   -0.1369358232

     Writing output data file pwscf.save

     second order wave-functions extrapolation
     Check: negative starting charge=   -0.351714
     second order charge density extrapolation
     Check: negative starting charge=   -0.358411

     negative rho (up, down):  8.069E+00 0.000E+00

     total cpu time spent up to now is        5.3 secs

     per-process dynamical memory:    20.4 Mb

     Self-consistent Calculation

     iteration #  1     ecut=    30.00 Ry     beta=0.70
     Davidson diagonalization with overlap
     ethr =  1.00E-06,  avg # of iterations = 13.0

     negative rho (up, down):  1.927E+00 0.000E+00

     total cpu time spent up to now is        5.4 secs

     total energy              =      84.36650410 Ry
     Harris-Foulkes estimate   =   -8291.40183909 Ry
     estimated scf accuracy    <      54.49402321 Ry

     iteration #  2     ecut=    30.00 Ry     beta=0.70
     Davidson diagonalization with overlap
     ethr =  1.00E-02,  avg # of iterations =  9.0

     negative rho (up, down):  7.301E-01 0.000E+00

     total cpu time spent up to now is        5.5 secs

     total energy              =      70.66003309 Ry
     Harris-Foulkes estimate   =    -647.49674146 Ry
     estimated scf accuracy    <      31.43308277 Ry

     iteration #  3     ecut=    30.00 Ry     beta=0.70
     Davidson diagonalization with overlap
     ethr =  1.00E-02,  avg # of iterations =  7.0

     negative rho (up, down):  4.140E-01 0.000E+00

     total cpu time spent up to now is        5.5 secs

     total energy              =      56.02060118 Ry
     Harris-Foulkes estimate   =    -522.18814468 Ry
     estimated scf accuracy    <      27.79089537 Ry

     iteration #  4     ecut=    30.00 Ry     beta=0.70
     Davidson diagonalization with overlap
     ethr =  1.00E-02,  avg # of iterations = 10.0

     negative rho (up, down):  2.081E-01 0.000E+00

     total cpu time spent up to now is        5.6 secs

     total energy              =      -5.82472919 Ry
     Harris-Foulkes estimate   =    -126.46778465 Ry
     estimated scf accuracy    <      19.57258680 Ry

     iteration #  5     ecut=    30.00 Ry     beta=0.70
     Davidson diagonalization with overlap
     ethr =  1.00E-02,  avg # of iterations =  6.0

     negative rho (up, down):  1.799E-01 0.000E+00

     total cpu time spent up to now is        5.6 secs

     total energy              =      33.83034559 Ry
     Harris-Foulkes estimate   =   -1793.95506138 Ry
     estimated scf accuracy    <      22.54459054 Ry

     iteration #  6     ecut=    30.00 Ry     beta=0.70
     Davidson diagonalization with overlap
     ethr =  1.00E-02,  avg # of iterations =  7.0

     negative rho (up, down):  1.867E-01 0.000E+00

     total cpu time spent up to now is        5.7 secs

     total energy              =    1775.78961966 Ry
     Harris-Foulkes estimate   =     -82.02664997 Ry
     estimated scf accuracy    <      12.40343046 Ry

     iteration #  7     ecut=    30.00 Ry     beta=0.70
     Davidson diagonalization with overlap
     ethr =  1.00E-02,  avg # of iterations =  4.0

     negative rho (up, down):  2.120E-01 0.000E+00

     total cpu time spent up to now is        5.7 secs

     total energy              =     -61.11056871 Ry
     Harris-Foulkes estimate   =    -464.65131911 Ry
     estimated scf accuracy    <       8.54341916 Ry

     iteration #  8     ecut=    30.00 Ry     beta=0.70
     Davidson diagonalization with overlap
     ethr =  1.00E-02,  avg # of iterations =  8.0

     negative rho (up, down):  4.347E-01 0.000E+00

     total cpu time spent up to now is        5.7 secs

     total energy              =   -3348.77536581 Ry
     Harris-Foulkes estimate   =   -1676.85029508 Ry
     estimated scf accuracy    <      20.88475958 Ry

     iteration #  9     ecut=    30.00 Ry     beta=0.70
     Davidson diagonalization with overlap
     ethr =  1.00E-02,  avg # of iterations =  5.0

     negative rho (up, down):  4.721E-01 0.000E+00

     total cpu time spent up to now is        5.8 secs

     total energy              =    -229.37824547 Ry
     Harris-Foulkes estimate   =  -10682.22445896 Ry
     estimated scf accuracy    <      32.24480888 Ry

     iteration # 10     ecut=    30.00 Ry     beta=0.70
     Davidson diagonalization with overlap
     ethr =  1.00E-02,  avg # of iterations =  5.0

     negative rho (up, down):  3.927E-01 0.000E+00

     total cpu time spent up to now is        5.8 secs

     total energy              =      50.79406665 Ry
     Harris-Foulkes estimate   =   -2699.33379380 Ry
     estimated scf accuracy    <      41.51809428 Ry

     iteration # 11     ecut=    30.00 Ry     beta=0.70
     Davidson diagonalization with overlap
     ethr =  1.00E-02,  avg # of iterations = 11.0

     negative rho (up, down):  4.145E-01 0.000E+00

     total cpu time spent up to now is        5.9 secs

     total energy              =      -5.60688947 Ry
     Harris-Foulkes estimate   =    -126.38039595 Ry
     estimated scf accuracy    <      22.88587766 Ry

     iteration # 12     ecut=    30.00 Ry     beta=0.70
     Davidson diagonalization with overlap
     ethr =  1.00E-02,  avg # of iterations =  7.0

     negative rho (up, down):  5.642E-01 0.000E+00

     total cpu time spent up to now is        5.9 secs

     total energy              =      24.12193530 Ry
     Harris-Foulkes estimate   =    -152.04313201 Ry
     estimated scf accuracy    <      11.74500931 Ry

     iteration # 13     ecut=    30.00 Ry     beta=0.70
     Davidson diagonalization with overlap
     ethr =  1.00E-02,  avg # of iterations =  5.0

     negative rho (up, down):  5.743E-01 0.000E+00

     total cpu time spent up to now is        6.0 secs

     total energy              =     -67.80991403 Ry
     Harris-Foulkes estimate   =    -415.57603514 Ry
     estimated scf accuracy    <      27.11005162 Ry

     iteration # 14     ecut=    30.00 Ry     beta=0.70
     Davidson diagonalization with overlap
     ethr =  1.00E-02,  avg # of iterations =  6.0

     negative rho (up, down):  2.986E-01 0.000E+00

     total cpu time spent up to now is        6.1 secs

     total energy              =      52.80478581 Ry
     Harris-Foulkes estimate   =   -7916.92091860 Ry
     estimated scf accuracy    <      32.05036542 Ry

     iteration # 15     ecut=    30.00 Ry     beta=0.70
     Davidson diagonalization with overlap
     ethr =  1.00E-02,  avg # of iterations =  8.0

     negative rho (up, down):  4.231E-01 0.000E+00

     total cpu time spent up to now is        6.1 secs

     total energy              =      52.99094399 Ry
     Harris-Foulkes estimate   =   -2019.07008480 Ry
     estimated scf accuracy    <      48.80671798 Ry

     iteration # 16     ecut=    30.00 Ry     beta=0.70
     Davidson diagonalization with overlap
     ethr =  1.00E-02,  avg # of iterations =  8.0

     negative rho (up, down):  8.318E-01 0.000E+00

     total cpu time spent up to now is        6.2 secs

     total energy              =      20.39831008 Ry
     Harris-Foulkes estimate   =    -326.67011975 Ry
     estimated scf accuracy    <      31.81012848 Ry

     iteration # 17     ecut=    30.00 Ry     beta=0.70
     Davidson diagonalization with overlap
     ethr =  1.00E-02,  avg # of iterations = 10.0

     negative rho (up, down):  8.409E-01 0.000E+00

     total cpu time spent up to now is        6.2 secs

     total energy              =      70.16212949 Ry
     Harris-Foulkes estimate   =   -5032.21698822 Ry
     estimated scf accuracy    <      33.31100522 Ry

     iteration # 18     ecut=    30.00 Ry     beta=0.70
     Davidson diagonalization with overlap
     ethr =  1.00E-02,  avg # of iterations = 11.0

     negative rho (up, down):  7.869E-01 0.000E+00

     total cpu time spent up to now is        6.3 secs

     total energy              =      49.29617858 Ry
     Harris-Foulkes estimate   =    -139.22367508 Ry
     estimated scf accuracy    <      18.23248610 Ry

     iteration # 19     ecut=    30.00 Ry     beta=0.70
     Davidson diagonalization with overlap
     ethr =  1.00E-02,  avg # of iterations =  8.0

     negative rho (up, down):  2.294E-01 0.000E+00

     total cpu time spent up to now is        6.4 secs

     total energy              =      30.92738600 Ry
     Harris-Foulkes estimate   =    -311.90129566 Ry
     estimated scf accuracy    <      25.96051829 Ry

     iteration # 20     ecut=    30.00 Ry     beta=0.70
     Davidson diagonalization with overlap
     ethr =  1.00E-02,  avg # of iterations =  9.0

     negative rho (up, down):  5.363E-01 0.000E+00

     total cpu time spent up to now is        6.4 secs

     total energy              =    -435.14419516 Ry
     Harris-Foulkes estimate   =    -664.03106619 Ry
     estimated scf accuracy    <      31.72789046 Ry

     iteration # 21     ecut=    30.00 Ry     beta=0.70
     Davidson diagonalization with overlap
     ethr =  1.00E-02,  avg # of iterations =  6.0

     negative rho (up, down):  8.754E-01 0.000E+00

     total cpu time spent up to now is        6.5 secs

     total energy              =      12.48894398 Ry
     Harris-Foulkes estimate   =  -14591.16269986 Ry
     estimated scf accuracy    <      22.55294240 Ry

     iteration # 22     ecut=    30.00 Ry     beta=0.70
     Davidson diagonalization with overlap
     ethr =  1.00E-02,  avg # of iterations =  8.0

     negative rho (up, down):  7.794E-01 0.000E+00

     total cpu time spent up to now is        6.5 secs

     total energy              =      87.87783109 Ry
     Harris-Foulkes estimate   =   -2653.53784903 Ry
     estimated scf accuracy    <      19.68803293 Ry

     iteration # 23     ecut=    30.00 Ry     beta=0.70
     Davidson diagonalization with overlap
     ethr =  1.00E-02,  avg # of iterations =  7.0

     negative rho (up, down):  8.524E-01 0.000E+00

     total cpu time spent up to now is        6.6 secs

     total energy              =      84.19368561 Ry
     Harris-Foulkes estimate   =    -947.11202740 Ry
     estimated scf accuracy    <      27.53908751 Ry

     iteration # 24     ecut=    30.00 Ry     beta=0.70
     Davidson diagonalization with overlap
     ethr =  1.00E-02,  avg # of iterations =  7.0

     negative rho (up, down):  5.284E-01 0.000E+00

     total cpu time spent up to now is        6.6 secs

     total energy              =      78.63889915 Ry
     Harris-Foulkes estimate   =   -1411.53391022 Ry
     estimated scf accuracy    <      26.92702383 Ry

     iteration # 25     ecut=    30.00 Ry     beta=0.70
     Davidson diagonalization with overlap
     ethr =  1.00E-02,  avg # of iterations =  7.0

     negative rho (up, down):  6.574E-01 0.000E+00

     total cpu time spent up to now is        6.7 secs

     total energy              =    -115.49698789 Ry
     Harris-Foulkes estimate   =   -3491.18733626 Ry
     estimated scf accuracy    <      19.98108625 Ry

     iteration # 26     ecut=    30.00 Ry     beta=0.70
     Davidson diagonalization with overlap
     ethr =  1.00E-02,  avg # of iterations =  8.0

     negative rho (up, down):  1.029E-01 0.000E+00

     total cpu time spent up to now is        6.8 secs

     total energy              =    -236.31390022 Ry
     Harris-Foulkes estimate   =   -2697.93024403 Ry
     estimated scf accuracy    <      22.73893982 Ry

     iteration # 27     ecut=    30.00 Ry     beta=0.70
     Davidson diagonalization with overlap
     ethr =  1.00E-02,  avg # of iterations =  8.0

     negative rho (up, down):  5.287E-02 0.000E+00

     total cpu time spent up to now is        6.8 secs

     total energy              =      87.90827109 Ry
     Harris-Foulkes estimate   =   -5717.02298469 Ry
     estimated scf accuracy    <      21.68534377 Ry

     iteration # 28     ecut=    30.00 Ry     beta=0.70
     Davidson diagonalization with overlap
     ethr =  1.00E-02,  avg # of iterations = 12.0

     negative rho (up, down):  1.488E-01 0.000E+00

     total cpu time spent up to now is        6.9 secs

     total energy              =      55.84359147 Ry
     Harris-Foulkes estimate   =    -255.83181557 Ry
     estimated scf accuracy    <      17.82049321 Ry

     iteration # 29     ecut=    30.00 Ry     beta=0.70
     Davidson diagonalization with overlap
     ethr =  1.00E-02,  avg # of iterations =  6.0

     negative rho (up, down):  4.796E-01 0.000E+00

     total cpu time spent up to now is        6.9 secs

     total energy              =      56.84435575 Ry
     Harris-Foulkes estimate   =    -840.06061970 Ry
     estimated scf accuracy    <      29.40646125 Ry

     iteration # 30     ecut=    30.00 Ry     beta=0.70
     Davidson diagonalization with overlap
     ethr =  1.00E-02,  avg # of iterations =  8.0

     negative rho (up, down):  6.441E-01 0.000E+00

     total cpu time spent up to now is        7.0 secs

     total energy              =     102.21725349 Ry
     Harris-Foulkes estimate   =    -717.04366907 Ry
     estimated scf accuracy    <      24.73096042 Ry

     iteration # 31     ecut=    30.00 Ry     beta=0.70
     Davidson diagonalization with overlap
     ethr =  1.00E-02,  avg # of iterations = 10.0

     negative rho (up, down):  4.938E-01 0.000E+00

     total cpu time spent up to now is        7.0 secs

     total energy              =      60.65214315 Ry
     Harris-Foulkes estimate   =    -406.29320782 Ry
     estimated scf accuracy    <      19.14056776 Ry

     iteration # 32     ecut=    30.00 Ry     beta=0.70
     Davidson diagonalization with overlap
     ethr =  1.00E-02,  avg # of iterations =  7.0

     negative rho (up, down):  5.849E-01 0.000E+00

     total cpu time spent up to now is        7.1 secs

     total energy              =      87.79313318 Ry
     Harris-Foulkes estimate   =   -2581.23651168 Ry
     estimated scf accuracy    <      16.62099617 Ry

     iteration # 33     ecut=    30.00 Ry     beta=0.70
     Davidson diagonalization with overlap
     ethr =  1.00E-02,  avg # of iterations = 10.0

     negative rho (up, down):  4.662E-01 0.000E+00

     total cpu time spent up to now is        7.2 secs

     total energy              =    -567.06860224 Ry
     Harris-Foulkes estimate   =    -721.53874708 Ry
     estimated scf accuracy    <      23.77068867 Ry

     iteration # 34     ecut=    30.00 Ry     beta=0.70
     Davidson diagonalization with overlap
     ethr =  1.00E-02,  avg # of iterations =  7.0

     negative rho (up, down):  3.981E-01 0.000E+00

     total cpu time spent up to now is        7.2 secs

     total energy              =     119.08150919 Ry
     Harris-Foulkes estimate   =   -5605.51358197 Ry
     estimated scf accuracy    <      15.63975230 Ry

     iteration # 35     ecut=    30.00 Ry     beta=0.70
     Davidson diagonalization with overlap
     ethr =  1.00E-02,  avg # of iterations =  9.0

     negative rho (up, down):  1.588E-01 0.000E+00

     total cpu time spent up to now is        7.3 secs

     total energy              =       3.84182452 Ry
     Harris-Foulkes estimate   =    -107.32181392 Ry
     estimated scf accuracy    <      28.03565602 Ry

     iteration # 36     ecut=    30.00 Ry     beta=0.70
     Davidson diagonalization with overlap
     ethr =  1.00E-02,  avg # of iterations =  9.0

     negative rho (up, down):  2.348E-04 0.000E+00

     total cpu time spent up to now is        7.3 secs

     total energy              =      78.64991163 Ry
     Harris-Foulkes estimate   =    -101.36124060 Ry
     estimated scf accuracy    <      31.34282749 Ry

     iteration # 37     ecut=    30.00 Ry     beta=0.70
     Davidson diagonalization with overlap
     ethr =  1.00E-02,  avg # of iterations = 10.0

     negative rho (up, down):  5.952E-04 0.000E+00

     total cpu time spent up to now is        7.4 secs

     total energy              =     -51.97199086 Ry
     Harris-Foulkes estimate   =     -54.23632369 Ry
     estimated scf accuracy    <      37.53032860 Ry

     iteration # 38     ecut=    30.00 Ry     beta=0.70
     Davidson diagonalization with overlap
     ethr =  1.00E-02,  avg # of iterations =  1.0

     negative rho (up, down):  1.160E-01 0.000E+00

     total cpu time spent up to now is        7.4 secs

     total energy              =     -49.36009423 Ry
     Harris-Foulkes estimate   =     -51.98253802 Ry
     estimated scf accuracy    <      33.92976482 Ry

     iteration # 39     ecut=    30.00 Ry     beta=0.70
     Davidson diagonalization with overlap
     ethr =  1.00E-02,  avg # of iterations =  5.0

     negative rho (up, down):  1.183E-01 0.000E+00

     total cpu time spent up to now is        7.5 secs

     total energy              =    -895.44705920 Ry
     Harris-Foulkes estimate   =    -331.04237624 Ry
     estimated scf accuracy    <      29.69665884 Ry

     iteration # 40     ecut=    30.00 Ry     beta=0.70
     Davidson diagonalization with overlap
     ethr =  1.00E-02,  avg # of iterations =  9.0

     negative rho (up, down):  1.405E-01 0.000E+00

     total cpu time spent up to now is        7.5 secs

     total energy              =       3.83908239 Ry
     Harris-Foulkes estimate   =   -2358.04780034 Ry
     estimated scf accuracy    <      26.38755576 Ry

     iteration # 41     ecut=    30.00 Ry     beta=0.70
     Davidson diagonalization with overlap
     ethr =  1.00E-02,  avg # of iterations = 13.0

     negative rho (up, down):  1.842E-01 0.000E+00

     total cpu time spent up to now is        7.6 secs

     total energy              =    -111.82621735 Ry
     Harris-Foulkes estimate   =     -66.66774829 Ry
     estimated scf accuracy    <      25.16088951 Ry

     iteration # 42     ecut=    30.00 Ry     beta=0.70
     Davidson diagonalization with overlap
     ethr =  1.00E-02,  avg # of iterations =  6.0

     negative rho (up, down):  4.131E-01 0.000E+00

     total cpu time spent up to now is        7.7 secs

     total energy              =      65.14866358 Ry
     Harris-Foulkes estimate   =   -1056.31537728 Ry
     estimated scf accuracy    <      35.16202272 Ry

     iteration # 43     ecut=    30.00 Ry     beta=0.70
     Davidson diagonalization with overlap
     ethr =  1.00E-02,  avg # of iterations = 13.0

     negative rho (up, down):  2.952E-01 0.000E+00

     total cpu time spent up to now is        7.7 secs

     total energy              =       1.04462129 Ry
     Harris-Foulkes estimate   =    -291.41126452 Ry
     estimated scf accuracy    <      27.63391241 Ry

     iteration # 44     ecut=    30.00 Ry     beta=0.70
     Davidson diagonalization with overlap
     ethr =  1.00E-02,  avg # of iterations =  9.0

     negative rho (up, down):  2.985E-01 0.000E+00

     total cpu time spent up to now is        7.8 secs

     total energy              =      87.78495763 Ry
     Harris-Foulkes estimate   =   -1652.55769126 Ry
     estimated scf accuracy    <      30.77669962 Ry

     iteration # 45     ecut=    30.00 Ry     beta=0.70
     Davidson diagonalization with overlap
     ethr =  1.00E-02,  avg # of iterations = 10.0

     negative rho (up, down):  4.511E-01 0.000E+00

     total cpu time spent up to now is        7.8 secs

     total energy              =      -7.41040268 Ry
     Harris-Foulkes estimate   =    -230.10919556 Ry
     estimated scf accuracy    <      19.54148803 Ry

     iteration # 46     ecut=    30.00 Ry     beta=0.70
     Davidson diagonalization with overlap
     ethr =  1.00E-02,  avg # of iterations =  8.0

     negative rho (up, down):  4.138E-01 0.000E+00

     total cpu time spent up to now is        7.9 secs

     total energy              =      50.66931137 Ry
     Harris-Foulkes estimate   =    -723.51425057 Ry
     estimated scf accuracy    <      23.26462845 Ry

     iteration # 47     ecut=    30.00 Ry     beta=0.70
     Davidson diagonalization with overlap
     ethr =  1.00E-02,  avg # of iterations =  9.0

     negative rho (up, down):  4.209E-01 0.000E+00

     total cpu time spent up to now is        7.9 secs

     total energy              =     115.75113180 Ry
     Harris-Foulkes estimate   =   -5985.98005153 Ry
     estimated scf accuracy    <      24.19502848 Ry

     iteration # 48     ecut=    30.00 Ry     beta=0.70
     Davidson diagonalization with overlap
     ethr =  1.00E-02,  avg # of iterations = 12.0

     negative rho (up, down):  1.139E-01 0.000E+00

     total cpu time spent up to now is        8.0 secs

     total energy              =     186.36532113 Ry
     Harris-Foulkes estimate   =    -999.94146432 Ry
     estimated scf accuracy    <      18.55468963 Ry

     iteration # 49     ecut=    30.00 Ry     beta=0.70
     Davidson diagonalization with overlap
     ethr =  1.00E-02,  avg # of iterations =  7.0

     negative rho (up, down):  2.469E-01 0.000E+00

     total cpu time spent up to now is        8.1 secs

     total energy              =     -44.87066721 Ry
     Harris-Foulkes estimate   =    -161.44041679 Ry
     estimated scf accuracy    <      17.05830237 Ry

     iteration # 50     ecut=    30.00 Ry     beta=0.70
     Davidson diagonalization with overlap
     ethr =  1.00E-02,  avg # of iterations =  8.0

     negative rho (up, down):  2.408E-01 0.000E+00

     total cpu time spent up to now is        8.2 secs

     total energy              =     106.87251914 Ry
     Harris-Foulkes estimate   =    -743.52348527 Ry
     estimated scf accuracy    <      32.59038034 Ry

     iteration # 51     ecut=    30.00 Ry     beta=0.70
     Davidson diagonalization with overlap
     ethr =  1.00E-02,  avg # of iterations =  8.0

     negative rho (up, down):  6.851E-02 0.000E+00

     total cpu time spent up to now is        8.2 secs

     total energy              =      88.47322474 Ry
     Harris-Foulkes estimate   =    -886.50898390 Ry
     estimated scf accuracy    <      33.29458622 Ry

     iteration # 52     ecut=    30.00 Ry     beta=0.70
     Davidson diagonalization with overlap
     ethr =  1.00E-02,  avg # of iterations =  9.0

     negative rho (up, down):  1.214E-08 0.000E+00

     total cpu time spent up to now is        8.3 secs

     total energy              =      85.55668535 Ry
     Harris-Foulkes estimate   =   -2276.62066331 Ry
     estimated scf accuracy    <      14.12212249 Ry

     iteration # 53     ecut=    30.00 Ry     beta=0.70
     Davidson diagonalization with overlap
     ethr =  1.00E-02,  avg # of iterations =  9.0

     total cpu time spent up to now is        8.3 secs

     total energy              =     -42.48932708 Ry
     Harris-Foulkes estimate   =     -44.33703009 Ry
     estimated scf accuracy    <      23.04721347 Ry

     iteration # 54     ecut=    30.00 Ry     beta=0.70
     Davidson diagonalization with overlap
     ethr =  1.00E-02,  avg # of iterations =  1.0

     negative rho (up, down):  2.545E-02 0.000E+00

     total cpu time spent up to now is        8.4 secs

     total energy              =     -43.41312494 Ry
     Harris-Foulkes estimate   =     -42.53850683 Ry
     estimated scf accuracy    <      16.89452808 Ry

     iteration # 55     ecut=    30.00 Ry     beta=0.70
     Davidson diagonalization with overlap
     ethr =  1.00E-02,  avg # of iterations =  4.0

     negative rho (up, down):  8.232E-02 0.000E+00

     total cpu time spent up to now is        8.4 secs

     total energy              =     -97.66036867 Ry
     Harris-Foulkes estimate   =   -1091.34280026 Ry
     estimated scf accuracy    <      15.03756405 Ry

     iteration # 56     ecut=    30.00 Ry     beta=0.70
     Davidson diagonalization with overlap
     ethr =  1.00E-02,  avg # of iterations =  5.0

     negative rho (up, down):  1.632E-01 0.000E+00

     total cpu time spent up to now is        8.5 secs

     total energy              =    -126.98533783 Ry
     Harris-Foulkes estimate   =   -1049.53399690 Ry
     estimated scf accuracy    <      13.01236200 Ry

     iteration # 57     ecut=    30.00 Ry     beta=0.70
     Davidson diagonalization with overlap
     ethr =  1.00E-02,  avg # of iterations =  4.0

     negative rho (up, down):  2.187E-01 0.000E+00

     total cpu time spent up to now is        8.5 secs

     total energy              =    -604.87649706 Ry
     Harris-Foulkes estimate   =   -1407.87759272 Ry
     estimated scf accuracy    <      33.84050146 Ry

     iteration # 58     ecut=    30.00 Ry     beta=0.70
     Davidson diagonalization with overlap
     ethr =  1.00E-02,  avg # of iterations =  9.0

     negative rho (up, down):  8.969E-03 0.000E+00

     total cpu time spent up to now is        8.6 secs

     total energy              =     112.14891607 Ry
     Harris-Foulkes estimate   =   -1467.22249776 Ry
     estimated scf accuracy    <      32.68791702 Ry

     iteration # 59     ecut=    30.00 Ry     beta=0.70
     Davidson diagonalization with overlap
     ethr =  1.00E-02,  avg # of iterations = 12.0

     negative rho (up, down):  3.857E-02 0.000E+00

     total cpu time spent up to now is        8.6 secs

     total energy              =     -44.16846926 Ry
     Harris-Foulkes estimate   =     -42.23316704 Ry
     estimated scf accuracy    <      15.78194617 Ry

     iteration # 60     ecut=    30.00 Ry     beta=0.70
     Davidson diagonalization with overlap
     ethr =  1.00E-02,  avg # of iterations =  3.0

     negative rho (up, down):  3.219E-02 0.000E+00

     total cpu time spent up to now is        8.7 secs

     total energy              =     -18.62268866 Ry
     Harris-Foulkes estimate   =    -128.70383786 Ry
     estimated scf accuracy    <      22.41909349 Ry

     iteration # 61     ecut=    30.00 Ry     beta=0.70
     Davidson diagonalization with overlap
     ethr =  1.00E-02,  avg # of iterations =  6.0

     negative rho (up, down):  1.757E-01 0.000E+00

     total cpu time spent up to now is        8.7 secs

     total energy              =     -17.51820220 Ry
     Harris-Foulkes estimate   =     -47.02390724 Ry
     estimated scf accuracy    <      15.48249586 Ry

     iteration # 62     ecut=    30.00 Ry     beta=0.70
     Davidson diagonalization with overlap
     ethr =  1.00E-02,  avg # of iterations =  8.0

     negative rho (up, down):  1.043E-01 0.000E+00

     total cpu time spent up to now is        8.8 secs

     total energy              =     100.65710425 Ry
     Harris-Foulkes estimate   =   -2117.98354413 Ry
     estimated scf accuracy    <      18.90828722 Ry

     iteration # 63     ecut=    30.00 Ry     beta=0.70
     Davidson diagonalization with overlap
     ethr =  1.00E-02,  avg # of iterations =  8.0

     negative rho (up, down):  5.552E-02 0.000E+00

     total cpu time spent up to now is        8.8 secs

     total energy              =      62.06436330 Ry
     Harris-Foulkes estimate   =    -344.66145359 Ry
     estimated scf accuracy    <      20.51385409 Ry

     iteration # 64     ecut=    30.00 Ry     beta=0.70
     Davidson diagonalization with overlap
     ethr =  1.00E-02,  avg # of iterations = 12.0

     negative rho (up, down):  1.101E-01 0.000E+00

     total cpu time spent up to now is        8.9 secs

     total energy              =      -8.31508100 Ry
     Harris-Foulkes estimate   =    -190.59680608 Ry
     estimated scf accuracy    <      20.94837422 Ry

     iteration # 65     ecut=    30.00 Ry     beta=0.70
     Davidson diagonalization with overlap
     ethr =  1.00E-02,  avg # of iterations =  4.0

     negative rho (up, down):  1.334E-01 0.000E+00

     total cpu time spent up to now is        8.9 secs

     total energy              =     -42.97923143 Ry
     Harris-Foulkes estimate   =     -52.12339817 Ry
     estimated scf accuracy    <      14.74285625 Ry

     iteration # 66     ecut=    30.00 Ry     beta=0.70
     Davidson diagonalization with overlap
     ethr =  1.00E-02,  avg # of iterations =  4.0

     negative rho (up, down):  1.776E-01 0.000E+00

     total cpu time spent up to now is        9.0 secs

     total energy              =     -67.28131321 Ry
     Harris-Foulkes estimate   =     -51.74845709 Ry
     estimated scf accuracy    <      15.11207252 Ry

     iteration # 67     ecut=    30.00 Ry     beta=0.70
     Davidson diagonalization with overlap
     ethr =  1.00E-02,  avg # of iterations =  3.0

     negative rho (up, down):  3.085E-01 0.000E+00

     total cpu time spent up to now is        9.0 secs

     total energy              =   -2536.86142384 Ry
     Harris-Foulkes estimate   =     -89.77472743 Ry
     estimated scf accuracy    <      10.37581137 Ry

     iteration # 68     ecut=    30.00 Ry     beta=0.70
     Davidson diagonalization with overlap
     ethr =  1.00E-02,  avg # of iterations =  8.0

     negative rho (up, down):  4.837E-01 0.000E+00

     total cpu time spent up to now is        9.1 secs

     total energy              =     -35.60034333 Ry
     Harris-Foulkes estimate   =   -3333.72333358 Ry
     estimated scf accuracy    <      23.89471993 Ry

     iteration # 69     ecut=    30.00 Ry     beta=0.70
     Davidson diagonalization with overlap
     ethr =  1.00E-02,  avg # of iterations =  8.0

     negative rho (up, down):  9.628E-02 0.000E+00

     total cpu time spent up to now is        9.1 secs

     total energy              =      93.45876335 Ry
     Harris-Foulkes estimate   =   -1056.17569103 Ry
     estimated scf accuracy    <      29.81587840 Ry

     iteration # 70     ecut=    30.00 Ry     beta=0.70
     Davidson diagonalization with overlap
     ethr =  1.00E-02,  avg # of iterations =  7.0

     negative rho (up, down):  2.317E-01 0.000E+00

     total cpu time spent up to now is        9.2 secs

     total energy              =      -0.94871362 Ry
     Harris-Foulkes estimate   =    -215.75859870 Ry
     estimated scf accuracy    <      32.18895065 Ry

     iteration # 71     ecut=    30.00 Ry     beta=0.70
     Davidson diagonalization with overlap
     ethr =  1.00E-02,  avg # of iterations =  5.0

     negative rho (up, down):  2.311E-01 0.000E+00

     total cpu time spent up to now is        9.2 secs

     total energy              =    -400.79067794 Ry
     Harris-Foulkes estimate   =    -272.27094308 Ry
     estimated scf accuracy    <      30.25239236 Ry

     iteration # 72     ecut=    30.00 Ry     beta=0.70
     Davidson diagonalization with overlap
     ethr =  1.00E-02,  avg # of iterations =  8.0

     negative rho (up, down):  2.650E-01 0.000E+00

     total cpu time spent up to now is        9.3 secs

     total energy              =   -2407.08814726 Ry
     Harris-Foulkes estimate   =    -816.84286289 Ry
     estimated scf accuracy    <      46.33149032 Ry

     iteration # 73     ecut=    30.00 Ry     beta=0.70
     Davidson diagonalization with overlap
     ethr =  1.00E-02,  avg # of iterations =  8.0

     negative rho (up, down):  3.406E-01 0.000E+00

     total cpu time spent up to now is        9.4 secs

     total energy              =      91.19184372 Ry
     Harris-Foulkes estimate   =   -6698.42491862 Ry
     estimated scf accuracy    <      34.86159954 Ry

     iteration # 74     ecut=    30.00 Ry     beta=0.70
     Davidson diagonalization with overlap
     ethr =  1.00E-02,  avg # of iterations = 10.0

     negative rho (up, down):  4.680E-01 0.000E+00

     total cpu time spent up to now is        9.4 secs

     total energy              =    -707.91993439 Ry
     Harris-Foulkes estimate   =    -246.86269958 Ry
     estimated scf accuracy    <      29.36660107 Ry

     iteration # 75     ecut=    30.00 Ry     beta=0.70
     Davidson diagonalization with overlap
     ethr =  1.00E-02,  avg # of iterations =  5.0

     negative rho (up, down):  4.557E-01 0.000E+00

     total cpu time spent up to now is        9.5 secs

     total energy              =   -1040.11673614 Ry
     Harris-Foulkes estimate   =   -1665.53672883 Ry
     estimated scf accuracy    <      46.99780162 Ry

     iteration # 76     ecut=    30.00 Ry     beta=0.70
     Davidson diagonalization with overlap
     ethr =  1.00E-02,  avg # of iterations =  8.0

     negative rho (up, down):  6.061E-01 0.000E+00

     total cpu time spent up to now is        9.5 secs

     total energy              =   -1481.27483078 Ry
     Harris-Foulkes estimate   =   -5440.40564026 Ry
     estimated scf accuracy    <      32.81380234 Ry

     iteration # 77     ecut=    30.00 Ry     beta=0.70
     Davidson diagonalization with overlap
     ethr =  1.00E-02,  avg # of iterations =  6.0

     negative rho (up, down):  1.086E+00 0.000E+00

     total cpu time spent up to now is        9.6 secs

     total energy              =     139.49484517 Ry
     Harris-Foulkes estimate   =   -7938.76038948 Ry
     estimated scf accuracy    <      36.33118395 Ry

     iteration # 78     ecut=    30.00 Ry     beta=0.70
     Davidson diagonalization with overlap
     ethr =  1.00E-02,  avg # of iterations = 10.0

     negative rho (up, down):  1.321E+00 0.000E+00

     total cpu time spent up to now is        9.6 secs

     total energy              =     -44.63285042 Ry
     Harris-Foulkes estimate   =    -285.04382224 Ry
     estimated scf accuracy    <      27.29760119 Ry

     iteration # 79     ecut=    30.00 Ry     beta=0.70
     Davidson diagonalization with overlap
     ethr =  1.00E-02,  avg # of iterations =  8.0

     negative rho (up, down):  1.299E+00 0.000E+00

     total cpu time spent up to now is        9.7 secs

     total energy              =    -100.27467541 Ry
     Harris-Foulkes estimate   =    -459.70883464 Ry
     estimated scf accuracy    <      32.33377572 Ry

     iteration # 80     ecut=    30.00 Ry     beta=0.70
     Davidson diagonalization with overlap
     ethr =  1.00E-02,  avg # of iterations =  7.0

     negative rho (up, down):  1.132E+00 0.000E+00

     total cpu time spent up to now is        9.7 secs

     total energy              =      91.29627731 Ry
     Harris-Foulkes estimate   =    -857.12501394 Ry
     estimated scf accuracy    <      23.90826062 Ry

     iteration # 81     ecut=    30.00 Ry     beta=0.70
     Davidson diagonalization with overlap
     ethr =  1.00E-02,  avg # of iterations =  9.0

     negative rho (up, down):  2.142E-01 0.000E+00

     total cpu time spent up to now is        9.8 secs

     total energy              =      23.48543599 Ry
     Harris-Foulkes estimate   =    -109.54871759 Ry
     estimated scf accuracy    <      24.99905921 Ry

     iteration # 82     ecut=    30.00 Ry     beta=0.70
     Davidson diagonalization with overlap
     ethr =  1.00E-02,  avg # of iterations = 10.0

     negative rho (up, down):  2.748E-01 0.000E+00

     total cpu time spent up to now is        9.9 secs

     total energy              =    -123.50096120 Ry
     Harris-Foulkes estimate   =   -1126.37446108 Ry
     estimated scf accuracy    <      17.21326511 Ry

     iteration # 83     ecut=    30.00 Ry     beta=0.70
     Davidson diagonalization with overlap
     ethr =  1.00E-02,  avg # of iterations =  6.0

     negative rho (up, down):  3.429E-01 0.000E+00

     total cpu time spent up to now is        9.9 secs

     total energy              =      22.13894684 Ry
     Harris-Foulkes estimate   =   -8849.83534646 Ry
     estimated scf accuracy    <      22.98518082 Ry

     iteration # 84     ecut=    30.00 Ry     beta=0.70
     Davidson diagonalization with overlap
     ethr =  1.00E-02,  avg # of iterations =  7.0

     negative rho (up, down):  1.774E-01 0.000E+00

     total cpu time spent up to now is       10.0 secs

     total energy              =    -131.81531635 Ry
     Harris-Foulkes estimate   =   -1442.81978433 Ry
     estimated scf accuracy    <      22.20356297 Ry

     iteration # 85     ecut=    30.00 Ry     beta=0.70
     Davidson diagonalization with overlap
     ethr =  1.00E-02,  avg # of iterations = 11.0

     negative rho (up, down):  1.597E-01 0.000E+00

     total cpu time spent up to now is       10.0 secs

     total energy              =    -355.48462007 Ry
     Harris-Foulkes estimate   =   -1408.97028193 Ry
     estimated scf accuracy    <      17.83609116 Ry

     iteration # 86     ecut=    30.00 Ry     beta=0.70
     Davidson diagonalization with overlap
     ethr =  1.00E-02,  avg # of iterations =  5.0

     negative rho (up, down):  5.086E-02 0.000E+00

     total cpu time spent up to now is       10.1 secs

     total energy              =      88.07450938 Ry
     Harris-Foulkes estimate   =   -3739.47862576 Ry
     estimated scf accuracy    <      23.33004530 Ry

     iteration # 87     ecut=    30.00 Ry     beta=0.70
     Davidson diagonalization with overlap
     ethr =  1.00E-02,  avg # of iterations =  9.0

     negative rho (up, down):  4.536E-02 0.000E+00

     total cpu time spent up to now is       10.1 secs

     total energy              =      -3.30106990 Ry
     Harris-Foulkes estimate   =    -429.40350550 Ry
     estimated scf accuracy    <      20.85352834 Ry

     iteration # 88     ecut=    30.00 Ry     beta=0.70
     Davidson diagonalization with overlap
     ethr =  1.00E-02,  avg # of iterations =  5.0

     negative rho (up, down):  1.593E-03 0.000E+00

     total cpu time spent up to now is       10.2 secs

     total energy              =     -21.94704109 Ry
     Harris-Foulkes estimate   =     -51.38099159 Ry
     estimated scf accuracy    <      20.12691085 Ry

     iteration # 89     ecut=    30.00 Ry     beta=0.70
     Davidson diagonalization with overlap
     ethr =  1.00E-02,  avg # of iterations =  5.0

     negative rho (up, down):  8.767E-03 0.000E+00

     total cpu time spent up to now is       10.2 secs

     total energy              =     -46.30028663 Ry
     Harris-Foulkes estimate   =     -48.06792240 Ry
     estimated scf accuracy    <      28.12522862 Ry

     iteration # 90     ecut=    30.00 Ry     beta=0.70
     Davidson diagonalization with overlap
     ethr =  1.00E-02,  avg # of iterations =  6.0

     negative rho (up, down):  1.937E-02 0.000E+00

     total cpu time spent up to now is       10.3 secs

     total energy              =      49.24553581 Ry
     Harris-Foulkes estimate   =    -336.84487607 Ry
     estimated scf accuracy    <      29.46057625 Ry

     iteration # 91     ecut=    30.00 Ry     beta=0.70
     Davidson diagonalization with overlap
     ethr =  1.00E-02,  avg # of iterations =  8.0

     negative rho (up, down):  4.041E-02 0.000E+00

     total cpu time spent up to now is       10.3 secs

     total energy              =     -48.26379322 Ry
     Harris-Foulkes estimate   =     -55.59265090 Ry
     estimated scf accuracy    <      18.40918783 Ry

     iteration # 92     ecut=    30.00 Ry     beta=0.70
     Davidson diagonalization with overlap
     ethr =  1.00E-02,  avg # of iterations =  4.0

     negative rho (up, down):  5.092E-02 0.000E+00

     total cpu time spent up to now is       10.4 secs

     total energy              =      53.99764726 Ry
     Harris-Foulkes estimate   =    -513.18521018 Ry
     estimated scf accuracy    <      23.73697650 Ry

     iteration # 93     ecut=    30.00 Ry     beta=0.70
     Davidson diagonalization with overlap
     ethr =  1.00E-02,  avg # of iterations =  6.0

     negative rho (up, down):  1.406E-01 0.000E+00

     total cpu time spent up to now is       10.4 secs

     total energy              =     -48.33147205 Ry
     Harris-Foulkes estimate   =     -46.36127836 Ry
     estimated scf accuracy    <      22.70686262 Ry

     iteration # 94     ecut=    30.00 Ry     beta=0.70
     Davidson diagonalization with overlap
     ethr =  1.00E-02,  avg # of iterations =  3.0

     negative rho (up, down):  1.760E-01 0.000E+00

     total cpu time spent up to now is       10.4 secs

     total energy              =    -225.49611806 Ry
     Harris-Foulkes estimate   =  -11480.33343776 Ry
     estimated scf accuracy    <      17.35712043 Ry

     iteration # 95     ecut=    30.00 Ry     beta=0.70
     Davidson diagonalization with overlap
     ethr =  1.00E-02,  avg # of iterations =  3.0

     negative rho (up, down):  4.766E-01 0.000E+00

     total cpu time spent up to now is       10.5 secs

     total energy              =     -17.44771124 Ry
     Harris-Foulkes estimate   =    -607.84846960 Ry
     estimated scf accuracy    <      14.71501853 Ry

     iteration # 96     ecut=    30.00 Ry     beta=0.70
     Davidson diagonalization with overlap
     ethr =  1.00E-02,  avg # of iterations = 10.0

     negative rho (up, down):  7.875E-06 0.000E+00

     total cpu time spent up to now is       10.5 secs

     total energy              =     118.25940705 Ry
     Harris-Foulkes estimate   =   -1007.48995308 Ry
     estimated scf accuracy    <      32.52500847 Ry

     iteration # 97     ecut=    30.00 Ry     beta=0.70
     Davidson diagonalization with overlap
     ethr =  1.00E-02,  avg # of iterations = 12.0

     negative rho (up, down):  7.022E-02 0.000E+00

     total cpu time spent up to now is       10.6 secs

     total energy              =     -41.83354684 Ry
     Harris-Foulkes estimate   =     -42.41840268 Ry
     estimated scf accuracy    <      16.50092311 Ry

     iteration # 98     ecut=    30.00 Ry     beta=0.70
     Davidson diagonalization with overlap
     ethr =  1.00E-02,  avg # of iterations = 11.0

     total cpu time spent up to now is       10.7 secs

     total energy              =      65.90076496 Ry
     Harris-Foulkes estimate   =    -282.83422110 Ry
     estimated scf accuracy    <      25.33730950 Ry

     iteration # 99     ecut=    30.00 Ry     beta=0.70
     Davidson diagonalization with overlap
     ethr =  1.00E-02,  avg # of iterations = 11.0

     negative rho (up, down):  5.185E-03 0.000E+00

     total cpu time spent up to now is       10.7 secs

     total energy              =     -39.66658178 Ry
     Harris-Foulkes estimate   =     -41.48230167 Ry
     estimated scf accuracy    <      19.43192217 Ry

     iteration #100     ecut=    30.00 Ry     beta=0.70
     Davidson diagonalization with overlap
     ethr =  1.00E-02,  avg # of iterations =  8.0

     negative rho (up, down):  1.097E-04 0.000E+00

     total cpu time spent up to now is       10.8 secs

     total energy              =      18.14077030 Ry
     Harris-Foulkes estimate   =     -79.79660500 Ry
     estimated scf accuracy    <      12.98812833 Ry

     End of self-consistent calculation

     convergence NOT achieved after 100 iterations: stopping

     Writing output data file pwscf.save
 
     init_run     :      0.09s CPU      0.11s WALL (       1 calls)
     electrons    :      7.97s CPU      9.69s WALL (       4 calls)
     update_pot   :      0.33s CPU      0.49s WALL (       3 calls)
     forces       :      0.08s CPU      0.08s WALL (       3 calls)

     Called by init_run:
     wfcinit      :      0.01s CPU      0.02s WALL (       1 calls)
     potinit      :      0.02s CPU      0.02s WALL (       1 calls)

     Called by electrons:
     c_bands      :      4.08s CPU      4.29s WALL (     210 calls)
     sum_band     :      0.61s CPU      0.66s WALL (     210 calls)
     v_of_rho     :      1.51s CPU      1.64s WALL (     214 calls)
     mix_rho      :      1.53s CPU      2.51s WALL (     210 calls)

     Called by c_bands:
     init_us_2    :      0.02s CPU      0.02s WALL (     421 calls)
     cegterg      :      4.03s CPU      4.18s WALL (     210 calls)

     Called by sum_band:

     Called by *egterg:
     h_psi        :      3.38s CPU      3.49s WALL (    1187 calls)
     g_psi        :      0.04s CPU      0.04s WALL (     976 calls)
     cdiaghg      :      0.24s CPU      0.25s WALL (    1183 calls)

     Called by h_psi:
     h_psi:pot    :      3.36s CPU      3.47s WALL (    1187 calls)
     h_psi:calbec :      0.06s CPU      0.06s WALL (    1187 calls)
     vloc_psi     :      3.28s CPU      3.40s WALL (    1187 calls)
     add_vuspsi   :      0.01s CPU      0.01s WALL (    1187 calls)

     General routines
     calbec       :      0.07s CPU      0.08s WALL (    1201 calls)
     fft          :      0.94s CPU      1.04s WALL (    2360 calls)
     fftw         :      3.36s CPU      3.51s WALL (   14936 calls)
     davcio       :      0.25s CPU      0.87s WALL (    3857 calls)
 
     Parallel routines
     fft_scatter  :      1.65s CPU      1.83s WALL (   17296 calls)
 
     PWSCF        :     8.63s CPU        10.87s WALL

 
   This run was terminated on:   7:59:54  14Feb2018            

=------------------------------------------------------------------------------=
   JOB DONE.
=------------------------------------------------------------------------------=
