
     Program PWSCF v.6.0 (svn rev. 13079) starts on 14Feb2018 at  8: 2:24 

     This program is part of the open-source Quantum ESPRESSO suite
     for quantum simulation of materials; please cite
         "P. Giannozzi et al., J. Phys.:Condens. Matter 21 395502 (2009);
          URL http://www.quantum-espresso.org", 
     in publications or presentations arising from this work. More details at
     http://www.quantum-espresso.org/quote

     Parallel version (MPI), running on    28 processors
     R & G space division:  proc/nbgrp/npool/nimage =      28
     Reading input from inputs/MD-H2O-2/260.in

     Current dimensions of program PWSCF are:
     Max number of different atomic species (ntypx) = 10
     Max number of k-points (npk) =  40000
     Max angular momentum in pseudopotentials (lmaxx) =  3

     Subspace diagonalization in iterative solution of the eigenvalue problem:
     a serial algorithm will be used

 
     Parallelization info
     --------------------
     sticks:   dense  smooth     PW     G-vecs:    dense   smooth      PW
     Min         136     136     33                 6338     6338     787
     Max         137     137     34                 6341     6341     792
     Sum        3809    3809    949               177509   177509   22119
 


     bravais-lattice index     =            1
     lattice parameter (alat)  =      20.0000  a.u.
     unit-cell volume          =    8000.0000 (a.u.)^3
     number of atoms/cell      =            3
     number of atomic types    =            2
     number of electrons       =         8.00
     number of Kohn-Sham states=            8
     kinetic-energy cutoff     =      30.0000  Ry
     charge density cutoff     =     120.0000  Ry
     convergence threshold     =      1.0E-08
     mixing beta               =       0.7000
     number of iterations used =            8  plain     mixing
     Exchange-correlation      = BLYP ( 1  3  1  3 0 0)
     nstep                     =         5000


     celldm(1)=  20.000000  celldm(2)=   0.000000  celldm(3)=   0.000000
     celldm(4)=   0.000000  celldm(5)=   0.000000  celldm(6)=   0.000000

     crystal axes: (cart. coord. in units of alat)
               a(1) = (   1.000000   0.000000   0.000000 )  
               a(2) = (   0.000000   1.000000   0.000000 )  
               a(3) = (   0.000000   0.000000   1.000000 )  

     reciprocal axes: (cart. coord. in units 2 pi/alat)
               b(1) = (  1.000000  0.000000  0.000000 )  
               b(2) = (  0.000000  1.000000  0.000000 )  
               b(3) = (  0.000000  0.000000  1.000000 )  


     PseudoPot. # 1 for  H read from file:
     ./H.blyp-hgh.UPF
     MD5 check sum: c576e69559cde411e611be972c763230
     Pseudo is Norm-conserving, Zval =  1.0
     Generated in analytical, separable form
     Using radial grid of  929 points,  0 beta functions with: 

     PseudoPot. # 2 for  O read from file:
     ./O.blyp-hgh.UPF
     MD5 check sum: d0b7156309aa9befef28faac7bc56342
     Pseudo is Norm-conserving, Zval =  6.0
     Generated in analytical, separable form
     Using radial grid of 1095 points,  1 beta functions with: 
                l(1) =   0

     atomic species   valence    mass     pseudopotential
        H              1.00     1.01000      H( 1.00)
        O              6.00    16.00000      O( 1.00)

     No symmetry found



   Cartesian axes

     site n.     atom                  positions (alat units)
         1           H   tau(   1) = (   0.2282573   0.0915104   0.8324222  )
         2           H   tau(   2) = (   0.4149591   0.7261878   0.6179872  )
         3           O   tau(   3) = (   0.3944219   0.6407870   0.5714799  )

     number of k points=     1  Marzari-Vanderbilt smearing, width (Ry)=  0.0250
                       cart. coord. in units 2pi/alat
        k(    1) = (   0.0000000   0.0000000   0.0000000), wk =   2.0000000

     Dense  grid:   177509 G-vectors     FFT dimensions: (  72,  72,  72)

     Estimated max dynamical RAM per process >       6.09Mb

     Estimated total allocated dynamical RAM >     170.64Mb

     Initial potential from superposition of free atoms
     Check: negative starting charge=   -0.348566

     starting charge    7.99998, renormalised to    8.00000

     negative rho (up, down):  3.486E-01 0.000E+00
     Starting wfc are    6 randomized atomic wfcs +    2 random wfc

     total cpu time spent up to now is        0.2 secs

     per-process dynamical memory:    18.8 Mb

     Self-consistent Calculation

     iteration #  1     ecut=    30.00 Ry     beta=0.70
     Davidson diagonalization with overlap
     ethr =  1.00E-02,  avg # of iterations =  6.0

     negative rho (up, down):  9.105E-02 0.000E+00

     total cpu time spent up to now is        0.3 secs

     total energy              =     -30.37312279 Ry
     Harris-Foulkes estimate   =     -32.23562104 Ry
     estimated scf accuracy    <       2.14260279 Ry

     iteration #  2     ecut=    30.00 Ry     beta=0.70
     Davidson diagonalization with overlap
     ethr =  1.00E-02,  avg # of iterations =  3.0

     negative rho (up, down):  6.629E-02 0.000E+00

     total cpu time spent up to now is        0.3 secs

     total energy              =     -32.28395982 Ry
     Harris-Foulkes estimate   =     -34.55715675 Ry
     estimated scf accuracy    <       5.54633748 Ry

     iteration #  3     ecut=    30.00 Ry     beta=0.70
     Davidson diagonalization with overlap
     ethr =  1.00E-02,  avg # of iterations =  2.0

     negative rho (up, down):  6.382E-02 0.000E+00

     total cpu time spent up to now is        0.3 secs

     total energy              =     -32.43472642 Ry
     Harris-Foulkes estimate   =     -32.51771887 Ry
     estimated scf accuracy    <       1.80162774 Ry

     iteration #  4     ecut=    30.00 Ry     beta=0.70
     Davidson diagonalization with overlap
     ethr =  1.00E-02,  avg # of iterations =  1.0

     negative rho (up, down):  1.194E-02 0.000E+00

     total cpu time spent up to now is        0.4 secs

     total energy              =     -31.29978870 Ry
     Harris-Foulkes estimate   =     -32.43503955 Ry
     estimated scf accuracy    <       1.68632043 Ry

     iteration #  5     ecut=    30.00 Ry     beta=0.70
     Davidson diagonalization with overlap
     ethr =  1.00E-02,  avg # of iterations =  4.0

     negative rho (up, down):  2.221E-02 0.000E+00

     total cpu time spent up to now is        0.4 secs

     total energy              =     -33.34193310 Ry
     Harris-Foulkes estimate   =     -33.20650678 Ry
     estimated scf accuracy    <       7.80150075 Ry

     iteration #  6     ecut=    30.00 Ry     beta=0.70
     Davidson diagonalization with overlap
     ethr =  1.00E-02,  avg # of iterations =  1.0

     negative rho (up, down):  1.311E-02 0.000E+00

     total cpu time spent up to now is        0.4 secs

     total energy              =     -32.83810995 Ry
     Harris-Foulkes estimate   =     -33.35132214 Ry
     estimated scf accuracy    <       9.26562993 Ry

     iteration #  7     ecut=    30.00 Ry     beta=0.70
     Davidson diagonalization with overlap
     ethr =  1.00E-02,  avg # of iterations =  1.0

     negative rho (up, down):  1.437E-02 0.000E+00

     total cpu time spent up to now is        0.5 secs

     total energy              =     -32.85397540 Ry
     Harris-Foulkes estimate   =     -32.95799747 Ry
     estimated scf accuracy    <       3.10536799 Ry

     iteration #  8     ecut=    30.00 Ry     beta=0.70
     Davidson diagonalization with overlap
     ethr =  1.00E-02,  avg # of iterations =  1.0

     negative rho (up, down):  4.994E-02 0.000E+00

     total cpu time spent up to now is        0.5 secs

     total energy              =     -32.63045837 Ry
     Harris-Foulkes estimate   =     -32.85557433 Ry
     estimated scf accuracy    <       2.87269353 Ry

     iteration #  9     ecut=    30.00 Ry     beta=0.70
     Davidson diagonalization with overlap
     ethr =  1.00E-02,  avg # of iterations =  1.0

     negative rho (up, down):  8.758E-02 0.000E+00

     total cpu time spent up to now is        0.5 secs

     total energy              =     -31.99160259 Ry
     Harris-Foulkes estimate   =     -32.63375516 Ry
     estimated scf accuracy    <       2.44544868 Ry

     iteration # 10     ecut=    30.00 Ry     beta=0.70
     Davidson diagonalization with overlap
     ethr =  1.00E-02,  avg # of iterations =  1.0

     negative rho (up, down):  7.107E-02 0.000E+00

     total cpu time spent up to now is        0.6 secs

     total energy              =     -32.31208406 Ry
     Harris-Foulkes estimate   =     -32.02187427 Ry
     estimated scf accuracy    <       1.32500325 Ry

     iteration # 11     ecut=    30.00 Ry     beta=0.70
     Davidson diagonalization with overlap
     ethr =  1.00E-02,  avg # of iterations =  1.0

     negative rho (up, down):  6.286E-02 0.000E+00

     total cpu time spent up to now is        0.6 secs

     total energy              =     -32.16678469 Ry
     Harris-Foulkes estimate   =     -32.31910224 Ry
     estimated scf accuracy    <       1.80599410 Ry

     iteration # 12     ecut=    30.00 Ry     beta=0.70
     Davidson diagonalization with overlap
     ethr =  1.00E-02,  avg # of iterations =  1.0

     negative rho (up, down):  2.814E-01 0.000E+00

     total cpu time spent up to now is        0.6 secs

     total energy              =     -31.94455619 Ry
     Harris-Foulkes estimate   =     -32.16839849 Ry
     estimated scf accuracy    <       1.56368269 Ry

     iteration # 13     ecut=    30.00 Ry     beta=0.70
     Davidson diagonalization with overlap
     ethr =  1.00E-02,  avg # of iterations =  1.0

     negative rho (up, down):  7.229E-01 0.000E+00

     total cpu time spent up to now is        0.7 secs

     total energy              =     -32.10790646 Ry
     Harris-Foulkes estimate   =     -31.96145952 Ry
     estimated scf accuracy    <       0.32226816 Ry

     iteration # 14     ecut=    30.00 Ry     beta=0.70
     Davidson diagonalization with overlap
     ethr =  4.03E-03,  avg # of iterations =  2.0

     negative rho (up, down):  1.000E-01 0.000E+00

     total cpu time spent up to now is        0.7 secs

     total energy              =     -31.72965628 Ry
     Harris-Foulkes estimate   =     -32.20332935 Ry
     estimated scf accuracy    <       1.84504710 Ry

     iteration # 15     ecut=    30.00 Ry     beta=0.70
     Davidson diagonalization with overlap
     ethr =  4.03E-03,  avg # of iterations =  2.0

     negative rho (up, down):  4.834E-02 0.000E+00

     total cpu time spent up to now is        0.7 secs

     total energy              =     -32.14995178 Ry
     Harris-Foulkes estimate   =     -32.09724300 Ry
     estimated scf accuracy    <       1.01148118 Ry

     iteration # 16     ecut=    30.00 Ry     beta=0.70
     Davidson diagonalization with overlap
     ethr =  4.03E-03,  avg # of iterations =  1.0

     negative rho (up, down):  3.445E-03 0.000E+00

     total cpu time spent up to now is        0.8 secs

     total energy              =     -32.11119705 Ry
     Harris-Foulkes estimate   =     -32.15495601 Ry
     estimated scf accuracy    <       1.14007274 Ry

     iteration # 17     ecut=    30.00 Ry     beta=0.70
     Davidson diagonalization with overlap
     ethr =  4.03E-03,  avg # of iterations =  1.0

     negative rho (up, down):  6.141E-04 0.000E+00

     total cpu time spent up to now is        0.8 secs

     total energy              =     -32.05325206 Ry
     Harris-Foulkes estimate   =     -32.11298098 Ry
     estimated scf accuracy    <       1.12142766 Ry

     iteration # 18     ecut=    30.00 Ry     beta=0.70
     Davidson diagonalization with overlap
     ethr =  4.03E-03,  avg # of iterations =  1.0

     negative rho (up, down):  8.155E-04 0.000E+00

     total cpu time spent up to now is        0.8 secs

     total energy              =     -32.10755912 Ry
     Harris-Foulkes estimate   =     -32.05354461 Ry
     estimated scf accuracy    <       1.05535281 Ry

     iteration # 19     ecut=    30.00 Ry     beta=0.70
     Davidson diagonalization with overlap
     ethr =  4.03E-03,  avg # of iterations =  1.0

     negative rho (up, down):  2.467E-03 0.000E+00

     total cpu time spent up to now is        0.9 secs

     total energy              =     -31.92633316 Ry
     Harris-Foulkes estimate   =     -32.10783259 Ry
     estimated scf accuracy    <       1.14165645 Ry

     iteration # 20     ecut=    30.00 Ry     beta=0.70
     Davidson diagonalization with overlap
     ethr =  4.03E-03,  avg # of iterations =  1.0

     total cpu time spent up to now is        0.9 secs

     total energy              =     -31.98451697 Ry
     Harris-Foulkes estimate   =     -31.94657125 Ry
     estimated scf accuracy    <       0.01939224 Ry

     iteration # 21     ecut=    30.00 Ry     beta=0.70
     Davidson diagonalization with overlap
     ethr =  2.42E-04,  avg # of iterations =  5.0

     total cpu time spent up to now is        0.9 secs

     total energy              =     -32.10160822 Ry
     Harris-Foulkes estimate   =     -32.15990839 Ry
     estimated scf accuracy    <       1.50999134 Ry

     iteration # 22     ecut=    30.00 Ry     beta=0.70
     Davidson diagonalization with overlap
     ethr =  2.42E-04,  avg # of iterations =  1.0

     total cpu time spent up to now is        1.0 secs

     total energy              =     -31.93484043 Ry
     Harris-Foulkes estimate   =     -32.10185967 Ry
     estimated scf accuracy    <       1.41344416 Ry

     iteration # 23     ecut=    30.00 Ry     beta=0.70
     Davidson diagonalization with overlap
     ethr =  2.42E-04,  avg # of iterations =  3.0

     negative rho (up, down):  1.244E-07 0.000E+00

     total cpu time spent up to now is        1.0 secs

     total energy              =     -31.94352660 Ry
     Harris-Foulkes estimate   =     -31.94607337 Ry
     estimated scf accuracy    <       0.00632137 Ry

     iteration # 24     ecut=    30.00 Ry     beta=0.70
     Davidson diagonalization with overlap
     ethr =  7.90E-05,  avg # of iterations =  1.0

     negative rho (up, down):  5.646E-07 0.000E+00

     total cpu time spent up to now is        1.0 secs

     total energy              =     -31.93412163 Ry
     Harris-Foulkes estimate   =     -31.96643449 Ry
     estimated scf accuracy    <       0.80048046 Ry

     iteration # 25     ecut=    30.00 Ry     beta=0.70
     Davidson diagonalization with overlap
     ethr =  7.90E-05,  avg # of iterations =  1.0

     negative rho (up, down):  1.330E-06 0.000E+00

     total cpu time spent up to now is        1.1 secs

     total energy              =     -31.94609838 Ry
     Harris-Foulkes estimate   =     -31.94603461 Ry
     estimated scf accuracy    <       0.00075126 Ry

     iteration # 26     ecut=    30.00 Ry     beta=0.70
     Davidson diagonalization with overlap
     ethr =  9.39E-06,  avg # of iterations =  3.0

     negative rho (up, down):  2.966E-08 0.000E+00

     total cpu time spent up to now is        1.1 secs

     total energy              =     -31.94652053 Ry
     Harris-Foulkes estimate   =     -31.94621418 Ry
     estimated scf accuracy    <       0.01375838 Ry

     iteration # 27     ecut=    30.00 Ry     beta=0.70
     Davidson diagonalization with overlap
     ethr =  9.39E-06,  avg # of iterations =  1.0

     negative rho (up, down):  3.985E-07 0.000E+00

     total cpu time spent up to now is        1.1 secs

     total energy              =     -31.93836970 Ry
     Harris-Foulkes estimate   =     -31.94664204 Ry
     estimated scf accuracy    <       0.04435966 Ry

     iteration # 28     ecut=    30.00 Ry     beta=0.70
     Davidson diagonalization with overlap
     ethr =  9.39E-06,  avg # of iterations =  3.0

     negative rho (up, down):  2.490E-08 0.000E+00

     total cpu time spent up to now is        1.2 secs

     total energy              =     -31.93003298 Ry
     Harris-Foulkes estimate   =     -31.97064379 Ry
     estimated scf accuracy    <       1.46668620 Ry

     iteration # 29     ecut=    30.00 Ry     beta=0.70
     Davidson diagonalization with overlap
     ethr =  9.39E-06,  avg # of iterations =  2.0

     total cpu time spent up to now is        1.2 secs

     total energy              =     -31.94680982 Ry
     Harris-Foulkes estimate   =     -31.94613807 Ry
     estimated scf accuracy    <       0.00921414 Ry

     iteration # 30     ecut=    30.00 Ry     beta=0.70
     Davidson diagonalization with overlap
     ethr =  9.39E-06,  avg # of iterations =  1.0

     negative rho (up, down):  4.590E-07 0.000E+00

     total cpu time spent up to now is        1.2 secs

     total energy              =     -31.94478923 Ry
     Harris-Foulkes estimate   =     -31.94771934 Ry
     estimated scf accuracy    <       0.13521672 Ry

     iteration # 31     ecut=    30.00 Ry     beta=0.70
     Davidson diagonalization with overlap
     ethr =  9.39E-06,  avg # of iterations =  1.0

     negative rho (up, down):  1.611E-06 0.000E+00

     total cpu time spent up to now is        1.3 secs

     total energy              =     -31.94544202 Ry
     Harris-Foulkes estimate   =     -31.94605896 Ry
     estimated scf accuracy    <       0.00235137 Ry

     iteration # 32     ecut=    30.00 Ry     beta=0.70
     Davidson diagonalization with overlap
     ethr =  9.39E-06,  avg # of iterations =  1.0

     negative rho (up, down):  8.329E-08 0.000E+00

     total cpu time spent up to now is        1.3 secs

     total energy              =     -31.94394044 Ry
     Harris-Foulkes estimate   =     -31.94895781 Ry
     estimated scf accuracy    <       0.19546627 Ry

     iteration # 33     ecut=    30.00 Ry     beta=0.70
     Davidson diagonalization with overlap
     ethr =  9.39E-06,  avg # of iterations =  1.0

     negative rho (up, down):  1.666E-07 0.000E+00

     total cpu time spent up to now is        1.3 secs

     total energy              =     -31.94606529 Ry
     Harris-Foulkes estimate   =     -31.94605483 Ry
     estimated scf accuracy    <       0.00262635 Ry

     iteration # 34     ecut=    30.00 Ry     beta=0.70
     Davidson diagonalization with overlap
     ethr =  9.39E-06,  avg # of iterations =  1.0

     negative rho (up, down):  1.340E-08 0.000E+00

     total cpu time spent up to now is        1.4 secs

     total energy              =     -31.94603248 Ry
     Harris-Foulkes estimate   =     -31.94607137 Ry
     estimated scf accuracy    <       0.00299607 Ry

     iteration # 35     ecut=    30.00 Ry     beta=0.70
     Davidson diagonalization with overlap
     ethr =  9.39E-06,  avg # of iterations =  1.0

     total cpu time spent up to now is        1.4 secs

     total energy              =     -31.94598991 Ry
     Harris-Foulkes estimate   =     -31.94604726 Ry
     estimated scf accuracy    <       0.00056465 Ry

     iteration # 36     ecut=    30.00 Ry     beta=0.70
     Davidson diagonalization with overlap
     ethr =  7.06E-06,  avg # of iterations =  1.0

     total cpu time spent up to now is        1.4 secs

     total energy              =     -31.94606114 Ry
     Harris-Foulkes estimate   =     -31.94607994 Ry
     estimated scf accuracy    <       0.00399316 Ry

     iteration # 37     ecut=    30.00 Ry     beta=0.70
     Davidson diagonalization with overlap
     ethr =  7.06E-06,  avg # of iterations =  1.0

     negative rho (up, down):  8.084E-08 0.000E+00

     total cpu time spent up to now is        1.5 secs

     total energy              =     -31.94580021 Ry
     Harris-Foulkes estimate   =     -31.94606256 Ry
     estimated scf accuracy    <       0.00279439 Ry

     iteration # 38     ecut=    30.00 Ry     beta=0.70
     Davidson diagonalization with overlap
     ethr =  7.06E-06,  avg # of iterations =  1.0

     negative rho (up, down):  4.405E-08 0.000E+00

     total cpu time spent up to now is        1.5 secs

     total energy              =     -31.94582164 Ry
     Harris-Foulkes estimate   =     -31.94626685 Ry
     estimated scf accuracy    <       0.01846629 Ry

     iteration # 39     ecut=    30.00 Ry     beta=0.70
     Davidson diagonalization with overlap
     ethr =  7.06E-06,  avg # of iterations =  1.0

     total cpu time spent up to now is        1.6 secs

     total energy              =     -31.94601397 Ry
     Harris-Foulkes estimate   =     -31.94601910 Ry
     estimated scf accuracy    <       0.00017575 Ry

     iteration # 40     ecut=    30.00 Ry     beta=0.70
     Davidson diagonalization with overlap
     ethr =  2.20E-06,  avg # of iterations =  1.0

     total cpu time spent up to now is        1.6 secs

     total energy              =     -31.94601604 Ry
     Harris-Foulkes estimate   =     -31.94601619 Ry
     estimated scf accuracy    <       0.00000034 Ry

     iteration # 41     ecut=    30.00 Ry     beta=0.70
     Davidson diagonalization with overlap
     ethr =  4.21E-09,  avg # of iterations =  2.0

     total cpu time spent up to now is        1.6 secs

     total energy              =     -31.94601571 Ry
     Harris-Foulkes estimate   =     -31.94601607 Ry
     estimated scf accuracy    <       0.00000036 Ry

     iteration # 42     ecut=    30.00 Ry     beta=0.70
     Davidson diagonalization with overlap
     ethr =  4.21E-09,  avg # of iterations =  1.0

     total cpu time spent up to now is        1.7 secs

     total energy              =     -31.94601567 Ry
     Harris-Foulkes estimate   =     -31.94601574 Ry
     estimated scf accuracy    <       0.00000033 Ry

     iteration # 43     ecut=    30.00 Ry     beta=0.70
     Davidson diagonalization with overlap
     ethr =  4.09E-09,  avg # of iterations =  1.0

     total cpu time spent up to now is        1.7 secs

     End of self-consistent calculation

          k = 0.0000 0.0000 0.0000 ( 22119 PWs)   bands (ev):

   -24.8180 -10.6628  -7.0705  -7.0700  -6.9313  -0.7203   0.2923   0.8284

     the Fermi energy is    -6.9000 ev

!    total energy              =     -31.94601570 Ry
     Harris-Foulkes estimate   =     -31.94601568 Ry
     estimated scf accuracy    <          6.2E-09 Ry

     convergence has been achieved in  43 iterations

     Forces acting on atoms (Ry/au):

     atom    1 type  1   force =    -0.00029567   -0.00013888   -0.00026230
     atom    2 type  1   force =     0.00346158    0.01427273    0.00807948
     atom    3 type  2   force =    -0.00316591   -0.01413385   -0.00781719

     Total force =     0.023496     Total SCF correction =     0.000124

     Molecular Dynamics Calculation

     Starting temperature  =  1000.00 K

     temperature is controlled by Andersen thermostat
     Collision frequency = 1.0000/timestep
     mass H                =     1.01
     mass O                =    16.00
     Time step             =   100.00 a.u.,  4.8378 femto-seconds

     Entering Dynamics:    iteration =     1
                           time      =   0.0048 pico-seconds


     Andersen thermostat:    3 collisions

ATOMIC_POSITIONS (bohr)
H        4.278211356   2.069928716  16.997700117
H        8.566084530  14.790463944  12.290189686
O        7.889702464  12.783770754  11.411941887


     kinetic energy (Ekin) =     0.01784620 Ry
     temperature           =   939.22948450 K 
     Ekin + Etot (const)   =   -31.92816950 Ry

     Linear momentum :   -0.0000000000   -0.0000000000    0.0000000000

     Writing output data file pwscf.save
     Check: negative starting charge=   -0.348566
     NEW-OLD atomic charge density approx. for the potential
     Check: negative starting charge=   -0.347520

     negative rho (up, down):  7.038E-02 0.000E+00

     total cpu time spent up to now is        2.0 secs

     per-process dynamical memory:    20.4 Mb

     Self-consistent Calculation

     iteration #  1     ecut=    30.00 Ry     beta=0.70
     Davidson diagonalization with overlap
     c_bands:  1 eigenvalues not converged
     ethr =  1.00E-06,  avg # of iterations = 20.0

     negative rho (up, down):  1.639E-02 0.000E+00

     total cpu time spent up to now is        2.1 secs

     total energy              =     -31.17722492 Ry
     Harris-Foulkes estimate   =     -31.87073499 Ry
     estimated scf accuracy    <       0.91640950 Ry

     iteration #  2     ecut=    30.00 Ry     beta=0.70
     Davidson diagonalization with overlap
     ethr =  1.00E-02,  avg # of iterations =  3.0

     negative rho (up, down):  1.250E-02 0.000E+00

     total cpu time spent up to now is        2.2 secs

     total energy              =     -32.16578376 Ry
     Harris-Foulkes estimate   =     -33.59041250 Ry
     estimated scf accuracy    <       3.98188259 Ry

     iteration #  3     ecut=    30.00 Ry     beta=0.70
     Davidson diagonalization with overlap
     ethr =  1.00E-02,  avg # of iterations =  2.0

     negative rho (up, down):  1.090E-02 0.000E+00

     total cpu time spent up to now is        2.2 secs

     total energy              =     -32.10814828 Ry
     Harris-Foulkes estimate   =     -32.31216439 Ry
     estimated scf accuracy    <       1.46484516 Ry

     iteration #  4     ecut=    30.00 Ry     beta=0.70
     Davidson diagonalization with overlap
     ethr =  1.00E-02,  avg # of iterations =  1.0

     negative rho (up, down):  8.063E-03 0.000E+00

     total cpu time spent up to now is        2.2 secs

     total energy              =     -31.77608675 Ry
     Harris-Foulkes estimate   =     -32.10103382 Ry
     estimated scf accuracy    <       1.19849043 Ry

     iteration #  5     ecut=    30.00 Ry     beta=0.70
     Davidson diagonalization with overlap
     ethr =  1.00E-02,  avg # of iterations =  2.0

     negative rho (up, down):  1.658E-03 0.000E+00

     total cpu time spent up to now is        2.2 secs

     total energy              =     -31.99606581 Ry
     Harris-Foulkes estimate   =     -32.04044180 Ry
     estimated scf accuracy    <       1.36793142 Ry

     iteration #  6     ecut=    30.00 Ry     beta=0.70
     Davidson diagonalization with overlap
     ethr =  1.00E-02,  avg # of iterations =  1.0

     negative rho (up, down):  1.093E-04 0.000E+00

     total cpu time spent up to now is        2.3 secs

     total energy              =     -31.83084631 Ry
     Harris-Foulkes estimate   =     -31.99648372 Ry
     estimated scf accuracy    <       1.29258245 Ry

     iteration #  7     ecut=    30.00 Ry     beta=0.70
     Davidson diagonalization with overlap
     ethr =  1.00E-02,  avg # of iterations =  1.0

     negative rho (up, down):  2.194E-06 0.000E+00

     total cpu time spent up to now is        2.3 secs

     total energy              =     -31.94682024 Ry
     Harris-Foulkes estimate   =     -31.96977629 Ry
     estimated scf accuracy    <       0.96714028 Ry

     iteration #  8     ecut=    30.00 Ry     beta=0.70
     Davidson diagonalization with overlap
     ethr =  1.00E-02,  avg # of iterations =  1.0

     negative rho (up, down):  7.277E-08 0.000E+00

     total cpu time spent up to now is        2.3 secs

     total energy              =     -31.93475713 Ry
     Harris-Foulkes estimate   =     -31.94695962 Ry
     estimated scf accuracy    <       0.90924376 Ry

     iteration #  9     ecut=    30.00 Ry     beta=0.70
     Davidson diagonalization with overlap
     ethr =  1.00E-02,  avg # of iterations =  1.0

     negative rho (up, down):  1.037E-07 0.000E+00

     total cpu time spent up to now is        2.4 secs

     total energy              =     -31.90296407 Ry
     Harris-Foulkes estimate   =     -31.93511768 Ry
     estimated scf accuracy    <       0.76329827 Ry

     iteration # 10     ecut=    30.00 Ry     beta=0.70
     Davidson diagonalization with overlap
     ethr =  9.54E-03,  avg # of iterations =  1.0

     negative rho (up, down):  1.021E-04 0.000E+00

     total cpu time spent up to now is        2.4 secs

     total energy              =     -31.91808281 Ry
     Harris-Foulkes estimate   =     -31.91748344 Ry
     estimated scf accuracy    <       0.01549918 Ry

     iteration # 11     ecut=    30.00 Ry     beta=0.70
     Davidson diagonalization with overlap
     ethr =  1.94E-04,  avg # of iterations =  3.0

     total cpu time spent up to now is        2.4 secs

     total energy              =     -31.92747656 Ry
     Harris-Foulkes estimate   =     -31.91857819 Ry
     estimated scf accuracy    <       0.10495478 Ry

     iteration # 12     ecut=    30.00 Ry     beta=0.70
     Davidson diagonalization with overlap
     ethr =  1.94E-04,  avg # of iterations =  1.0

     total cpu time spent up to now is        2.5 secs

     total energy              =     -31.85238573 Ry
     Harris-Foulkes estimate   =     -31.94032282 Ry
     estimated scf accuracy    <       1.41701626 Ry

     iteration # 13     ecut=    30.00 Ry     beta=0.70
     Davidson diagonalization with overlap
     ethr =  1.94E-04,  avg # of iterations =  2.0

     negative rho (up, down):  5.818E-08 0.000E+00

     total cpu time spent up to now is        2.5 secs

     total energy              =     -31.96291936 Ry
     Harris-Foulkes estimate   =     -31.94083692 Ry
     estimated scf accuracy    <       0.85706461 Ry

     iteration # 14     ecut=    30.00 Ry     beta=0.70
     Davidson diagonalization with overlap
     ethr =  1.94E-04,  avg # of iterations =  1.0

     negative rho (up, down):  1.172E-05 0.000E+00

     total cpu time spent up to now is        2.5 secs

     total energy              =     -31.92050885 Ry
     Harris-Foulkes estimate   =     -31.96364307 Ry
     estimated scf accuracy    <       0.96599072 Ry

     iteration # 15     ecut=    30.00 Ry     beta=0.70
     Davidson diagonalization with overlap
     ethr =  1.94E-04,  avg # of iterations =  1.0

     negative rho (up, down):  2.478E-06 0.000E+00

     total cpu time spent up to now is        2.6 secs

     total energy              =     -31.95889080 Ry
     Harris-Foulkes estimate   =     -31.92391731 Ry
     estimated scf accuracy    <       0.39580917 Ry

     iteration # 16     ecut=    30.00 Ry     beta=0.70
     Davidson diagonalization with overlap
     ethr =  1.94E-04,  avg # of iterations =  1.0

     negative rho (up, down):  3.592E-08 0.000E+00

     total cpu time spent up to now is        2.6 secs

     total energy              =     -31.97538844 Ry
     Harris-Foulkes estimate   =     -31.97303362 Ry
     estimated scf accuracy    <       0.97967346 Ry

     iteration # 17     ecut=    30.00 Ry     beta=0.70
     Davidson diagonalization with overlap
     ethr =  1.94E-04,  avg # of iterations =  1.0

     total cpu time spent up to now is        2.6 secs

     total energy              =     -31.94688708 Ry
     Harris-Foulkes estimate   =     -31.97539463 Ry
     estimated scf accuracy    <       0.98317877 Ry

     iteration # 18     ecut=    30.00 Ry     beta=0.70
     Davidson diagonalization with overlap
     ethr =  1.94E-04,  avg # of iterations =  1.0

     total cpu time spent up to now is        2.7 secs

     total energy              =     -31.93388308 Ry
     Harris-Foulkes estimate   =     -31.94700590 Ry
     estimated scf accuracy    <       0.91245121 Ry

     iteration # 19     ecut=    30.00 Ry     beta=0.70
     Davidson diagonalization with overlap
     ethr =  1.94E-04,  avg # of iterations =  1.0

     total cpu time spent up to now is        2.7 secs

     total energy              =     -31.95881502 Ry
     Harris-Foulkes estimate   =     -31.93431770 Ry
     estimated scf accuracy    <       0.74761359 Ry

     iteration # 20     ecut=    30.00 Ry     beta=0.70
     Davidson diagonalization with overlap
     ethr =  1.94E-04,  avg # of iterations =  1.0

     total cpu time spent up to now is        2.7 secs

     total energy              =     -31.97170592 Ry
     Harris-Foulkes estimate   =     -31.96079954 Ry
     estimated scf accuracy    <       0.95904409 Ry

     iteration # 21     ecut=    30.00 Ry     beta=0.70
     Davidson diagonalization with overlap
     ethr =  1.94E-04,  avg # of iterations =  1.0

     negative rho (up, down):  7.998E-05 0.000E+00

     total cpu time spent up to now is        2.8 secs

     total energy              =     -31.82119002 Ry
     Harris-Foulkes estimate   =     -31.97172372 Ry
     estimated scf accuracy    <       0.97834017 Ry

     iteration # 22     ecut=    30.00 Ry     beta=0.70
     Davidson diagonalization with overlap
     ethr =  1.94E-04,  avg # of iterations =  2.0

     negative rho (up, down):  9.012E-07 0.000E+00

     total cpu time spent up to now is        2.8 secs

     total energy              =     -31.99151131 Ry
     Harris-Foulkes estimate   =     -32.00348561 Ry
     estimated scf accuracy    <       1.29596242 Ry

     iteration # 23     ecut=    30.00 Ry     beta=0.70
     Davidson diagonalization with overlap
     ethr =  1.94E-04,  avg # of iterations =  1.0

     negative rho (up, down):  1.973E-07 0.000E+00

     total cpu time spent up to now is        2.9 secs

     total energy              =     -32.00171404 Ry
     Harris-Foulkes estimate   =     -31.99153791 Ry
     estimated scf accuracy    <       1.28406937 Ry

     iteration # 24     ecut=    30.00 Ry     beta=0.70
     Davidson diagonalization with overlap
     ethr =  1.94E-04,  avg # of iterations =  1.0

     negative rho (up, down):  2.866E-08 0.000E+00

     total cpu time spent up to now is        2.9 secs

     total energy              =     -31.90503585 Ry
     Harris-Foulkes estimate   =     -32.00169628 Ry
     estimated scf accuracy    <       1.28922001 Ry

     iteration # 25     ecut=    30.00 Ry     beta=0.70
     Davidson diagonalization with overlap
     ethr =  1.94E-04,  avg # of iterations =  2.0

     total cpu time spent up to now is        2.9 secs

     total energy              =     -31.91737621 Ry
     Harris-Foulkes estimate   =     -31.91727108 Ry
     estimated scf accuracy    <       0.00044682 Ry

     iteration # 26     ecut=    30.00 Ry     beta=0.70
     Davidson diagonalization with overlap
     ethr =  5.59E-06,  avg # of iterations =  9.0

     total cpu time spent up to now is        3.0 secs

     total energy              =     -31.91661829 Ry
     Harris-Foulkes estimate   =     -31.91777443 Ry
     estimated scf accuracy    <       0.03605601 Ry

     iteration # 27     ecut=    30.00 Ry     beta=0.70
     Davidson diagonalization with overlap
     ethr =  5.59E-06,  avg # of iterations =  1.0

     total cpu time spent up to now is        3.0 secs

     total energy              =     -31.91734828 Ry
     Harris-Foulkes estimate   =     -31.91730311 Ry
     estimated scf accuracy    <       0.00166728 Ry

     iteration # 28     ecut=    30.00 Ry     beta=0.70
     Davidson diagonalization with overlap
     ethr =  5.59E-06,  avg # of iterations =  1.0

     total cpu time spent up to now is        3.0 secs

     total energy              =     -31.91733589 Ry
     Harris-Foulkes estimate   =     -31.91737371 Ry
     estimated scf accuracy    <       0.00733445 Ry

     iteration # 29     ecut=    30.00 Ry     beta=0.70
     Davidson diagonalization with overlap
     ethr =  5.59E-06,  avg # of iterations =  1.0

     total cpu time spent up to now is        3.1 secs

     total energy              =     -31.91734974 Ry
     Harris-Foulkes estimate   =     -31.91733971 Ry
     estimated scf accuracy    <       0.00466343 Ry

     iteration # 30     ecut=    30.00 Ry     beta=0.70
     Davidson diagonalization with overlap
     ethr =  5.59E-06,  avg # of iterations =  1.0

     total cpu time spent up to now is        3.1 secs

     total energy              =     -31.91941361 Ry
     Harris-Foulkes estimate   =     -31.91735018 Ry
     estimated scf accuracy    <       0.00550566 Ry

     iteration # 31     ecut=    30.00 Ry     beta=0.70
     Davidson diagonalization with overlap
     ethr =  5.59E-06,  avg # of iterations =  3.0

     total cpu time spent up to now is        3.1 secs

     total energy              =     -31.92725954 Ry
     Harris-Foulkes estimate   =     -31.93163958 Ry
     estimated scf accuracy    <       1.03008615 Ry

     iteration # 32     ecut=    30.00 Ry     beta=0.70
     Davidson diagonalization with overlap
     ethr =  5.59E-06,  avg # of iterations =  1.0

     total cpu time spent up to now is        3.2 secs

     total energy              =     -31.92702318 Ry
     Harris-Foulkes estimate   =     -31.92753397 Ry
     estimated scf accuracy    <       0.77756293 Ry

     iteration # 33     ecut=    30.00 Ry     beta=0.70
     Davidson diagonalization with overlap
     ethr =  5.59E-06,  avg # of iterations =  1.0

     negative rho (up, down):  2.560E-07 0.000E+00

     total cpu time spent up to now is        3.2 secs

     total energy              =     -31.90714973 Ry
     Harris-Foulkes estimate   =     -31.92702878 Ry
     estimated scf accuracy    <       0.74367306 Ry

     iteration # 34     ecut=    30.00 Ry     beta=0.70
     Davidson diagonalization with overlap
     ethr =  5.59E-06,  avg # of iterations =  2.0

     negative rho (up, down):  1.774E-08 0.000E+00

     total cpu time spent up to now is        3.2 secs

     total energy              =     -31.91731663 Ry
     Harris-Foulkes estimate   =     -31.91730875 Ry
     estimated scf accuracy    <       0.00173005 Ry

     iteration # 35     ecut=    30.00 Ry     beta=0.70
     Davidson diagonalization with overlap
     ethr =  5.59E-06,  avg # of iterations =  1.0

     total cpu time spent up to now is        3.3 secs

     total energy              =     -31.91731276 Ry
     Harris-Foulkes estimate   =     -31.91731829 Ry
     estimated scf accuracy    <       0.00241290 Ry

     iteration # 36     ecut=    30.00 Ry     beta=0.70
     Davidson diagonalization with overlap
     ethr =  5.59E-06,  avg # of iterations =  1.0

     total cpu time spent up to now is        3.3 secs

     total energy              =     -31.91726117 Ry
     Harris-Foulkes estimate   =     -31.91731293 Ry
     estimated scf accuracy    <       0.00218648 Ry

     iteration # 37     ecut=    30.00 Ry     beta=0.70
     Davidson diagonalization with overlap
     ethr =  5.59E-06,  avg # of iterations =  1.0

     total cpu time spent up to now is        3.3 secs

     total energy              =     -31.91727772 Ry
     Harris-Foulkes estimate   =     -31.91728132 Ry
     estimated scf accuracy    <       0.00005152 Ry

     iteration # 38     ecut=    30.00 Ry     beta=0.70
     Davidson diagonalization with overlap
     ethr =  6.44E-07,  avg # of iterations =  1.0

     total cpu time spent up to now is        3.4 secs

     total energy              =     -31.91727936 Ry
     Harris-Foulkes estimate   =     -31.91727955 Ry
     estimated scf accuracy    <       0.00002202 Ry

     iteration # 39     ecut=    30.00 Ry     beta=0.70
     Davidson diagonalization with overlap
     ethr =  2.75E-07,  avg # of iterations =  1.0

     total cpu time spent up to now is        3.4 secs

     total energy              =     -31.91727949 Ry
     Harris-Foulkes estimate   =     -31.91727938 Ry
     estimated scf accuracy    <       0.00001247 Ry

     iteration # 40     ecut=    30.00 Ry     beta=0.70
     Davidson diagonalization with overlap
     ethr =  1.56E-07,  avg # of iterations =  1.0

     total cpu time spent up to now is        3.4 secs

     total energy              =     -31.91727974 Ry
     Harris-Foulkes estimate   =     -31.91727950 Ry
     estimated scf accuracy    <       0.00001748 Ry

     iteration # 41     ecut=    30.00 Ry     beta=0.70
     Davidson diagonalization with overlap
     ethr =  1.56E-07,  avg # of iterations =  1.0

     total cpu time spent up to now is        3.5 secs

     total energy              =     -31.91728000 Ry
     Harris-Foulkes estimate   =     -31.91727998 Ry
     estimated scf accuracy    <       0.00000002 Ry

     iteration # 42     ecut=    30.00 Ry     beta=0.70
     Davidson diagonalization with overlap
     ethr =  3.06E-10,  avg # of iterations =  2.0

     total cpu time spent up to now is        3.5 secs

     End of self-consistent calculation

          k = 0.0000 0.0000 0.0000 ( 22119 PWs)   bands (ev):

   -24.2192 -10.1606  -7.0015  -7.0007  -6.8643  -1.2834   0.1286   0.8477

     the Fermi energy is    -6.8316 ev

!    total energy              =     -31.91728002 Ry
     Harris-Foulkes estimate   =     -31.91728001 Ry
     estimated scf accuracy    <          2.4E-09 Ry

     convergence has been achieved in  42 iterations

     Forces acting on atoms (Ry/au):

     atom    1 type  1   force =    -0.00034191   -0.00007895   -0.00025451
     atom    2 type  1   force =    -0.05040985   -0.14873370   -0.06518523
     atom    3 type  2   force =     0.05075176    0.14881266    0.06543974

     Total force =     0.240656     Total SCF correction =     0.000121

     Entering Dynamics:    iteration =     2
                           time      =   0.0097 pico-seconds


     Andersen thermostat:    3 collisions

ATOMIC_POSITIONS (bohr)
H        4.258435270   2.197778555  17.182399431
H        7.770222347  13.125566530  11.480040152
O        7.941189630  12.880796882  11.451423432


     kinetic energy (Ekin) =     0.06445541 Ry
     temperature           =  3392.23088324 K 
     Ekin + Etot (const)   =   -31.85282460 Ry
     Message from routine dynamics:
     Total linear momentum <> 0

     Linear momentum :   -0.3271514181    0.2748559271    0.3310985041

     Writing output data file pwscf.save

     first order wave-functions extrapolation
     Check: negative starting charge=   -0.347520
     first order charge density extrapolation
     Check: negative starting charge=   -0.355553

     negative rho (up, down):  4.116E-01 0.000E+00

     total cpu time spent up to now is        3.9 secs

     per-process dynamical memory:    20.4 Mb

     Self-consistent Calculation

     iteration #  1     ecut=    30.00 Ry     beta=0.70
     Davidson diagonalization with overlap
     c_bands:  1 eigenvalues not converged
     ethr =  1.00E-06,  avg # of iterations = 20.0

     negative rho (up, down):  1.106E-01 0.000E+00

     total cpu time spent up to now is        4.0 secs

     total energy              =      -3.28273574 Ry
     Harris-Foulkes estimate   =      -5.89985025 Ry
     estimated scf accuracy    <       3.01306077 Ry

     iteration #  2     ecut=    30.00 Ry     beta=0.70
     Davidson diagonalization with overlap
     ethr =  1.00E-02,  avg # of iterations =  4.0

     negative rho (up, down):  3.491E-02 0.000E+00

     total cpu time spent up to now is        4.0 secs

     total energy              =      -0.49927604 Ry
     Harris-Foulkes estimate   =      -7.92697779 Ry
     estimated scf accuracy    <      24.97309694 Ry

     iteration #  3     ecut=    30.00 Ry     beta=0.70
     Davidson diagonalization with overlap
     ethr =  1.00E-02,  avg # of iterations =  6.0

     negative rho (up, down):  3.005E-02 0.000E+00

     total cpu time spent up to now is        4.1 secs

     total energy              =      -4.14797082 Ry
     Harris-Foulkes estimate   =      -4.40872081 Ry
     estimated scf accuracy    <       1.46453917 Ry

     iteration #  4     ecut=    30.00 Ry     beta=0.70
     Davidson diagonalization with overlap
     ethr =  1.00E-02,  avg # of iterations =  1.0

     negative rho (up, down):  2.675E-01 0.000E+00

     total cpu time spent up to now is        4.1 secs

     total energy              =      -3.68734981 Ry
     Harris-Foulkes estimate   =      -4.16205939 Ry
     estimated scf accuracy    <       0.96647624 Ry

     iteration #  5     ecut=    30.00 Ry     beta=0.70
     Davidson diagonalization with overlap
     ethr =  1.00E-02,  avg # of iterations =  5.0

     negative rho (up, down):  4.259E-03 0.000E+00

     total cpu time spent up to now is        4.1 secs

     total energy              =      -5.37185692 Ry
     Harris-Foulkes estimate   =      -5.88741365 Ry
     estimated scf accuracy    <       2.57592904 Ry

     iteration #  6     ecut=    30.00 Ry     beta=0.70
     Davidson diagonalization with overlap
     ethr =  1.00E-02,  avg # of iterations =  1.0

     negative rho (up, down):  6.942E-02 0.000E+00

     total cpu time spent up to now is        4.2 secs

     total energy              =      -5.63642400 Ry
     Harris-Foulkes estimate   =      -5.37555428 Ry
     estimated scf accuracy    <       1.79631770 Ry

     iteration #  7     ecut=    30.00 Ry     beta=0.70
     Davidson diagonalization with overlap
     ethr =  1.00E-02,  avg # of iterations =  1.0

     negative rho (up, down):  7.733E-02 0.000E+00

     total cpu time spent up to now is        4.2 secs

     total energy              =      -5.68454052 Ry
     Harris-Foulkes estimate   =      -5.63738624 Ry
     estimated scf accuracy    <       2.17962672 Ry

     iteration #  8     ecut=    30.00 Ry     beta=0.70
     Davidson diagonalization with overlap
     ethr =  1.00E-02,  avg # of iterations =  1.0

     negative rho (up, down):  9.169E-02 0.000E+00

     total cpu time spent up to now is        4.2 secs

     total energy              =      -6.11426219 Ry
     Harris-Foulkes estimate   =      -5.68463086 Ry
     estimated scf accuracy    <       2.25150759 Ry

     iteration #  9     ecut=    30.00 Ry     beta=0.70
     Davidson diagonalization with overlap
     ethr =  1.00E-02,  avg # of iterations =  1.0

     negative rho (up, down):  1.256E-01 0.000E+00

     total cpu time spent up to now is        4.3 secs

     total energy              =      -3.96435249 Ry
     Harris-Foulkes estimate   =      -6.11592963 Ry
     estimated scf accuracy    <       2.82477320 Ry

     iteration # 10     ecut=    30.00 Ry     beta=0.70
     Davidson diagonalization with overlap
     ethr =  1.00E-02,  avg # of iterations =  5.0

     negative rho (up, down):  2.783E-01 0.000E+00

     total cpu time spent up to now is        4.3 secs

     total energy              =      -8.38143214 Ry
     Harris-Foulkes estimate   =      -7.08201071 Ry
     estimated scf accuracy    <      26.68116783 Ry

     iteration # 11     ecut=    30.00 Ry     beta=0.70
     Davidson diagonalization with overlap
     ethr =  1.00E-02,  avg # of iterations =  2.0

     negative rho (up, down):  7.199E-04 0.000E+00

     total cpu time spent up to now is        4.4 secs

     total energy              =      -5.46753638 Ry
     Harris-Foulkes estimate   =      -8.43976282 Ry
     estimated scf accuracy    <      29.36819334 Ry

     iteration # 12     ecut=    30.00 Ry     beta=0.70
     Davidson diagonalization with overlap
     ethr =  1.00E-02,  avg # of iterations =  2.0

     negative rho (up, down):  3.242E-03 0.000E+00

     total cpu time spent up to now is        4.4 secs

     total energy              =      -3.14890163 Ry
     Harris-Foulkes estimate   =      -5.87266633 Ry
     estimated scf accuracy    <       6.75322570 Ry

     iteration # 13     ecut=    30.00 Ry     beta=0.70
     Davidson diagonalization with overlap
     ethr =  1.00E-02,  avg # of iterations =  4.0

     negative rho (up, down):  3.324E-05 0.000E+00

     total cpu time spent up to now is        4.5 secs

     total energy              =      -4.23881339 Ry
     Harris-Foulkes estimate   =      -5.14298447 Ry
     estimated scf accuracy    <       1.45966187 Ry

     iteration # 14     ecut=    30.00 Ry     beta=0.70
     Davidson diagonalization with overlap
     ethr =  1.00E-02,  avg # of iterations =  2.0

     negative rho (up, down):  2.483E-05 0.000E+00

     total cpu time spent up to now is        4.5 secs

     total energy              =      -5.44200515 Ry
     Harris-Foulkes estimate   =      -5.51307024 Ry
     estimated scf accuracy    <       3.02395079 Ry

     iteration # 15     ecut=    30.00 Ry     beta=0.70
     Davidson diagonalization with overlap
     ethr =  1.00E-02,  avg # of iterations =  1.0

     negative rho (up, down):  3.895E-05 0.000E+00

     total cpu time spent up to now is        4.5 secs

     total energy              =      -5.30742888 Ry
     Harris-Foulkes estimate   =      -5.44334305 Ry
     estimated scf accuracy    <       2.91201914 Ry

     iteration # 16     ecut=    30.00 Ry     beta=0.70
     Davidson diagonalization with overlap
     ethr =  1.00E-02,  avg # of iterations =  1.0

     negative rho (up, down):  2.084E-08 0.000E+00

     total cpu time spent up to now is        4.6 secs

     total energy              =      -4.39270046 Ry
     Harris-Foulkes estimate   =      -5.30941032 Ry
     estimated scf accuracy    <       2.71736435 Ry

     iteration # 17     ecut=    30.00 Ry     beta=0.70
     Davidson diagonalization with overlap
     ethr =  1.00E-02,  avg # of iterations =  1.0

     negative rho (up, down):  1.191E-03 0.000E+00

     total cpu time spent up to now is        4.6 secs

     total energy              =      -4.68441958 Ry
     Harris-Foulkes estimate   =      -4.83951804 Ry
     estimated scf accuracy    <       1.01295227 Ry

     iteration # 18     ecut=    30.00 Ry     beta=0.70
     Davidson diagonalization with overlap
     ethr =  1.00E-02,  avg # of iterations =  1.0

     negative rho (up, down):  5.610E-04 0.000E+00

     total cpu time spent up to now is        4.6 secs

     total energy              =      -4.67989034 Ry
     Harris-Foulkes estimate   =      -4.68735034 Ry
     estimated scf accuracy    <       0.72323387 Ry

     iteration # 19     ecut=    30.00 Ry     beta=0.70
     Davidson diagonalization with overlap
     ethr =  9.04E-03,  avg # of iterations =  1.0

     negative rho (up, down):  1.764E-05 0.000E+00

     total cpu time spent up to now is        4.7 secs

     total energy              =      -4.68263937 Ry
     Harris-Foulkes estimate   =      -4.68060548 Ry
     estimated scf accuracy    <       0.53140196 Ry

     iteration # 20     ecut=    30.00 Ry     beta=0.70
     Davidson diagonalization with overlap
     ethr =  6.64E-03,  avg # of iterations =  1.0

     negative rho (up, down):  8.291E-06 0.000E+00

     total cpu time spent up to now is        4.7 secs

     total energy              =      -4.64915972 Ry
     Harris-Foulkes estimate   =      -4.68438451 Ry
     estimated scf accuracy    <       0.62835768 Ry

     iteration # 21     ecut=    30.00 Ry     beta=0.70
     Davidson diagonalization with overlap
     ethr =  6.64E-03,  avg # of iterations =  1.0

     negative rho (up, down):  2.189E-02 0.000E+00

     total cpu time spent up to now is        4.7 secs

     total energy              =      -4.13292222 Ry
     Harris-Foulkes estimate   =      -4.68654305 Ry
     estimated scf accuracy    <       0.82676726 Ry

     iteration # 22     ecut=    30.00 Ry     beta=0.70
     Davidson diagonalization with overlap
     ethr =  6.64E-03,  avg # of iterations =  3.0

     negative rho (up, down):  4.666E-02 0.000E+00

     total cpu time spent up to now is        4.8 secs

     total energy              =      -7.32546175 Ry
     Harris-Foulkes estimate   =      -6.05428265 Ry
     estimated scf accuracy    <       2.67006877 Ry

     iteration # 23     ecut=    30.00 Ry     beta=0.70
     Davidson diagonalization with overlap
     ethr =  6.64E-03,  avg # of iterations =  3.0

     negative rho (up, down):  8.692E-03 0.000E+00

     total cpu time spent up to now is        4.8 secs

     total energy              =      -7.26285416 Ry
     Harris-Foulkes estimate   =      -7.34317584 Ry
     estimated scf accuracy    <       4.36475395 Ry

     iteration # 24     ecut=    30.00 Ry     beta=0.70
     Davidson diagonalization with overlap
     ethr =  6.64E-03,  avg # of iterations =  1.0

     negative rho (up, down):  2.431E-02 0.000E+00

     total cpu time spent up to now is        4.8 secs

     total energy              =      -7.95462837 Ry
     Harris-Foulkes estimate   =      -7.26426842 Ry
     estimated scf accuracy    <       4.29147912 Ry

     iteration # 25     ecut=    30.00 Ry     beta=0.70
     Davidson diagonalization with overlap
     ethr =  6.64E-03,  avg # of iterations =  1.0

     negative rho (up, down):  1.996E-02 0.000E+00

     total cpu time spent up to now is        4.9 secs

     total energy              =      -7.32807162 Ry
     Harris-Foulkes estimate   =      -7.95419336 Ry
     estimated scf accuracy    <       5.17631025 Ry

     iteration # 26     ecut=    30.00 Ry     beta=0.70
     Davidson diagonalization with overlap
     ethr =  6.64E-03,  avg # of iterations =  1.0

     negative rho (up, down):  7.272E-03 0.000E+00

     total cpu time spent up to now is        4.9 secs

     total energy              =      -6.40995184 Ry
     Harris-Foulkes estimate   =      -7.33648201 Ry
     estimated scf accuracy    <       4.44846807 Ry

     iteration # 27     ecut=    30.00 Ry     beta=0.70
     Davidson diagonalization with overlap
     ethr =  6.64E-03,  avg # of iterations =  1.0

     negative rho (up, down):  1.587E-03 0.000E+00

     total cpu time spent up to now is        4.9 secs

     total energy              =      -5.08511143 Ry
     Harris-Foulkes estimate   =      -6.42117813 Ry
     estimated scf accuracy    <       3.21284656 Ry

     iteration # 28     ecut=    30.00 Ry     beta=0.70
     Davidson diagonalization with overlap
     ethr =  6.64E-03,  avg # of iterations =  4.0

     negative rho (up, down):  4.166E-06 0.000E+00

     total cpu time spent up to now is        5.0 secs

     total energy              =      -4.35737810 Ry
     Harris-Foulkes estimate   =      -5.11514668 Ry
     estimated scf accuracy    <       1.40025709 Ry

     iteration # 29     ecut=    30.00 Ry     beta=0.70
     Davidson diagonalization with overlap
     ethr =  6.64E-03,  avg # of iterations =  3.0

     negative rho (up, down):  9.569E-05 0.000E+00

     total cpu time spent up to now is        5.0 secs

     total energy              =      -5.98173827 Ry
     Harris-Foulkes estimate   =      -5.20039253 Ry
     estimated scf accuracy    <       2.55500359 Ry

     iteration # 30     ecut=    30.00 Ry     beta=0.70
     Davidson diagonalization with overlap
     ethr =  6.64E-03,  avg # of iterations =  1.0

     negative rho (up, down):  5.976E-02 0.000E+00

     total cpu time spent up to now is        5.0 secs

     total energy              =      -6.39882176 Ry
     Harris-Foulkes estimate   =      -6.00727901 Ry
     estimated scf accuracy    <       4.04181342 Ry

     iteration # 31     ecut=    30.00 Ry     beta=0.70
     Davidson diagonalization with overlap
     ethr =  6.64E-03,  avg # of iterations =  3.0

     negative rho (up, down):  1.046E-04 0.000E+00

     total cpu time spent up to now is        5.1 secs

     total energy              =      -5.27708279 Ry
     Harris-Foulkes estimate   =      -6.92790011 Ry
     estimated scf accuracy    <      26.53806232 Ry

     iteration # 32     ecut=    30.00 Ry     beta=0.70
     Davidson diagonalization with overlap
     ethr =  6.64E-03,  avg # of iterations =  2.0

     negative rho (up, down):  2.421E-03 0.000E+00

     total cpu time spent up to now is        5.1 secs

     total energy              =      -5.10219486 Ry
     Harris-Foulkes estimate   =      -5.90429759 Ry
     estimated scf accuracy    <       3.87808755 Ry

     iteration # 33     ecut=    30.00 Ry     beta=0.70
     Davidson diagonalization with overlap
     ethr =  6.64E-03,  avg # of iterations =  2.0

     negative rho (up, down):  5.439E-03 0.000E+00

     total cpu time spent up to now is        5.1 secs

     total energy              =      -5.04887995 Ry
     Harris-Foulkes estimate   =      -5.17504452 Ry
     estimated scf accuracy    <       2.57797294 Ry

     iteration # 34     ecut=    30.00 Ry     beta=0.70
     Davidson diagonalization with overlap
     ethr =  6.64E-03,  avg # of iterations =  1.0

     negative rho (up, down):  1.218E-02 0.000E+00

     total cpu time spent up to now is        5.2 secs

     total energy              =      -4.77010660 Ry
     Harris-Foulkes estimate   =      -5.05027261 Ry
     estimated scf accuracy    <       2.37282714 Ry

     iteration # 35     ecut=    30.00 Ry     beta=0.70
     Davidson diagonalization with overlap
     ethr =  6.64E-03,  avg # of iterations =  1.0

     negative rho (up, down):  1.141E-02 0.000E+00

     total cpu time spent up to now is        5.2 secs

     total energy              =      -4.67644258 Ry
     Harris-Foulkes estimate   =      -4.77483965 Ry
     estimated scf accuracy    <       1.91005726 Ry

     iteration # 36     ecut=    30.00 Ry     beta=0.70
     Davidson diagonalization with overlap
     ethr =  6.64E-03,  avg # of iterations =  1.0

     negative rho (up, down):  1.058E-02 0.000E+00

     total cpu time spent up to now is        5.2 secs

     total energy              =      -4.64324335 Ry
     Harris-Foulkes estimate   =      -4.68528965 Ry
     estimated scf accuracy    <       0.33894021 Ry

     iteration # 37     ecut=    30.00 Ry     beta=0.70
     Davidson diagonalization with overlap
     ethr =  4.24E-03,  avg # of iterations =  1.0

     negative rho (up, down):  9.213E-03 0.000E+00

     total cpu time spent up to now is        5.3 secs

     total energy              =      -4.53705808 Ry
     Harris-Foulkes estimate   =      -4.77471608 Ry
     estimated scf accuracy    <       0.90677390 Ry

     iteration # 38     ecut=    30.00 Ry     beta=0.70
     Davidson diagonalization with overlap
     ethr =  4.24E-03,  avg # of iterations =  1.0

     negative rho (up, down):  1.101E-02 0.000E+00

     total cpu time spent up to now is        5.3 secs

     total energy              =      -4.66032905 Ry
     Harris-Foulkes estimate   =      -4.83879371 Ry
     estimated scf accuracy    <       1.84842186 Ry

     iteration # 39     ecut=    30.00 Ry     beta=0.70
     Davidson diagonalization with overlap
     ethr =  4.24E-03,  avg # of iterations =  1.0

     negative rho (up, down):  1.137E-02 0.000E+00

     total cpu time spent up to now is        5.3 secs

     total energy              =      -4.68549490 Ry
     Harris-Foulkes estimate   =      -4.68477467 Ry
     estimated scf accuracy    <       0.19720875 Ry

     iteration # 40     ecut=    30.00 Ry     beta=0.70
     Davidson diagonalization with overlap
     ethr =  2.47E-03,  avg # of iterations =  1.0

     negative rho (up, down):  1.200E-03 0.000E+00

     total cpu time spent up to now is        5.4 secs

     total energy              =      -4.72557793 Ry
     Harris-Foulkes estimate   =      -4.69553572 Ry
     estimated scf accuracy    <       1.23958386 Ry

     iteration # 41     ecut=    30.00 Ry     beta=0.70
     Davidson diagonalization with overlap
     ethr =  2.47E-03,  avg # of iterations =  1.0

     negative rho (up, down):  4.457E-04 0.000E+00

     total cpu time spent up to now is        5.4 secs

     total energy              =      -4.29751361 Ry
     Harris-Foulkes estimate   =      -4.73675846 Ry
     estimated scf accuracy    <       1.97457737 Ry

     iteration # 42     ecut=    30.00 Ry     beta=0.70
     Davidson diagonalization with overlap
     ethr =  2.47E-03,  avg # of iterations =  2.0

     negative rho (up, down):  2.094E-03 0.000E+00

     total cpu time spent up to now is        5.5 secs

     total energy              =      -5.18579701 Ry
     Harris-Foulkes estimate   =      -5.02529457 Ry
     estimated scf accuracy    <       1.28381195 Ry

     iteration # 43     ecut=    30.00 Ry     beta=0.70
     Davidson diagonalization with overlap
     ethr =  2.47E-03,  avg # of iterations =  1.0

     negative rho (up, down):  2.051E-03 0.000E+00

     total cpu time spent up to now is        5.5 secs

     total energy              =      -5.21001611 Ry
     Harris-Foulkes estimate   =      -5.19080951 Ry
     estimated scf accuracy    <       1.54785884 Ry

     iteration # 44     ecut=    30.00 Ry     beta=0.70
     Davidson diagonalization with overlap
     ethr =  2.47E-03,  avg # of iterations =  1.0

     total cpu time spent up to now is        5.5 secs

     total energy              =      -4.87514493 Ry
     Harris-Foulkes estimate   =      -5.21004217 Ry
     estimated scf accuracy    <       1.58274692 Ry

     iteration # 45     ecut=    30.00 Ry     beta=0.70
     Davidson diagonalization with overlap
     ethr =  2.47E-03,  avg # of iterations =  1.0

     negative rho (up, down):  2.910E-04 0.000E+00

     total cpu time spent up to now is        5.6 secs

     total energy              =      -4.84884924 Ry
     Harris-Foulkes estimate   =      -4.87422372 Ry
     estimated scf accuracy    <       1.06103713 Ry

     iteration # 46     ecut=    30.00 Ry     beta=0.70
     Davidson diagonalization with overlap
     ethr =  2.47E-03,  avg # of iterations =  1.0

     negative rho (up, down):  3.806E-05 0.000E+00

     total cpu time spent up to now is        5.6 secs

     total energy              =      -4.78576180 Ry
     Harris-Foulkes estimate   =      -4.85032060 Ry
     estimated scf accuracy    <       1.03403585 Ry

     iteration # 47     ecut=    30.00 Ry     beta=0.70
     Davidson diagonalization with overlap
     ethr =  2.47E-03,  avg # of iterations =  1.0

     negative rho (up, down):  2.995E-05 0.000E+00

     total cpu time spent up to now is        5.6 secs

     total energy              =      -4.47491589 Ry
     Harris-Foulkes estimate   =      -4.78644019 Ry
     estimated scf accuracy    <       0.92400358 Ry

     iteration # 48     ecut=    30.00 Ry     beta=0.70
     Davidson diagonalization with overlap
     ethr =  2.47E-03,  avg # of iterations =  2.0

     negative rho (up, down):  9.398E-06 0.000E+00

     total cpu time spent up to now is        5.7 secs

     total energy              =      -4.78750302 Ry
     Harris-Foulkes estimate   =      -4.95904534 Ry
     estimated scf accuracy    <       2.05277140 Ry

     iteration # 49     ecut=    30.00 Ry     beta=0.70
     Davidson diagonalization with overlap
     ethr =  2.47E-03,  avg # of iterations =  1.0

     total cpu time spent up to now is        5.7 secs

     total energy              =      -4.76302723 Ry
     Harris-Foulkes estimate   =      -4.80233247 Ry
     estimated scf accuracy    <       1.82503371 Ry

     iteration # 50     ecut=    30.00 Ry     beta=0.70
     Davidson diagonalization with overlap
     ethr =  2.47E-03,  avg # of iterations =  1.0

     negative rho (up, down):  8.096E-07 0.000E+00

     total cpu time spent up to now is        5.7 secs

     total energy              =      -4.72575479 Ry
     Harris-Foulkes estimate   =      -4.76382595 Ry
     estimated scf accuracy    <       1.81088302 Ry

     iteration # 51     ecut=    30.00 Ry     beta=0.70
     Davidson diagonalization with overlap
     ethr =  2.47E-03,  avg # of iterations =  1.0

     negative rho (up, down):  1.748E-07 0.000E+00

     total cpu time spent up to now is        5.8 secs

     total energy              =      -4.65196576 Ry
     Harris-Foulkes estimate   =      -4.72410439 Ry
     estimated scf accuracy    <       2.23827814 Ry

     iteration # 52     ecut=    30.00 Ry     beta=0.70
     Davidson diagonalization with overlap
     ethr =  2.47E-03,  avg # of iterations =  1.0

     negative rho (up, down):  3.653E-06 0.000E+00

     total cpu time spent up to now is        5.8 secs

     total energy              =      -4.67754681 Ry
     Harris-Foulkes estimate   =      -4.68883075 Ry
     estimated scf accuracy    <       0.12348357 Ry

     iteration # 53     ecut=    30.00 Ry     beta=0.70
     Davidson diagonalization with overlap
     ethr =  1.54E-03,  avg # of iterations =  1.0

     negative rho (up, down):  4.840E-06 0.000E+00

     total cpu time spent up to now is        5.8 secs

     total energy              =      -4.77779591 Ry
     Harris-Foulkes estimate   =      -4.80770487 Ry
     estimated scf accuracy    <       1.82943250 Ry

     iteration # 54     ecut=    30.00 Ry     beta=0.70
     Davidson diagonalization with overlap
     ethr =  1.54E-03,  avg # of iterations =  1.0

     negative rho (up, down):  3.035E-06 0.000E+00

     total cpu time spent up to now is        5.9 secs

     total energy              =      -4.76831292 Ry
     Harris-Foulkes estimate   =      -4.77816366 Ry
     estimated scf accuracy    <       1.81485870 Ry

     iteration # 55     ecut=    30.00 Ry     beta=0.70
     Davidson diagonalization with overlap
     ethr =  1.54E-03,  avg # of iterations =  1.0

     negative rho (up, down):  4.504E-06 0.000E+00

     total cpu time spent up to now is        5.9 secs

     total energy              =      -4.80098904 Ry
     Harris-Foulkes estimate   =      -4.76851936 Ry
     estimated scf accuracy    <       1.82902798 Ry

     iteration # 56     ecut=    30.00 Ry     beta=0.70
     Davidson diagonalization with overlap
     ethr =  1.54E-03,  avg # of iterations =  1.0

     negative rho (up, down):  3.624E-06 0.000E+00

     total cpu time spent up to now is        5.9 secs

     total energy              =      -4.81524317 Ry
     Harris-Foulkes estimate   =      -4.80367038 Ry
     estimated scf accuracy    <       1.79931823 Ry

     iteration # 57     ecut=    30.00 Ry     beta=0.70
     Davidson diagonalization with overlap
     ethr =  1.54E-03,  avg # of iterations =  1.0

     negative rho (up, down):  2.226E-06 0.000E+00

     total cpu time spent up to now is        6.0 secs

     total energy              =      -4.81820414 Ry
     Harris-Foulkes estimate   =      -4.81533840 Ry
     estimated scf accuracy    <       1.81187174 Ry

     iteration # 58     ecut=    30.00 Ry     beta=0.70
     Davidson diagonalization with overlap
     ethr =  1.54E-03,  avg # of iterations =  1.0

     negative rho (up, down):  1.843E-06 0.000E+00

     total cpu time spent up to now is        6.0 secs

     total energy              =      -4.80912341 Ry
     Harris-Foulkes estimate   =      -4.81820602 Ry
     estimated scf accuracy    <       1.81651231 Ry

     iteration # 59     ecut=    30.00 Ry     beta=0.70
     Davidson diagonalization with overlap
     ethr =  1.54E-03,  avg # of iterations =  1.0

     total cpu time spent up to now is        6.0 secs

     total energy              =      -4.75578676 Ry
     Harris-Foulkes estimate   =      -4.80913706 Ry
     estimated scf accuracy    <       1.79999516 Ry

     iteration # 60     ecut=    30.00 Ry     beta=0.70
     Davidson diagonalization with overlap
     ethr =  1.54E-03,  avg # of iterations =  1.0

     total cpu time spent up to now is        6.1 secs

     total energy              =      -4.67888320 Ry
     Harris-Foulkes estimate   =      -4.75615545 Ry
     estimated scf accuracy    <       1.73309854 Ry

     iteration # 61     ecut=    30.00 Ry     beta=0.70
     Davidson diagonalization with overlap
     ethr =  1.54E-03,  avg # of iterations =  1.0

     total cpu time spent up to now is        6.1 secs

     total energy              =      -4.62713880 Ry
     Harris-Foulkes estimate   =      -4.67703663 Ry
     estimated scf accuracy    <       0.87466776 Ry

     iteration # 62     ecut=    30.00 Ry     beta=0.70
     Davidson diagonalization with overlap
     ethr =  1.54E-03,  avg # of iterations =  1.0

     total cpu time spent up to now is        6.1 secs

     total energy              =      -4.67845598 Ry
     Harris-Foulkes estimate   =      -4.67577656 Ry
     estimated scf accuracy    <       0.55168782 Ry

     iteration # 63     ecut=    30.00 Ry     beta=0.70
     Davidson diagonalization with overlap
     ethr =  1.54E-03,  avg # of iterations =  1.0

     total cpu time spent up to now is        6.2 secs

     total energy              =      -4.66542178 Ry
     Harris-Foulkes estimate   =      -4.67856505 Ry
     estimated scf accuracy    <       0.62338395 Ry

     iteration # 64     ecut=    30.00 Ry     beta=0.70
     Davidson diagonalization with overlap
     ethr =  1.54E-03,  avg # of iterations =  1.0

     total cpu time spent up to now is        6.2 secs

     total energy              =      -4.66569069 Ry
     Harris-Foulkes estimate   =      -4.66759591 Ry
     estimated scf accuracy    <       0.22107392 Ry

     iteration # 65     ecut=    30.00 Ry     beta=0.70
     Davidson diagonalization with overlap
     ethr =  1.54E-03,  avg # of iterations =  1.0

     total cpu time spent up to now is        6.2 secs

     total energy              =      -4.63903907 Ry
     Harris-Foulkes estimate   =      -4.66593369 Ry
     estimated scf accuracy    <       0.12049029 Ry

     iteration # 66     ecut=    30.00 Ry     beta=0.70
     Davidson diagonalization with overlap
     ethr =  1.51E-03,  avg # of iterations =  1.0

     total cpu time spent up to now is        6.3 secs

     total energy              =      -4.67586892 Ry
     Harris-Foulkes estimate   =      -4.74304214 Ry
     estimated scf accuracy    <       1.71096752 Ry

     iteration # 67     ecut=    30.00 Ry     beta=0.70
     Davidson diagonalization with overlap
     ethr =  1.51E-03,  avg # of iterations =  1.0

     total cpu time spent up to now is        6.3 secs

     total energy              =      -4.62214697 Ry
     Harris-Foulkes estimate   =      -4.67424749 Ry
     estimated scf accuracy    <       0.86294559 Ry

     iteration # 68     ecut=    30.00 Ry     beta=0.70
     Davidson diagonalization with overlap
     ethr =  1.51E-03,  avg # of iterations =  1.0

     total cpu time spent up to now is        6.3 secs

     total energy              =      -4.66665611 Ry
     Harris-Foulkes estimate   =      -4.68276073 Ry
     estimated scf accuracy    <       0.69669150 Ry

     iteration # 69     ecut=    30.00 Ry     beta=0.70
     Davidson diagonalization with overlap
     ethr =  1.51E-03,  avg # of iterations =  1.0

     total cpu time spent up to now is        6.4 secs

     total energy              =      -4.65869778 Ry
     Harris-Foulkes estimate   =      -4.66882845 Ry
     estimated scf accuracy    <       0.29019832 Ry

     iteration # 70     ecut=    30.00 Ry     beta=0.70
     Davidson diagonalization with overlap
     ethr =  1.51E-03,  avg # of iterations =  1.0

     total cpu time spent up to now is        6.4 secs

     total energy              =      -4.66357452 Ry
     Harris-Foulkes estimate   =      -4.66434700 Ry
     estimated scf accuracy    <       0.01469711 Ry

     iteration # 71     ecut=    30.00 Ry     beta=0.70
     Davidson diagonalization with overlap
     ethr =  1.84E-04,  avg # of iterations =  1.0

     total cpu time spent up to now is        6.4 secs

     total energy              =      -4.66453471 Ry
     Harris-Foulkes estimate   =      -4.66442018 Ry
     estimated scf accuracy    <       0.01922452 Ry

     iteration # 72     ecut=    30.00 Ry     beta=0.70
     Davidson diagonalization with overlap
     ethr =  1.84E-04,  avg # of iterations =  1.0

     total cpu time spent up to now is        6.5 secs

     total energy              =      -4.66427855 Ry
     Harris-Foulkes estimate   =      -4.66454761 Ry
     estimated scf accuracy    <       0.02866268 Ry

     iteration # 73     ecut=    30.00 Ry     beta=0.70
     Davidson diagonalization with overlap
     ethr =  1.84E-04,  avg # of iterations =  1.0

     total cpu time spent up to now is        6.5 secs

     total energy              =      -4.66432798 Ry
     Harris-Foulkes estimate   =      -4.66432545 Ry
     estimated scf accuracy    <       0.01190775 Ry

     iteration # 74     ecut=    30.00 Ry     beta=0.70
     Davidson diagonalization with overlap
     ethr =  1.49E-04,  avg # of iterations =  1.0

     total cpu time spent up to now is        6.5 secs

     total energy              =      -4.66420439 Ry
     Harris-Foulkes estimate   =      -4.66432801 Ry
     estimated scf accuracy    <       0.01211873 Ry

     iteration # 75     ecut=    30.00 Ry     beta=0.70
     Davidson diagonalization with overlap
     ethr =  1.49E-04,  avg # of iterations =  1.0

     total cpu time spent up to now is        6.6 secs

     total energy              =      -4.66409704 Ry
     Harris-Foulkes estimate   =      -4.66422864 Ry
     estimated scf accuracy    <       0.00438776 Ry

     iteration # 76     ecut=    30.00 Ry     beta=0.70
     Davidson diagonalization with overlap
     ethr =  5.48E-05,  avg # of iterations =  1.0

     total cpu time spent up to now is        6.7 secs

     total energy              =      -4.66417236 Ry
     Harris-Foulkes estimate   =      -4.66417465 Ry
     estimated scf accuracy    <       0.00017904 Ry

     iteration # 77     ecut=    30.00 Ry     beta=0.70
     Davidson diagonalization with overlap
     ethr =  2.24E-06,  avg # of iterations =  1.0

     total cpu time spent up to now is        6.7 secs

     total energy              =      -4.66417138 Ry
     Harris-Foulkes estimate   =      -4.66417275 Ry
     estimated scf accuracy    <       0.00006091 Ry

     iteration # 78     ecut=    30.00 Ry     beta=0.70
     Davidson diagonalization with overlap
     ethr =  7.61E-07,  avg # of iterations =  1.0

     total cpu time spent up to now is        6.7 secs

     total energy              =      -4.66417202 Ry
     Harris-Foulkes estimate   =      -4.66417202 Ry
     estimated scf accuracy    <       0.00000032 Ry

     iteration # 79     ecut=    30.00 Ry     beta=0.70
     Davidson diagonalization with overlap
     ethr =  4.05E-09,  avg # of iterations =  1.0

     total cpu time spent up to now is        6.8 secs

     End of self-consistent calculation

          k = 0.0000 0.0000 0.0000 ( 22119 PWs)   bands (ev):

   -28.6228  -9.5272  -8.1278  -8.1276  -7.9459  -0.2906   0.5619   0.6812

     the Fermi energy is    -7.9429 ev

!    total energy              =      -4.66417202 Ry
     Harris-Foulkes estimate   =      -4.66417202 Ry
     estimated scf accuracy    <          1.6E-09 Ry

     convergence has been achieved in  79 iterations

     Forces acting on atoms (Ry/au):

     atom    1 type  1   force =     0.00069104   -0.00078700   -0.00045772
     atom    2 type  1   force =   -76.14924886  109.02076057   12.74465221
     atom    3 type  2   force =    76.14855782 -109.01997357  -12.74419449

     Total force =   188.925997     Total SCF correction =     0.000004

     Entering Dynamics:    iteration =     3
                           time      =   0.0145 pico-seconds


     Andersen thermostat:    3 collisions

ATOMIC_POSITIONS (bohr)
H        4.602553345   2.300634053  17.138808469
H     -819.0972493841196.847680692 149.758122037
O       60.115476329 -61.848154328   2.725371192


     kinetic energy (Ekin) = 25715.03968758 Ry
     temperature           = ************** K 
     Ekin + Etot (const)   = 25710.37551556 Ry
     Message from routine dynamics:
     Total linear momentum <> 0

     Linear momentum :   -0.0736706777    0.0141433419    0.0827963335

     Writing output data file pwscf.save

     second order wave-functions extrapolation
     Check: negative starting charge=   -0.355553
     second order charge density extrapolation
     Check: negative starting charge=   -0.340822

     negative rho (up, down):  3.831E+02 0.000E+00

     total cpu time spent up to now is        7.1 secs

     per-process dynamical memory:    20.4 Mb

     Self-consistent Calculation

     iteration #  1     ecut=    30.00 Ry     beta=0.70
     Davidson diagonalization with overlap
     c_bands:  3 eigenvalues not converged
     ethr =  1.00E-06,  avg # of iterations = 20.0

     negative rho (up, down):  1.143E+02 0.000E+00

     total cpu time spent up to now is        7.2 secs

     total energy              =   -4465.01340597 Ry
     Harris-Foulkes estimate   = -201714.95302441 Ry
     estimated scf accuracy    <   44632.90214698 Ry

     iteration #  2     ecut=    30.00 Ry     beta=0.70
     Davidson diagonalization with overlap
     ethr =  1.00E-02,  avg # of iterations = 19.0

     negative rho (up, down):  7.820E-02 0.000E+00

     total cpu time spent up to now is        7.3 secs

     total energy              =     164.53146700 Ry
     Harris-Foulkes estimate   =  -32535.50371700 Ry
     estimated scf accuracy    <    4093.88627950 Ry

     iteration #  3     ecut=    30.00 Ry     beta=0.70
     Davidson diagonalization with overlap
     ethr =  1.00E-02,  avg # of iterations = 11.0

     negative rho (up, down):  1.695E-01 0.000E+00

     total cpu time spent up to now is        7.4 secs

     total energy              =     -55.92507552 Ry
     Harris-Foulkes estimate   =    -102.63948552 Ry
     estimated scf accuracy    <      95.88207080 Ry

     iteration #  4     ecut=    30.00 Ry     beta=0.70
     Davidson diagonalization with overlap
     ethr =  1.00E-02,  avg # of iterations = 10.0

     negative rho (up, down):  3.813E-01 0.000E+00

     total cpu time spent up to now is        7.5 secs

     total energy              =      37.55676029 Ry
     Harris-Foulkes estimate   =    -111.24518402 Ry
     estimated scf accuracy    <      24.96037904 Ry

     iteration #  5     ecut=    30.00 Ry     beta=0.70
     Davidson diagonalization with overlap
     ethr =  1.00E-02,  avg # of iterations =  7.0

     negative rho (up, down):  1.949E-01 0.000E+00

     total cpu time spent up to now is        7.5 secs

     total energy              =      -9.96556002 Ry
     Harris-Foulkes estimate   =    -104.40066845 Ry
     estimated scf accuracy    <      25.60181792 Ry

     iteration #  6     ecut=    30.00 Ry     beta=0.70
     Davidson diagonalization with overlap
     ethr =  1.00E-02,  avg # of iterations =  5.0

     negative rho (up, down):  1.187E-01 0.000E+00

     total cpu time spent up to now is        7.5 secs

     total energy              =      25.51482630 Ry
     Harris-Foulkes estimate   =    -103.35369390 Ry
     estimated scf accuracy    <      18.33826617 Ry

     iteration #  7     ecut=    30.00 Ry     beta=0.70
     Davidson diagonalization with overlap
     ethr =  1.00E-02,  avg # of iterations =  7.0

     negative rho (up, down):  3.458E-02 0.000E+00

     total cpu time spent up to now is        7.6 secs

     total energy              =     -16.38670231 Ry
     Harris-Foulkes estimate   =     -55.02804609 Ry
     estimated scf accuracy    <      18.58878241 Ry

     iteration #  8     ecut=    30.00 Ry     beta=0.70
     Davidson diagonalization with overlap
     ethr =  1.00E-02,  avg # of iterations =  3.0

     negative rho (up, down):  2.259E-03 0.000E+00

     total cpu time spent up to now is        7.6 secs

     total energy              =     -37.58413744 Ry
     Harris-Foulkes estimate   =     -46.10358124 Ry
     estimated scf accuracy    <      22.08518487 Ry

     iteration #  9     ecut=    30.00 Ry     beta=0.70
     Davidson diagonalization with overlap
     ethr =  1.00E-02,  avg # of iterations =  4.0

     negative rho (up, down):  2.478E-01 0.000E+00

     total cpu time spent up to now is        7.7 secs

     total energy              =     -42.91258478 Ry
     Harris-Foulkes estimate   =     -37.92896182 Ry
     estimated scf accuracy    <      10.64848873 Ry

     iteration # 10     ecut=    30.00 Ry     beta=0.70
     Davidson diagonalization with overlap
     ethr =  1.00E-02,  avg # of iterations =  2.0

     negative rho (up, down):  1.005E-06 0.000E+00

     total cpu time spent up to now is        7.7 secs

     total energy              =     -31.92529951 Ry
     Harris-Foulkes estimate   =     -43.59756850 Ry
     estimated scf accuracy    <      17.70699198 Ry

     iteration # 11     ecut=    30.00 Ry     beta=0.70
     Davidson diagonalization with overlap
     ethr =  1.00E-02,  avg # of iterations =  2.0

     negative rho (up, down):  5.101E-02 0.000E+00

[...]
     Harris-Foulkes estimate   =   -1417.66057501 Ry
     estimated scf accuracy    <      45.25770278 Ry

     iteration # 59     ecut=    30.00 Ry     beta=0.70
     Davidson diagonalization with overlap
     ethr =  1.00E-02,  avg # of iterations =  7.0

     negative rho (up, down):  1.227E+00 0.000E+00

     total cpu time spent up to now is       10.3 secs

     total energy              =    -113.83091454 Ry
     Harris-Foulkes estimate   =   -1584.71361962 Ry
     estimated scf accuracy    <      49.54183559 Ry

     iteration # 60     ecut=    30.00 Ry     beta=0.70
     Davidson diagonalization with overlap
     ethr =  1.00E-02,  avg # of iterations =  6.0

     negative rho (up, down):  1.201E+00 0.000E+00

     total cpu time spent up to now is       10.4 secs

     total energy              =      89.90816441 Ry
     Harris-Foulkes estimate   =   -1529.15201962 Ry
     estimated scf accuracy    <      46.17732527 Ry

     iteration # 61     ecut=    30.00 Ry     beta=0.70
     Davidson diagonalization with overlap
     ethr =  1.00E-02,  avg # of iterations =  5.0

     negative rho (up, down):  2.587E+00 0.000E+00

     total cpu time spent up to now is       10.5 secs

     total energy              =     110.19674760 Ry
     Harris-Foulkes estimate   =   -2264.21208480 Ry
     estimated scf accuracy    <      57.46248840 Ry

     iteration # 62     ecut=    30.00 Ry     beta=0.70
     Davidson diagonalization with overlap
     ethr =  1.00E-02,  avg # of iterations = 10.0

     negative rho (up, down):  2.920E+00 0.000E+00

     total cpu time spent up to now is       10.6 secs

     total energy              =     -18.50786751 Ry
     Harris-Foulkes estimate   =    -680.61817977 Ry
     estimated scf accuracy    <      42.95475935 Ry

     iteration # 63     ecut=    30.00 Ry     beta=0.70
     Davidson diagonalization with overlap
     ethr =  1.00E-02,  avg # of iterations =  8.0

     negative rho (up, down):  2.115E+00 0.000E+00

     total cpu time spent up to now is       10.6 secs

     total energy              =    -502.41062776 Ry
     Harris-Foulkes estimate   =   -1573.37850546 Ry
     estimated scf accuracy    <      31.82120859 Ry

     iteration # 64     ecut=    30.00 Ry     beta=0.70
     Davidson diagonalization with overlap
     ethr =  1.00E-02,  avg # of iterations =  9.0

     negative rho (up, down):  7.584E-01 0.000E+00

     total cpu time spent up to now is       10.7 secs

     total energy              =    -178.08985517 Ry
     Harris-Foulkes estimate   =   -6288.45931101 Ry
     estimated scf accuracy    <      31.87388004 Ry

     iteration # 65     ecut=    30.00 Ry     beta=0.70
     Davidson diagonalization with overlap
     ethr =  1.00E-02,  avg # of iterations = 13.0

     negative rho (up, down):  9.942E-01 0.000E+00

     total cpu time spent up to now is       10.7 secs

     total energy              =      92.06604733 Ry
     Harris-Foulkes estimate   =   -8537.79899869 Ry
     estimated scf accuracy    <      24.69956205 Ry

     iteration # 66     ecut=    30.00 Ry     beta=0.70
     Davidson diagonalization with overlap
     ethr =  1.00E-02,  avg # of iterations =  8.0

     negative rho (up, down):  4.833E-01 0.000E+00

     total cpu time spent up to now is       10.8 secs

     total energy              =     285.56695964 Ry
     Harris-Foulkes estimate   =   -2789.53024791 Ry
     estimated scf accuracy    <      22.93443231 Ry

     iteration # 67     ecut=    30.00 Ry     beta=0.70
     Davidson diagonalization with overlap
     ethr =  1.00E-02,  avg # of iterations = 13.0

     negative rho (up, down):  3.263E-01 0.000E+00

     total cpu time spent up to now is       10.9 secs

     total energy              =     145.15796281 Ry
     Harris-Foulkes estimate   =   -1674.96447672 Ry
     estimated scf accuracy    <      32.30352040 Ry

     iteration # 68     ecut=    30.00 Ry     beta=0.70
     Davidson diagonalization with overlap
     ethr =  1.00E-02,  avg # of iterations =  8.0

     negative rho (up, down):  2.952E-01 0.000E+00

     total cpu time spent up to now is       10.9 secs

     total energy              =    -488.56249423 Ry
     Harris-Foulkes estimate   =   -1262.58242696 Ry
     estimated scf accuracy    <      22.34768099 Ry

     iteration # 69     ecut=    30.00 Ry     beta=0.70
     Davidson diagonalization with overlap
     ethr =  1.00E-02,  avg # of iterations =  8.0

     negative rho (up, down):  2.973E-01 0.000E+00

     total cpu time spent up to now is       11.0 secs

     total energy              =     140.46765676 Ry
     Harris-Foulkes estimate   =   -4445.75355763 Ry
     estimated scf accuracy    <      26.57553123 Ry

     iteration # 70     ecut=    30.00 Ry     beta=0.70
     Davidson diagonalization with overlap
     ethr =  1.00E-02,  avg # of iterations =  9.0

     negative rho (up, down):  5.326E-04 0.000E+00

     total cpu time spent up to now is       11.0 secs

     total energy              =     154.73591861 Ry
     Harris-Foulkes estimate   =   -1089.39021974 Ry
     estimated scf accuracy    <      18.01921870 Ry

     iteration # 71     ecut=    30.00 Ry     beta=0.70
     Davidson diagonalization with overlap
     ethr =  1.00E-02,  avg # of iterations = 10.0

     negative rho (up, down):  1.380E-04 0.000E+00

     total cpu time spent up to now is       11.1 secs

     total energy              =     -78.53683936 Ry
     Harris-Foulkes estimate   =     -90.19050991 Ry
     estimated scf accuracy    <      78.87558361 Ry

     iteration # 72     ecut=    30.00 Ry     beta=0.70
     Davidson diagonalization with overlap
     ethr =  1.00E-02,  avg # of iterations =  1.0

     negative rho (up, down):  7.278E-04 0.000E+00

     total cpu time spent up to now is       11.1 secs

     total energy              =     -78.99044446 Ry
     Harris-Foulkes estimate   =     -78.56439304 Ry
     estimated scf accuracy    <      62.87713988 Ry

     iteration # 73     ecut=    30.00 Ry     beta=0.70
     Davidson diagonalization with overlap
     ethr =  1.00E-02,  avg # of iterations =  1.0

     negative rho (up, down):  1.590E-02 0.000E+00

     total cpu time spent up to now is       11.2 secs

     total energy              =     -90.71572151 Ry
     Harris-Foulkes estimate   =     -78.99092830 Ry
     estimated scf accuracy    <      63.35476338 Ry

     iteration # 74     ecut=    30.00 Ry     beta=0.70
     Davidson diagonalization with overlap
     ethr =  1.00E-02,  avg # of iterations =  1.0

     negative rho (up, down):  1.276E+00 0.000E+00

     total cpu time spent up to now is       11.2 secs

     total energy              =    -123.03064452 Ry
     Harris-Foulkes estimate   =     -90.74360349 Ry
     estimated scf accuracy    <      78.69915507 Ry

     iteration # 75     ecut=    30.00 Ry     beta=0.70
     Davidson diagonalization with overlap
     ethr =  1.00E-02,  avg # of iterations =  5.0

     negative rho (up, down):  1.288E-02 0.000E+00

     total cpu time spent up to now is       11.2 secs

     total energy              =     -83.68990988 Ry
     Harris-Foulkes estimate   =    -123.22204462 Ry
     estimated scf accuracy    <     113.47751004 Ry

     iteration # 76     ecut=    30.00 Ry     beta=0.70
     Davidson diagonalization with overlap
     ethr =  1.00E-02,  avg # of iterations =  2.0

     negative rho (up, down):  2.331E-01 0.000E+00

     total cpu time spent up to now is       11.3 secs

     total energy              =     -46.85894836 Ry
     Harris-Foulkes estimate   =     -83.95625142 Ry
     estimated scf accuracy    <      69.75092210 Ry

     iteration # 77     ecut=    30.00 Ry     beta=0.70
     Davidson diagonalization with overlap
     ethr =  1.00E-02,  avg # of iterations =  7.0

     negative rho (up, down):  1.831E-01 0.000E+00

     total cpu time spent up to now is       11.3 secs

     total energy              =      18.07919021 Ry
     Harris-Foulkes estimate   =    -173.16216415 Ry
     estimated scf accuracy    <      10.02388930 Ry

     iteration # 78     ecut=    30.00 Ry     beta=0.70
     Davidson diagonalization with overlap
     ethr =  1.00E-02,  avg # of iterations = 14.0

     negative rho (up, down):  1.429E-01 0.000E+00

     total cpu time spent up to now is       11.4 secs

     total energy              =      49.83226093 Ry
     Harris-Foulkes estimate   =    -355.20549458 Ry
     estimated scf accuracy    <      17.76030992 Ry

     iteration # 79     ecut=    30.00 Ry     beta=0.70
     Davidson diagonalization with overlap
     ethr =  1.00E-02,  avg # of iterations =  7.0

     negative rho (up, down):  2.339E-01 0.000E+00

     total cpu time spent up to now is       11.5 secs

     total energy              =      44.79597591 Ry
     Harris-Foulkes estimate   =    -212.39867077 Ry
     estimated scf accuracy    <      61.23529368 Ry

     iteration # 80     ecut=    30.00 Ry     beta=0.70
     Davidson diagonalization with overlap
     ethr =  1.00E-02,  avg # of iterations = 10.0

     negative rho (up, down):  1.765E-02 0.000E+00

     total cpu time spent up to now is       11.6 secs

     total energy              =      97.23177727 Ry
     Harris-Foulkes estimate   =    -275.62481587 Ry
     estimated scf accuracy    <      57.02501096 Ry

     iteration # 81     ecut=    30.00 Ry     beta=0.70
     Davidson diagonalization with overlap
     ethr =  1.00E-02,  avg # of iterations = 12.0

     negative rho (up, down):  6.097E-04 0.000E+00

     total cpu time spent up to now is       11.6 secs

     total energy              =      65.45099756 Ry
     Harris-Foulkes estimate   =    -141.42680232 Ry
     estimated scf accuracy    <      20.71173792 Ry

     iteration # 82     ecut=    30.00 Ry     beta=0.70
     Davidson diagonalization with overlap
     ethr =  1.00E-02,  avg # of iterations =  3.0

     negative rho (up, down):  2.001E-02 0.000E+00

     total cpu time spent up to now is       11.7 secs

     total energy              =     -40.53960131 Ry
     Harris-Foulkes estimate   =     -44.67894145 Ry
     estimated scf accuracy    <      19.93154620 Ry

     iteration # 83     ecut=    30.00 Ry     beta=0.70
     Davidson diagonalization with overlap
     ethr =  1.00E-02,  avg # of iterations =  6.0

     negative rho (up, down):  1.562E-02 0.000E+00

     total cpu time spent up to now is       11.7 secs

     total energy              =      -7.41922262 Ry
     Harris-Foulkes estimate   =     -70.58923766 Ry
     estimated scf accuracy    <       8.36002385 Ry

     iteration # 84     ecut=    30.00 Ry     beta=0.70
     Davidson diagonalization with overlap
     ethr =  1.00E-02,  avg # of iterations =  5.0

     negative rho (up, down):  7.374E-02 0.000E+00

     total cpu time spent up to now is       11.8 secs

     total energy              =     -34.44423569 Ry
     Harris-Foulkes estimate   =     -40.69492422 Ry
     estimated scf accuracy    <      14.99964101 Ry

     iteration # 85     ecut=    30.00 Ry     beta=0.70
     Davidson diagonalization with overlap
     ethr =  1.00E-02,  avg # of iterations =  2.0

     negative rho (up, down):  7.811E-02 0.000E+00

     total cpu time spent up to now is       11.8 secs

     total energy              =     -33.73187189 Ry
     Harris-Foulkes estimate   =     -34.64199107 Ry
     estimated scf accuracy    <       6.48291354 Ry

     iteration # 86     ecut=    30.00 Ry     beta=0.70
     Davidson diagonalization with overlap
     ethr =  1.00E-02,  avg # of iterations =  5.0

     negative rho (up, down):  2.650E-02 0.000E+00

     total cpu time spent up to now is       11.9 secs

     total energy              =      41.34803899 Ry
     Harris-Foulkes estimate   =    -807.87056273 Ry
     estimated scf accuracy    <      11.46317524 Ry

     iteration # 87     ecut=    30.00 Ry     beta=0.70
     Davidson diagonalization with overlap
     ethr =  1.00E-02,  avg # of iterations =  5.0

     negative rho (up, down):  6.234E-03 0.000E+00

     total cpu time spent up to now is       11.9 secs

     total energy              =     -33.82872819 Ry
     Harris-Foulkes estimate   =     -33.26151468 Ry
     estimated scf accuracy    <       3.81919895 Ry

     iteration # 88     ecut=    30.00 Ry     beta=0.70
     Davidson diagonalization with overlap
     ethr =  1.00E-02,  avg # of iterations =  1.0

     negative rho (up, down):  1.674E-01 0.000E+00

     total cpu time spent up to now is       11.9 secs

     total energy              =     -34.12366803 Ry
     Harris-Foulkes estimate   =     -33.85094029 Ry
     estimated scf accuracy    <       4.77390704 Ry

     iteration # 89     ecut=    30.00 Ry     beta=0.70
     Davidson diagonalization with overlap
     ethr =  1.00E-02,  avg # of iterations =  2.0

     negative rho (up, down):  4.133E-01 0.000E+00

     total cpu time spent up to now is       12.0 secs

     total energy              =     -36.08938672 Ry
     Harris-Foulkes estimate   =     -34.39088764 Ry
     estimated scf accuracy    <       8.45083050 Ry

     iteration # 90     ecut=    30.00 Ry     beta=0.70
     Davidson diagonalization with overlap
     ethr =  1.00E-02,  avg # of iterations = 10.0

     negative rho (up, down):  5.004E-01 0.000E+00

     total cpu time spent up to now is       12.0 secs

     total energy              =     -22.52021167 Ry
     Harris-Foulkes estimate   =     -46.28304907 Ry
     estimated scf accuracy    <      37.43405918 Ry

     iteration # 91     ecut=    30.00 Ry     beta=0.70
     Davidson diagonalization with overlap
     ethr =  1.00E-02,  avg # of iterations =  7.0

     negative rho (up, down):  5.542E-01 0.000E+00

     total cpu time spent up to now is       12.1 secs

     total energy              =      17.95449551 Ry
     Harris-Foulkes estimate   =    -268.41653183 Ry
     estimated scf accuracy    <      49.36085707 Ry

     iteration # 92     ecut=    30.00 Ry     beta=0.70
     Davidson diagonalization with overlap
     ethr =  1.00E-02,  avg # of iterations =  7.0

     negative rho (up, down):  3.890E-01 0.000E+00

     total cpu time spent up to now is       12.1 secs

     total energy              =      19.81367185 Ry
     Harris-Foulkes estimate   =     -78.37884807 Ry
     estimated scf accuracy    <      57.69398908 Ry

     iteration # 93     ecut=    30.00 Ry     beta=0.70
     Davidson diagonalization with overlap
     ethr =  1.00E-02,  avg # of iterations =  6.0

     negative rho (up, down):  3.567E-01 0.000E+00

     total cpu time spent up to now is       12.2 secs

     total energy              =     -23.08727902 Ry
     Harris-Foulkes estimate   =     -47.55273788 Ry
     estimated scf accuracy    <      23.90610672 Ry

     iteration # 94     ecut=    30.00 Ry     beta=0.70
     Davidson diagonalization with overlap
     ethr =  1.00E-02,  avg # of iterations =  5.0

     negative rho (up, down):  4.955E-01 0.000E+00

     total cpu time spent up to now is       12.2 secs

     total energy              =     -13.94807759 Ry
     Harris-Foulkes estimate   =    -180.78004386 Ry
     estimated scf accuracy    <      32.24921222 Ry

     iteration # 95     ecut=    30.00 Ry     beta=0.70
     Davidson diagonalization with overlap
     ethr =  1.00E-02,  avg # of iterations =  6.0

     negative rho (up, down):  5.513E-01 0.000E+00

     total cpu time spent up to now is       12.3 secs

     total energy              =      -9.05750032 Ry
     Harris-Foulkes estimate   =    -274.88143044 Ry
     estimated scf accuracy    <      22.73847427 Ry

     iteration # 96     ecut=    30.00 Ry     beta=0.70
     Davidson diagonalization with overlap
     ethr =  1.00E-02,  avg # of iterations =  5.0

     negative rho (up, down):  5.512E-01 0.000E+00

     total cpu time spent up to now is       12.3 secs

     total energy              =    5090.20942765 Ry
     Harris-Foulkes estimate   =    -165.23326280 Ry
     estimated scf accuracy    <      23.99144099 Ry

     iteration # 97     ecut=    30.00 Ry     beta=0.70
     Davidson diagonalization with overlap
     ethr =  1.00E-02,  avg # of iterations =  9.0

     negative rho (up, down):  6.288E-01 0.000E+00

     total cpu time spent up to now is       12.4 secs

     total energy              =    -153.06169638 Ry
     Harris-Foulkes estimate   =     -45.00752464 Ry
     estimated scf accuracy    <      10.29111428 Ry

     iteration # 98     ecut=    30.00 Ry     beta=0.70
     Davidson diagonalization with overlap
     ethr =  1.00E-02,  avg # of iterations =  9.0

     negative rho (up, down):  6.292E-01 0.000E+00

     total cpu time spent up to now is       12.4 secs

     total energy              =     -44.64864477 Ry
     Harris-Foulkes estimate   =   -3396.35957573 Ry
     estimated scf accuracy    <      55.40935531 Ry

     iteration # 99     ecut=    30.00 Ry     beta=0.70
     Davidson diagonalization with overlap
     ethr =  1.00E-02,  avg # of iterations =  7.0

     negative rho (up, down):  1.158E+00 0.000E+00

     total cpu time spent up to now is       12.5 secs

     total energy              =    1866.41138871 Ry
     Harris-Foulkes estimate   =    -865.30026972 Ry
     estimated scf accuracy    <      54.33851167 Ry

     iteration #100     ecut=    30.00 Ry     beta=0.70
     Davidson diagonalization with overlap
     ethr =  1.00E-02,  avg # of iterations =  8.0

     negative rho (up, down):  1.163E+00 0.000E+00

     total cpu time spent up to now is       12.5 secs

     total energy              =     111.61957317 Ry
     Harris-Foulkes estimate   =   -1746.16427017 Ry
     estimated scf accuracy    <      51.11842441 Ry

     End of self-consistent calculation

     convergence NOT achieved after 100 iterations: stopping

     Writing output data file pwscf.save
 
     init_run     :      0.09s CPU      0.11s WALL (       1 calls)
     electrons    :      9.39s CPU     11.61s WALL (       4 calls)
     update_pot   :      0.33s CPU      0.48s WALL (       3 calls)
     forces       :      0.08s CPU      0.08s WALL (       3 calls)

     Called by init_run:
     wfcinit      :      0.01s CPU      0.02s WALL (       1 calls)
     potinit      :      0.02s CPU      0.03s WALL (       1 calls)

     Called by electrons:
     c_bands      :      4.38s CPU      4.62s WALL (     264 calls)
     sum_band     :      0.76s CPU      0.84s WALL (     264 calls)
     v_of_rho     :      1.90s CPU      2.08s WALL (     268 calls)
     mix_rho      :      2.00s CPU      3.40s WALL (     264 calls)

     Called by c_bands:
     init_us_2    :      0.02s CPU      0.03s WALL (     529 calls)
     cegterg      :      4.33s CPU      4.50s WALL (     264 calls)

     Called by sum_band:

     Called by *egterg:
     h_psi        :      3.64s CPU      3.78s WALL (    1236 calls)
     g_psi        :      0.04s CPU      0.04s WALL (     971 calls)
     cdiaghg      :      0.24s CPU      0.25s WALL (    1232 calls)

     Called by h_psi:
     h_psi:pot    :      3.62s CPU      3.76s WALL (    1236 calls)
     h_psi:calbec :      0.06s CPU      0.07s WALL (    1236 calls)
     vloc_psi     :      3.54s CPU      3.68s WALL (    1236 calls)
     add_vuspsi   :      0.01s CPU      0.01s WALL (    1236 calls)

     General routines
     calbec       :      0.08s CPU      0.08s WALL (    1250 calls)
     fft          :      1.26s CPU      1.39s WALL (    2954 calls)
     fftw         :      3.67s CPU      3.86s WALL (   16544 calls)
     davcio       :      0.30s CPU      1.15s WALL (    4937 calls)
 
     Parallel routines
     fft_scatter  :      1.96s CPU      2.19s WALL (   19498 calls)
 
     PWSCF        :    10.06s CPU        12.65s WALL

 
   This run was terminated on:   8: 2:37  14Feb2018            

=------------------------------------------------------------------------------=
   JOB DONE.
=------------------------------------------------------------------------------=
