
     Program PWSCF v.6.0 (svn rev. 13079) starts on 14Feb2018 at  8: 3:41 

     This program is part of the open-source Quantum ESPRESSO suite
     for quantum simulation of materials; please cite
         "P. Giannozzi et al., J. Phys.:Condens. Matter 21 395502 (2009);
          URL http://www.quantum-espresso.org", 
     in publications or presentations arising from this work. More details at
     http://www.quantum-espresso.org/quote

     Parallel version (MPI), running on    28 processors
     R & G space division:  proc/nbgrp/npool/nimage =      28
     Reading input from inputs/MD-H2O-2/267.in

     Current dimensions of program PWSCF are:
     Max number of different atomic species (ntypx) = 10
     Max number of k-points (npk) =  40000
     Max angular momentum in pseudopotentials (lmaxx) =  3

     Subspace diagonalization in iterative solution of the eigenvalue problem:
     a serial algorithm will be used

 
     Parallelization info
     --------------------
     sticks:   dense  smooth     PW     G-vecs:    dense   smooth      PW
     Min         136     136     33                 6338     6338     787
     Max         137     137     34                 6341     6341     792
     Sum        3809    3809    949               177509   177509   22119
 


     bravais-lattice index     =            1
     lattice parameter (alat)  =      20.0000  a.u.
     unit-cell volume          =    8000.0000 (a.u.)^3
     number of atoms/cell      =            3
     number of atomic types    =            2
     number of electrons       =         8.00
     number of Kohn-Sham states=            8
     kinetic-energy cutoff     =      30.0000  Ry
     charge density cutoff     =     120.0000  Ry
     convergence threshold     =      1.0E-08
     mixing beta               =       0.7000
     number of iterations used =            8  plain     mixing
     Exchange-correlation      = BLYP ( 1  3  1  3 0 0)
     nstep                     =         5000


     celldm(1)=  20.000000  celldm(2)=   0.000000  celldm(3)=   0.000000
     celldm(4)=   0.000000  celldm(5)=   0.000000  celldm(6)=   0.000000

     crystal axes: (cart. coord. in units of alat)
               a(1) = (   1.000000   0.000000   0.000000 )  
               a(2) = (   0.000000   1.000000   0.000000 )  
               a(3) = (   0.000000   0.000000   1.000000 )  

     reciprocal axes: (cart. coord. in units 2 pi/alat)
               b(1) = (  1.000000  0.000000  0.000000 )  
               b(2) = (  0.000000  1.000000  0.000000 )  
               b(3) = (  0.000000  0.000000  1.000000 )  


     PseudoPot. # 1 for  H read from file:
     ./H.blyp-hgh.UPF
     MD5 check sum: c576e69559cde411e611be972c763230
     Pseudo is Norm-conserving, Zval =  1.0
     Generated in analytical, separable form
     Using radial grid of  929 points,  0 beta functions with: 

     PseudoPot. # 2 for  O read from file:
     ./O.blyp-hgh.UPF
     MD5 check sum: d0b7156309aa9befef28faac7bc56342
     Pseudo is Norm-conserving, Zval =  6.0
     Generated in analytical, separable form
     Using radial grid of 1095 points,  1 beta functions with: 
                l(1) =   0

     atomic species   valence    mass     pseudopotential
        H              1.00     1.01000      H( 1.00)
        O              6.00    16.00000      O( 1.00)

     No symmetry found



   Cartesian axes

     site n.     atom                  positions (alat units)
         1           H   tau(   1) = (   0.3515911   0.1540072   0.4603018  )
         2           H   tau(   2) = (   0.7722115   0.2100617   0.8949704  )
         3           O   tau(   3) = (   0.3242445   0.1425840   0.3654561  )

     number of k points=     1  Marzari-Vanderbilt smearing, width (Ry)=  0.0250
                       cart. coord. in units 2pi/alat
        k(    1) = (   0.0000000   0.0000000   0.0000000), wk =   2.0000000

     Dense  grid:   177509 G-vectors     FFT dimensions: (  72,  72,  72)

     Estimated max dynamical RAM per process >       6.09Mb

     Estimated total allocated dynamical RAM >     170.64Mb

     Initial potential from superposition of free atoms
     Check: negative starting charge=   -0.351001

     starting charge    7.99998, renormalised to    8.00000

     negative rho (up, down):  3.510E-01 0.000E+00
     Starting wfc are    6 randomized atomic wfcs +    2 random wfc

     total cpu time spent up to now is        0.2 secs

     per-process dynamical memory:    18.8 Mb

     Self-consistent Calculation

     iteration #  1     ecut=    30.00 Ry     beta=0.70
     Davidson diagonalization with overlap
     ethr =  1.00E-02,  avg # of iterations =  6.0

     negative rho (up, down):  9.159E-02 0.000E+00

     total cpu time spent up to now is        0.3 secs

     total energy              =     -30.34299039 Ry
     Harris-Foulkes estimate   =     -32.23773728 Ry
     estimated scf accuracy    <       2.17712495 Ry

     iteration #  2     ecut=    30.00 Ry     beta=0.70
     Davidson diagonalization with overlap
     ethr =  1.00E-02,  avg # of iterations =  3.0

     negative rho (up, down):  6.663E-02 0.000E+00

     total cpu time spent up to now is        0.3 secs

     total energy              =     -32.29981491 Ry
     Harris-Foulkes estimate   =     -34.59850491 Ry
     estimated scf accuracy    <       5.59129378 Ry

     iteration #  3     ecut=    30.00 Ry     beta=0.70
     Davidson diagonalization with overlap
     ethr =  1.00E-02,  avg # of iterations =  2.0

     negative rho (up, down):  6.410E-02 0.000E+00

     total cpu time spent up to now is        0.4 secs

     total energy              =     -32.44671060 Ry
     Harris-Foulkes estimate   =     -32.53342852 Ry
     estimated scf accuracy    <       1.82613926 Ry

     iteration #  4     ecut=    30.00 Ry     beta=0.70
     Davidson diagonalization with overlap
     ethr =  1.00E-02,  avg # of iterations =  1.0

     negative rho (up, down):  1.170E-02 0.000E+00

     total cpu time spent up to now is        0.4 secs

     total energy              =     -31.28708695 Ry
     Harris-Foulkes estimate   =     -32.44703588 Ry
     estimated scf accuracy    <       1.70695201 Ry

     iteration #  5     ecut=    30.00 Ry     beta=0.70
     Davidson diagonalization with overlap
     ethr =  1.00E-02,  avg # of iterations =  4.0

     negative rho (up, down):  2.392E-02 0.000E+00

     total cpu time spent up to now is        0.4 secs

     total energy              =     -33.43765033 Ry
     Harris-Foulkes estimate   =     -33.26893689 Ry
     estimated scf accuracy    <       8.84058896 Ry

     iteration #  6     ecut=    30.00 Ry     beta=0.70
     Davidson diagonalization with overlap
     ethr =  1.00E-02,  avg # of iterations =  1.0

     negative rho (up, down):  1.950E-02 0.000E+00

     total cpu time spent up to now is        0.5 secs

     total energy              =     -33.34583149 Ry
     Harris-Foulkes estimate   =     -33.44203249 Ry
     estimated scf accuracy    <       9.51273307 Ry

     iteration #  7     ecut=    30.00 Ry     beta=0.70
     Davidson diagonalization with overlap
     ethr =  1.00E-02,  avg # of iterations =  1.0

     negative rho (up, down):  2.465E-02 0.000E+00

     total cpu time spent up to now is        0.5 secs

     total energy              =     -33.21233365 Ry
     Harris-Foulkes estimate   =     -33.34650108 Ry
     estimated scf accuracy    <       9.31045207 Ry

     iteration #  8     ecut=    30.00 Ry     beta=0.70
     Davidson diagonalization with overlap
     ethr =  1.00E-02,  avg # of iterations =  1.0

     negative rho (up, down):  2.119E-02 0.000E+00

     total cpu time spent up to now is        0.5 secs

     total energy              =     -32.70421872 Ry
     Harris-Foulkes estimate   =     -33.21780222 Ry
     estimated scf accuracy    <       7.66274335 Ry

     iteration #  9     ecut=    30.00 Ry     beta=0.70
     Davidson diagonalization with overlap
     ethr =  1.00E-02,  avg # of iterations =  1.0

     negative rho (up, down):  1.671E-02 0.000E+00

     total cpu time spent up to now is        0.6 secs

     total energy              =     -32.69796192 Ry
     Harris-Foulkes estimate   =     -32.85573472 Ry
     estimated scf accuracy    <       2.84636879 Ry

     iteration # 10     ecut=    30.00 Ry     beta=0.70
     Davidson diagonalization with overlap
     ethr =  1.00E-02,  avg # of iterations =  1.0

     negative rho (up, down):  5.062E-02 0.000E+00

     total cpu time spent up to now is        0.6 secs

     total energy              =     -32.49200265 Ry
     Harris-Foulkes estimate   =     -32.69993544 Ry
     estimated scf accuracy    <       2.56088062 Ry

     iteration # 11     ecut=    30.00 Ry     beta=0.70
     Davidson diagonalization with overlap
     ethr =  1.00E-02,  avg # of iterations =  1.0

     negative rho (up, down):  8.460E-02 0.000E+00

     total cpu time spent up to now is        0.6 secs

     total energy              =     -31.99892042 Ry
     Harris-Foulkes estimate   =     -32.49517250 Ry
     estimated scf accuracy    <       2.18395919 Ry

     iteration # 12     ecut=    30.00 Ry     beta=0.70
     Davidson diagonalization with overlap
     ethr =  1.00E-02,  avg # of iterations =  1.0

     negative rho (up, down):  3.571E-01 0.000E+00

     total cpu time spent up to now is        0.7 secs

     total energy              =     -32.12305696 Ry
     Harris-Foulkes estimate   =     -32.01674027 Ry
     estimated scf accuracy    <       1.34321084 Ry

     iteration # 13     ecut=    30.00 Ry     beta=0.70
     Davidson diagonalization with overlap
     ethr =  1.00E-02,  avg # of iterations =  1.0

     negative rho (up, down):  3.473E-01 0.000E+00

     total cpu time spent up to now is        0.7 secs

     total energy              =     -30.80143697 Ry
     Harris-Foulkes estimate   =     -32.12931757 Ry
     estimated scf accuracy    <       1.58081503 Ry

     iteration # 14     ecut=    30.00 Ry     beta=0.70
     Davidson diagonalization with overlap
     ethr =  1.00E-02,  avg # of iterations =  4.0

     negative rho (up, down):  3.505E-02 0.000E+00

     total cpu time spent up to now is        0.8 secs

     total energy              =     -32.48192150 Ry
     Harris-Foulkes estimate   =     -34.63728838 Ry
     estimated scf accuracy    <       5.18701585 Ry

     iteration # 15     ecut=    30.00 Ry     beta=0.70
     Davidson diagonalization with overlap
     ethr =  1.00E-02,  avg # of iterations =  2.0

     negative rho (up, down):  2.443E-02 0.000E+00

     total cpu time spent up to now is        0.8 secs

     total energy              =     -32.27683248 Ry
     Harris-Foulkes estimate   =     -32.62097374 Ry
     estimated scf accuracy    <       1.88400324 Ry

     iteration # 16     ecut=    30.00 Ry     beta=0.70
     Davidson diagonalization with overlap
     ethr =  1.00E-02,  avg # of iterations =  1.0

     negative rho (up, down):  6.148E-03 0.000E+00

     total cpu time spent up to now is        0.8 secs

     total energy              =     -32.20181418 Ry
     Harris-Foulkes estimate   =     -32.28187180 Ry
     estimated scf accuracy    <       1.37601647 Ry

     iteration # 17     ecut=    30.00 Ry     beta=0.70
     Davidson diagonalization with overlap
     ethr =  1.00E-02,  avg # of iterations =  1.0

     negative rho (up, down):  5.801E-03 0.000E+00

     total cpu time spent up to now is        0.9 secs

     total energy              =     -32.17083056 Ry
     Harris-Foulkes estimate   =     -32.20199434 Ry
     estimated scf accuracy    <       1.26714181 Ry

     iteration # 18     ecut=    30.00 Ry     beta=0.70
     Davidson diagonalization with overlap
     ethr =  1.00E-02,  avg # of iterations =  3.0

     negative rho (up, down):  4.711E-03 0.000E+00

     total cpu time spent up to now is        0.9 secs

     total energy              =     -32.16781568 Ry
     Harris-Foulkes estimate   =     -32.16276805 Ry
     estimated scf accuracy    <       1.21637247 Ry

     iteration # 19     ecut=    30.00 Ry     beta=0.70
     Davidson diagonalization with overlap
     ethr =  1.00E-02,  avg # of iterations =  1.0

     negative rho (up, down):  4.009E-03 0.000E+00

     total cpu time spent up to now is        0.9 secs

     total energy              =     -32.13867214 Ry
     Harris-Foulkes estimate   =     -32.16782796 Ry
     estimated scf accuracy    <       1.22597873 Ry

     iteration # 20     ecut=    30.00 Ry     beta=0.70
     Davidson diagonalization with overlap
     ethr =  1.00E-02,  avg # of iterations =  1.0

     negative rho (up, down):  4.707E-03 0.000E+00

     total cpu time spent up to now is        1.0 secs

     total energy              =     -32.09574230 Ry
     Harris-Foulkes estimate   =     -32.13870363 Ry
     estimated scf accuracy    <       1.18510148 Ry

     iteration # 21     ecut=    30.00 Ry     beta=0.70
     Davidson diagonalization with overlap
     ethr =  1.00E-02,  avg # of iterations =  1.0

     negative rho (up, down):  6.215E-03 0.000E+00

     total cpu time spent up to now is        1.0 secs

     total energy              =     -32.09390432 Ry
     Harris-Foulkes estimate   =     -32.09594362 Ry
     estimated scf accuracy    <       1.11413677 Ry

     iteration # 22     ecut=    30.00 Ry     beta=0.70
     Davidson diagonalization with overlap
     ethr =  1.00E-02,  avg # of iterations =  1.0

     negative rho (up, down):  6.334E-02 0.000E+00

     total cpu time spent up to now is        1.0 secs

     total energy              =     -31.29388145 Ry
     Harris-Foulkes estimate   =     -32.09396049 Ry
     estimated scf accuracy    <       1.11618666 Ry

     iteration # 23     ecut=    30.00 Ry     beta=0.70
     Davidson diagonalization with overlap
     ethr =  1.00E-02,  avg # of iterations =  4.0

     negative rho (up, down):  1.903E-02 0.000E+00

     total cpu time spent up to now is        1.1 secs

     total energy              =     -32.49920315 Ry
     Harris-Foulkes estimate   =     -33.70096528 Ry
     estimated scf accuracy    <      10.93280594 Ry

     iteration # 24     ecut=    30.00 Ry     beta=0.70
     Davidson diagonalization with overlap
     ethr =  1.00E-02,  avg # of iterations =  2.0

     negative rho (up, down):  3.399E-06 0.000E+00

     total cpu time spent up to now is        1.1 secs

     total energy              =     -32.25601380 Ry
     Harris-Foulkes estimate   =     -32.85591131 Ry
     estimated scf accuracy    <       2.83376689 Ry

     iteration # 25     ecut=    30.00 Ry     beta=0.70
     Davidson diagonalization with overlap
     ethr =  1.00E-02,  avg # of iterations =  1.0

     negative rho (up, down):  1.519E-05 0.000E+00

     total cpu time spent up to now is        1.1 secs

     total energy              =     -32.08094553 Ry
     Harris-Foulkes estimate   =     -32.27399937 Ry
     estimated scf accuracy    <       1.74791525 Ry

     iteration # 26     ecut=    30.00 Ry     beta=0.70
     Davidson diagonalization with overlap
     ethr =  1.00E-02,  avg # of iterations =  1.0

     negative rho (up, down):  7.722E-05 0.000E+00

     total cpu time spent up to now is        1.2 secs

     total energy              =     -31.90533563 Ry
     Harris-Foulkes estimate   =     -32.08479742 Ry
     estimated scf accuracy    <       1.41778007 Ry

     iteration # 27     ecut=    30.00 Ry     beta=0.70
     Davidson diagonalization with overlap
     ethr =  1.00E-02,  avg # of iterations =  1.0

     negative rho (up, down):  1.493E-06 0.000E+00

     total cpu time spent up to now is        1.2 secs

     total energy              =     -31.94530191 Ry
     Harris-Foulkes estimate   =     -31.95607483 Ry
     estimated scf accuracy    <       0.53516159 Ry

     iteration # 28     ecut=    30.00 Ry     beta=0.70
     Davidson diagonalization with overlap
     ethr =  6.69E-03,  avg # of iterations =  1.0

     negative rho (up, down):  6.582E-07 0.000E+00

     total cpu time spent up to now is        1.2 secs

     total energy              =     -31.92571971 Ry
     Harris-Foulkes estimate   =     -31.94800417 Ry
     estimated scf accuracy    <       0.12937801 Ry

     iteration # 29     ecut=    30.00 Ry     beta=0.70
     Davidson diagonalization with overlap
     ethr =  1.62E-03,  avg # of iterations =  1.0

     negative rho (up, down):  1.110E-06 0.000E+00

     total cpu time spent up to now is        1.3 secs

     total energy              =     -32.01002568 Ry
     Harris-Foulkes estimate   =     -31.99547145 Ry
     estimated scf accuracy    <       1.46820797 Ry

     iteration # 30     ecut=    30.00 Ry     beta=0.70
     Davidson diagonalization with overlap
     ethr =  1.62E-03,  avg # of iterations =  1.0

     negative rho (up, down):  1.207E-07 0.000E+00

     total cpu time spent up to now is        1.3 secs

     total energy              =     -32.04375695 Ry
     Harris-Foulkes estimate   =     -32.00958598 Ry
     estimated scf accuracy    <       1.32800314 Ry

     iteration # 31     ecut=    30.00 Ry     beta=0.70
     Davidson diagonalization with overlap
     ethr =  1.62E-03,  avg # of iterations =  1.0

     total cpu time spent up to now is        1.3 secs

     total energy              =     -32.06226777 Ry
     Harris-Foulkes estimate   =     -32.04327754 Ry
     estimated scf accuracy    <       1.32603903 Ry

     iteration # 32     ecut=    30.00 Ry     beta=0.70
     Davidson diagonalization with overlap
     ethr =  1.62E-03,  avg # of iterations =  1.0

     negative rho (up, down):  7.461E-06 0.000E+00

     total cpu time spent up to now is        1.4 secs

     total energy              =     -31.92197989 Ry
     Harris-Foulkes estimate   =     -32.06230636 Ry
     estimated scf accuracy    <       1.35832129 Ry

     iteration # 33     ecut=    30.00 Ry     beta=0.70
     Davidson diagonalization with overlap
     ethr =  1.62E-03,  avg # of iterations =  1.0

     negative rho (up, down):  5.015E-05 0.000E+00

     total cpu time spent up to now is        1.4 secs

     total energy              =     -31.95064217 Ry
     Harris-Foulkes estimate   =     -31.94837696 Ry
     estimated scf accuracy    <       0.15354326 Ry

     iteration # 34     ecut=    30.00 Ry     beta=0.70
     Davidson diagonalization with overlap
     ethr =  1.62E-03,  avg # of iterations =  1.0

     negative rho (up, down):  3.897E-05 0.000E+00

     total cpu time spent up to now is        1.4 secs

     total energy              =     -31.95071087 Ry
     Harris-Foulkes estimate   =     -31.95115693 Ry
     estimated scf accuracy    <       0.31195820 Ry

     iteration # 35     ecut=    30.00 Ry     beta=0.70
     Davidson diagonalization with overlap
     ethr =  1.62E-03,  avg # of iterations =  1.0

     negative rho (up, down):  2.976E-05 0.000E+00

     total cpu time spent up to now is        1.5 secs

     total energy              =     -31.95024654 Ry
     Harris-Foulkes estimate   =     -31.95072127 Ry
     estimated scf accuracy    <       0.28907170 Ry

     iteration # 36     ecut=    30.00 Ry     beta=0.70
     Davidson diagonalization with overlap
     ethr =  1.62E-03,  avg # of iterations =  1.0

     negative rho (up, down):  8.055E-06 0.000E+00

     total cpu time spent up to now is        1.5 secs

     total energy              =     -31.95318339 Ry
     Harris-Foulkes estimate   =     -31.95025787 Ry
     estimated scf accuracy    <       0.26322945 Ry

     iteration # 37     ecut=    30.00 Ry     beta=0.70
     Davidson diagonalization with overlap
     ethr =  1.62E-03,  avg # of iterations =  1.0

     negative rho (up, down):  7.337E-07 0.000E+00

     total cpu time spent up to now is        1.5 secs

     total energy              =     -31.95415716 Ry
     Harris-Foulkes estimate   =     -31.95359542 Ry
     estimated scf accuracy    <       0.43079609 Ry

     iteration # 38     ecut=    30.00 Ry     beta=0.70
     Davidson diagonalization with overlap
     ethr =  1.62E-03,  avg # of iterations =  1.0

     negative rho (up, down):  2.742E-05 0.000E+00

     total cpu time spent up to now is        1.6 secs

     total energy              =     -31.94815073 Ry
     Harris-Foulkes estimate   =     -31.95416522 Ry
     estimated scf accuracy    <       0.45605539 Ry

     iteration # 39     ecut=    30.00 Ry     beta=0.70
     Davidson diagonalization with overlap
     ethr =  1.62E-03,  avg # of iterations =  1.0

     negative rho (up, down):  3.840E-05 0.000E+00

     total cpu time spent up to now is        1.6 secs

     total energy              =     -31.94676318 Ry
     Harris-Foulkes estimate   =     -31.94910778 Ry
     estimated scf accuracy    <       0.19601420 Ry

     iteration # 40     ecut=    30.00 Ry     beta=0.70
     Davidson diagonalization with overlap
     ethr =  1.62E-03,  avg # of iterations =  1.0

     negative rho (up, down):  7.081E-06 0.000E+00

     total cpu time spent up to now is        1.6 secs

     total energy              =     -31.94779238 Ry
     Harris-Foulkes estimate   =     -31.94720134 Ry
     estimated scf accuracy    <       0.07323911 Ry

     iteration # 41     ecut=    30.00 Ry     beta=0.70
     Davidson diagonalization with overlap
     ethr =  9.15E-04,  avg # of iterations =  1.0

     negative rho (up, down):  7.222E-06 0.000E+00

     total cpu time spent up to now is        1.7 secs

     total energy              =     -31.94352231 Ry
     Harris-Foulkes estimate   =     -31.94787945 Ry
     estimated scf accuracy    <       0.11912815 Ry

     iteration # 42     ecut=    30.00 Ry     beta=0.70
     Davidson diagonalization with overlap
     ethr =  9.15E-04,  avg # of iterations =  1.0

     negative rho (up, down):  1.060E-06 0.000E+00

     total cpu time spent up to now is        1.7 secs

     total energy              =     -31.94593049 Ry
     Harris-Foulkes estimate   =     -31.94639886 Ry
     estimated scf accuracy    <       0.01660327 Ry

     iteration # 43     ecut=    30.00 Ry     beta=0.70
     Davidson diagonalization with overlap
     ethr =  2.08E-04,  avg # of iterations =  1.0

     total cpu time spent up to now is        1.7 secs

     total energy              =     -31.94617797 Ry
     Harris-Foulkes estimate   =     -31.94618553 Ry
     estimated scf accuracy    <       0.00016471 Ry

     iteration # 44     ecut=    30.00 Ry     beta=0.70
     Davidson diagonalization with overlap
     ethr =  2.06E-06,  avg # of iterations = 11.0

     total cpu time spent up to now is        1.8 secs

     total energy              =     -31.94618287 Ry
     Harris-Foulkes estimate   =     -31.94618393 Ry
     estimated scf accuracy    <       0.00007397 Ry

     iteration # 45     ecut=    30.00 Ry     beta=0.70
     Davidson diagonalization with overlap
     ethr =  9.25E-07,  avg # of iterations =  1.0

     total cpu time spent up to now is        1.8 secs

     total energy              =     -31.94618272 Ry
     Harris-Foulkes estimate   =     -31.94618312 Ry
     estimated scf accuracy    <       0.00001772 Ry

     iteration # 46     ecut=    30.00 Ry     beta=0.70
     Davidson diagonalization with overlap
     ethr =  2.22E-07,  avg # of iterations =  1.0

     total cpu time spent up to now is        1.8 secs

     total energy              =     -31.94618264 Ry
     Harris-Foulkes estimate   =     -31.94618279 Ry
     estimated scf accuracy    <       0.00000357 Ry

     iteration # 47     ecut=    30.00 Ry     beta=0.70
     Davidson diagonalization with overlap
     ethr =  4.47E-08,  avg # of iterations =  1.0

     total cpu time spent up to now is        1.9 secs

     total energy              =     -31.94618266 Ry
     Harris-Foulkes estimate   =     -31.94618267 Ry
     estimated scf accuracy    <       0.00000013 Ry

     iteration # 48     ecut=    30.00 Ry     beta=0.70
     Davidson diagonalization with overlap
     ethr =  1.58E-09,  avg # of iterations =  1.0

     total cpu time spent up to now is        1.9 secs

     End of self-consistent calculation

          k = 0.0000 0.0000 0.0000 ( 22119 PWs)   bands (ev):

   -24.7918 -10.6378  -7.0451  -7.0445  -6.9055  -0.7014   0.3649   0.8165

     the Fermi energy is    -6.8744 ev

!    total energy              =     -31.94618265 Ry
     Harris-Foulkes estimate   =     -31.94618266 Ry
     estimated scf accuracy    <          1.1E-10 Ry

     convergence has been achieved in  48 iterations

     Forces acting on atoms (Ry/au):

     atom    1 type  1   force =     0.00457774    0.00172654    0.01686817
     atom    2 type  1   force =    -0.00022817   -0.00028711   -0.00003077
     atom    3 type  2   force =    -0.00434957   -0.00143943   -0.01683740

     Total force =     0.024761     Total SCF correction =     0.000014

     Molecular Dynamics Calculation

     Starting temperature  =  1000.00 K

     temperature is controlled by Andersen thermostat
     Collision frequency = 1.0000/timestep
     mass H                =     1.01
     mass O                =    16.00
     Time step             =   100.00 a.u.,  4.8378 femto-seconds

     Entering Dynamics:    iteration =     1
                           time      =   0.0048 pico-seconds


     Andersen thermostat:    3 collisions

ATOMIC_POSITIONS (bohr)
H        6.776706443   2.926039481   9.399992142
H       15.714162498   4.126117295  17.570426578
O        6.483953681   2.866149653   7.317646408


     kinetic energy (Ekin) =     0.01424295 Ry
     temperature           =   749.59394244 K 
     Ekin + Etot (const)   =   -31.93193970 Ry

     Linear momentum :    0.0000000000    0.0000000000    0.0000000000

     Writing output data file pwscf.save
     Check: negative starting charge=   -0.351001
     NEW-OLD atomic charge density approx. for the potential
     Check: negative starting charge=   -0.351301

     negative rho (up, down):  4.156E-02 0.000E+00

     total cpu time spent up to now is        2.2 secs

     per-process dynamical memory:    20.4 Mb

     Self-consistent Calculation

     iteration #  1     ecut=    30.00 Ry     beta=0.70
     Davidson diagonalization with overlap
     c_bands:  1 eigenvalues not converged
     ethr =  1.00E-06,  avg # of iterations = 20.0

     negative rho (up, down):  9.479E-03 0.000E+00

     total cpu time spent up to now is        2.3 secs

     total energy              =     -31.83064709 Ry
     Harris-Foulkes estimate   =     -31.90365255 Ry
     estimated scf accuracy    <       0.13299631 Ry

     iteration #  2     ecut=    30.00 Ry     beta=0.70
     Davidson diagonalization with overlap
     ethr =  1.66E-03,  avg # of iterations =  3.0

     negative rho (up, down):  7.939E-03 0.000E+00

     total cpu time spent up to now is        2.4 secs

     total energy              =     -31.98548618 Ry
     Harris-Foulkes estimate   =     -32.42101728 Ry
     estimated scf accuracy    <       1.77914990 Ry

     iteration #  3     ecut=    30.00 Ry     beta=0.70
     Davidson diagonalization with overlap
     ethr =  1.66E-03,  avg # of iterations =  2.0

     negative rho (up, down):  7.592E-03 0.000E+00

     total cpu time spent up to now is        2.4 secs

     total energy              =     -31.96217965 Ry
     Harris-Foulkes estimate   =     -32.00423779 Ry
     estimated scf accuracy    <       0.99209031 Ry

     iteration #  4     ecut=    30.00 Ry     beta=0.70
     Davidson diagonalization with overlap
     ethr =  1.66E-03,  avg # of iterations =  1.0

     negative rho (up, down):  2.948E-03 0.000E+00

     total cpu time spent up to now is        2.4 secs

     total energy              =     -31.59275903 Ry
     Harris-Foulkes estimate   =     -31.96238675 Ry
     estimated scf accuracy    <       0.89244845 Ry

     iteration #  5     ecut=    30.00 Ry     beta=0.70
     Davidson diagonalization with overlap
     ethr =  1.66E-03,  avg # of iterations =  3.0

     negative rho (up, down):  1.435E-03 0.000E+00

     total cpu time spent up to now is        2.5 secs

     total energy              =     -32.43789245 Ry
     Harris-Foulkes estimate   =     -32.47071102 Ry
     estimated scf accuracy    <       2.06633282 Ry

     iteration #  6     ecut=    30.00 Ry     beta=0.70
     Davidson diagonalization with overlap
     ethr =  1.66E-03,  avg # of iterations =  1.0

     negative rho (up, down):  1.284E-04 0.000E+00

     total cpu time spent up to now is        2.5 secs

     total energy              =     -32.12203584 Ry
     Harris-Foulkes estimate   =     -32.43803765 Ry
     estimated scf accuracy    <       2.00925424 Ry

     iteration #  7     ecut=    30.00 Ry     beta=0.70
     Davidson diagonalization with overlap
     ethr =  1.66E-03,  avg # of iterations =  1.0

     negative rho (up, down):  3.869E-05 0.000E+00

     total cpu time spent up to now is        2.5 secs

     total energy              =     -32.06388547 Ry
     Harris-Foulkes estimate   =     -32.12774771 Ry
     estimated scf accuracy    <       1.48221323 Ry

     iteration #  8     ecut=    30.00 Ry     beta=0.70
     Davidson diagonalization with overlap
     ethr =  1.66E-03,  avg # of iterations =  1.0

     negative rho (up, down):  4.696E-05 0.000E+00

     total cpu time spent up to now is        2.6 secs

     total energy              =     -32.00068225 Ry
     Harris-Foulkes estimate   =     -32.06446479 Ry
     estimated scf accuracy    <       1.37134892 Ry

     iteration #  9     ecut=    30.00 Ry     beta=0.70
     Davidson diagonalization with overlap
     ethr =  1.66E-03,  avg # of iterations =  1.0

     negative rho (up, down):  4.973E-05 0.000E+00

     total cpu time spent up to now is        2.6 secs

     total energy              =     -31.98901533 Ry
     Harris-Foulkes estimate   =     -32.00080727 Ry
     estimated scf accuracy    <       1.36269347 Ry

     iteration # 10     ecut=    30.00 Ry     beta=0.70
     Davidson diagonalization with overlap
     ethr =  1.66E-03,  avg # of iterations =  1.0

     negative rho (up, down):  2.805E-03 0.000E+00

     total cpu time spent up to now is        2.6 secs

     total energy              =     -32.30220992 Ry
     Harris-Foulkes estimate   =     -31.98873812 Ry
     estimated scf accuracy    <       1.50987146 Ry

     iteration # 11     ecut=    30.00 Ry     beta=0.70
     Davidson diagonalization with overlap
     ethr =  1.66E-03,  avg # of iterations =  1.0

     negative rho (up, down):  1.464E-02 0.000E+00

     total cpu time spent up to now is        2.7 secs

     total energy              =     -32.44809169 Ry
     Harris-Foulkes estimate   =     -32.28227885 Ry
     estimated scf accuracy    <       1.73463333 Ry

     iteration # 12     ecut=    30.00 Ry     beta=0.70
     Davidson diagonalization with overlap
     ethr =  1.66E-03,  avg # of iterations =  1.0

     negative rho (up, down):  4.760E-03 0.000E+00

     total cpu time spent up to now is        2.7 secs

     total energy              =     -32.29534477 Ry
     Harris-Foulkes estimate   =     -32.45064173 Ry
     estimated scf accuracy    <       2.04217284 Ry

     iteration # 13     ecut=    30.00 Ry     beta=0.70
     Davidson diagonalization with overlap
     ethr =  1.66E-03,  avg # of iterations =  1.0

     negative rho (up, down):  4.208E-03 0.000E+00

     total cpu time spent up to now is        2.7 secs

     total energy              =     -32.23288608 Ry
     Harris-Foulkes estimate   =     -32.29697668 Ry
     estimated scf accuracy    <       1.78370988 Ry

     iteration # 14     ecut=    30.00 Ry     beta=0.70
     Davidson diagonalization with overlap
     ethr =  1.66E-03,  avg # of iterations =  1.0

     negative rho (up, down):  1.496E-02 0.000E+00

     total cpu time spent up to now is        2.8 secs

     total energy              =     -32.28837591 Ry
     Harris-Foulkes estimate   =     -32.23357898 Ry
     estimated scf accuracy    <       1.65896649 Ry

     iteration # 15     ecut=    30.00 Ry     beta=0.70
     Davidson diagonalization with overlap
     ethr =  1.66E-03,  avg # of iterations =  1.0

     negative rho (up, down):  6.741E-04 0.000E+00

     total cpu time spent up to now is        2.8 secs

     total energy              =     -31.68761999 Ry
     Harris-Foulkes estimate   =     -32.28870535 Ry
     estimated scf accuracy    <       1.74648574 Ry

     iteration # 16     ecut=    30.00 Ry     beta=0.70
     Davidson diagonalization with overlap
     ethr =  1.66E-03,  avg # of iterations =  3.0

     negative rho (up, down):  6.048E-04 0.000E+00

     total cpu time spent up to now is        2.8 secs

     total energy              =     -32.21018333 Ry
     Harris-Foulkes estimate   =     -32.15002388 Ry
     estimated scf accuracy    <       1.22121228 Ry

     iteration # 17     ecut=    30.00 Ry     beta=0.70
     Davidson diagonalization with overlap
     ethr =  1.66E-03,  avg # of iterations =  1.0

     negative rho (up, down):  9.016E-03 0.000E+00

     total cpu time spent up to now is        2.9 secs

     total energy              =     -32.66681917 Ry
     Harris-Foulkes estimate   =     -32.21035043 Ry
     estimated scf accuracy    <       1.30623495 Ry

     iteration # 18     ecut=    30.00 Ry     beta=0.70
     Davidson diagonalization with overlap
     ethr =  1.66E-03,  avg # of iterations =  3.0

     negative rho (up, down):  5.627E-05 0.000E+00

     total cpu time spent up to now is        2.9 secs

     total energy              =     -32.16859875 Ry
     Harris-Foulkes estimate   =     -32.68267114 Ry
     estimated scf accuracy    <       1.98219212 Ry

     iteration # 19     ecut=    30.00 Ry     beta=0.70
     Davidson diagonalization with overlap
     ethr =  1.66E-03,  avg # of iterations =  1.0

     negative rho (up, down):  9.486E-06 0.000E+00

     total cpu time spent up to now is        2.9 secs

     total energy              =     -31.86520249 Ry
     Harris-Foulkes estimate   =     -32.16892358 Ry
     estimated scf accuracy    <       1.24862880 Ry

     iteration # 20     ecut=    30.00 Ry     beta=0.70
     Davidson diagonalization with overlap
     ethr =  1.66E-03,  avg # of iterations =  3.0

     negative rho (up, down):  2.205E-06 0.000E+00

     total cpu time spent up to now is        3.0 secs

     total energy              =     -31.87293943 Ry
     Harris-Foulkes estimate   =     -31.99775762 Ry
     estimated scf accuracy    <       1.38762851 Ry

     iteration # 21     ecut=    30.00 Ry     beta=0.70
     Davidson diagonalization with overlap
     ethr =  1.66E-03,  avg # of iterations =  1.0

     negative rho (up, down):  1.124E-06 0.000E+00

     total cpu time spent up to now is        3.0 secs

     total energy              =     -31.93717414 Ry
     Harris-Foulkes estimate   =     -31.97344029 Ry
     estimated scf accuracy    <       0.91043556 Ry

     iteration # 22     ecut=    30.00 Ry     beta=0.70
     Davidson diagonalization with overlap
     ethr =  1.66E-03,  avg # of iterations =  1.0

     negative rho (up, down):  7.605E-07 0.000E+00

     total cpu time spent up to now is        3.0 secs

     total energy              =     -31.94545226 Ry
     Harris-Foulkes estimate   =     -31.94428475 Ry
     estimated scf accuracy    <       0.12827345 Ry

     iteration # 23     ecut=    30.00 Ry     beta=0.70
     Davidson diagonalization with overlap
     ethr =  1.60E-03,  avg # of iterations =  1.0

     total cpu time spent up to now is        3.1 secs

     total energy              =     -31.95143986 Ry
     Harris-Foulkes estimate   =     -31.94562630 Ry
     estimated scf accuracy    <       0.21250195 Ry

     iteration # 24     ecut=    30.00 Ry     beta=0.70
     Davidson diagonalization with overlap
     ethr =  1.60E-03,  avg # of iterations =  1.0

     total cpu time spent up to now is        3.1 secs

     total energy              =     -31.96072675 Ry
     Harris-Foulkes estimate   =     -31.95345128 Ry
     estimated scf accuracy    <       0.57967327 Ry

     iteration # 25     ecut=    30.00 Ry     beta=0.70
     Davidson diagonalization with overlap
     ethr =  1.60E-03,  avg # of iterations =  1.0

     total cpu time spent up to now is        3.1 secs

     total energy              =     -31.95214797 Ry
     Harris-Foulkes estimate   =     -31.96136665 Ry
     estimated scf accuracy    <       0.78905794 Ry

     iteration # 26     ecut=    30.00 Ry     beta=0.70
     Davidson diagonalization with overlap
     ethr =  1.60E-03,  avg # of iterations =  1.0

     total cpu time spent up to now is        3.2 secs

     total energy              =     -31.96262112 Ry
     Harris-Foulkes estimate   =     -31.95277539 Ry
     estimated scf accuracy    <       0.55535322 Ry

     iteration # 27     ecut=    30.00 Ry     beta=0.70
     Davidson diagonalization with overlap
     ethr =  1.60E-03,  avg # of iterations =  1.0

     total cpu time spent up to now is        3.2 secs

     total energy              =     -31.91956050 Ry
     Harris-Foulkes estimate   =     -31.96381392 Ry
     estimated scf accuracy    <       0.82935128 Ry

     iteration # 28     ecut=    30.00 Ry     beta=0.70
     Davidson diagonalization with overlap
     ethr =  1.60E-03,  avg # of iterations =  1.0

     total cpu time spent up to now is        3.2 secs

     total energy              =     -31.94462566 Ry
     Harris-Foulkes estimate   =     -31.94497543 Ry
     estimated scf accuracy    <       0.21082285 Ry

     iteration # 29     ecut=    30.00 Ry     beta=0.70
     Davidson diagonalization with overlap
     ethr =  1.60E-03,  avg # of iterations =  1.0

     total cpu time spent up to now is        3.3 secs

     total energy              =     -31.93839854 Ry
     Harris-Foulkes estimate   =     -31.94464556 Ry
     estimated scf accuracy    <       0.18354542 Ry

     iteration # 30     ecut=    30.00 Ry     beta=0.70
     Davidson diagonalization with overlap
     ethr =  1.60E-03,  avg # of iterations =  1.0

     total cpu time spent up to now is        3.3 secs

     total energy              =     -31.93990566 Ry
     Harris-Foulkes estimate   =     -31.94272443 Ry
     estimated scf accuracy    <       0.02473996 Ry

     iteration # 31     ecut=    30.00 Ry     beta=0.70
     Davidson diagonalization with overlap
     ethr =  3.09E-04,  avg # of iterations =  1.0

     total cpu time spent up to now is        3.3 secs

     total energy              =     -31.94758056 Ry
     Harris-Foulkes estimate   =     -31.94657765 Ry
     estimated scf accuracy    <       0.33824961 Ry

     iteration # 32     ecut=    30.00 Ry     beta=0.70
     Davidson diagonalization with overlap
     ethr =  3.09E-04,  avg # of iterations =  1.0

     total cpu time spent up to now is        3.4 secs

     total energy              =     -31.94691473 Ry
     Harris-Foulkes estimate   =     -31.94763952 Ry
     estimated scf accuracy    <       0.42143755 Ry

     iteration # 33     ecut=    30.00 Ry     beta=0.70
     Davidson diagonalization with overlap
     ethr =  3.09E-04,  avg # of iterations =  1.0

     total cpu time spent up to now is        3.4 secs

     total energy              =     -31.94823879 Ry
     Harris-Foulkes estimate   =     -31.94693859 Ry
     estimated scf accuracy    <       0.36700012 Ry

     iteration # 34     ecut=    30.00 Ry     beta=0.70
     Davidson diagonalization with overlap
     ethr =  3.09E-04,  avg # of iterations =  1.0

     total cpu time spent up to now is        3.4 secs

     total energy              =     -31.94458810 Ry
     Harris-Foulkes estimate   =     -31.94832665 Ry
     estimated scf accuracy    <       0.47418124 Ry

     iteration # 35     ecut=    30.00 Ry     beta=0.70
     Davidson diagonalization with overlap
     ethr =  3.09E-04,  avg # of iterations =  1.0

     total cpu time spent up to now is        3.5 secs

     total energy              =     -31.94142136 Ry
     Harris-Foulkes estimate   =     -31.94515787 Ry
     estimated scf accuracy    <       0.22450731 Ry

     iteration # 36     ecut=    30.00 Ry     beta=0.70
     Davidson diagonalization with overlap
     ethr =  3.09E-04,  avg # of iterations =  1.0

     total cpu time spent up to now is        3.5 secs

     total energy              =     -31.94210898 Ry
     Harris-Foulkes estimate   =     -31.94268160 Ry
     estimated scf accuracy    <       0.02278615 Ry

     iteration # 37     ecut=    30.00 Ry     beta=0.70
     Davidson diagonalization with overlap
     ethr =  2.85E-04,  avg # of iterations =  1.0

     total cpu time spent up to now is        3.5 secs

     total energy              =     -31.94239371 Ry
     Harris-Foulkes estimate   =     -31.94239402 Ry
     estimated scf accuracy    <       0.00000007 Ry

     iteration # 38     ecut=    30.00 Ry     beta=0.70
     Davidson diagonalization with overlap
     ethr =  8.54E-10,  avg # of iterations = 14.0

     total cpu time spent up to now is        3.6 secs

     total energy              =     -31.94239374 Ry
     Harris-Foulkes estimate   =     -31.94239379 Ry
     estimated scf accuracy    <       0.00000141 Ry

     iteration # 39     ecut=    30.00 Ry     beta=0.70
     Davidson diagonalization with overlap
     ethr =  8.54E-10,  avg # of iterations =  1.0

     total cpu time spent up to now is        3.6 secs

     total energy              =     -31.94239372 Ry
     Harris-Foulkes estimate   =     -31.94239375 Ry
     estimated scf accuracy    <       0.00000023 Ry

     iteration # 40     ecut=    30.00 Ry     beta=0.70
     Davidson diagonalization with overlap
     ethr =  8.54E-10,  avg # of iterations =  1.0

     total cpu time spent up to now is        3.7 secs

     total energy              =     -31.94239369 Ry
     Harris-Foulkes estimate   =     -31.94239372 Ry
     estimated scf accuracy    <       0.00000006 Ry

     iteration # 41     ecut=    30.00 Ry     beta=0.70
     Davidson diagonalization with overlap
     ethr =  7.33E-10,  avg # of iterations =  1.0

     total cpu time spent up to now is        3.7 secs

     total energy              =     -31.94239371 Ry
     Harris-Foulkes estimate   =     -31.94239369 Ry
     estimated scf accuracy    <       0.00000002 Ry

     iteration # 42     ecut=    30.00 Ry     beta=0.70
     Davidson diagonalization with overlap
     ethr =  2.43E-10,  avg # of iterations =  1.0

     total cpu time spent up to now is        3.7 secs

     total energy              =     -31.94239372 Ry
     Harris-Foulkes estimate   =     -31.94239371 Ry
     estimated scf accuracy    <       0.00000001 Ry

     iteration # 43     ecut=    30.00 Ry     beta=0.70
     Davidson diagonalization with overlap
     ethr =  1.75E-10,  avg # of iterations =  1.0

     total cpu time spent up to now is        3.7 secs

     End of self-consistent calculation

          k = 0.0000 0.0000 0.0000 ( 22119 PWs)   bands (ev):

   -24.5270 -10.4614  -7.0192  -7.0187  -6.8807  -0.8607   0.2809   0.8006

     the Fermi energy is    -6.8490 ev

!    total energy              =     -31.94239372 Ry
     Harris-Foulkes estimate   =     -31.94239372 Ry
     estimated scf accuracy    <          2.3E-10 Ry

     convergence has been achieved in  43 iterations

     Forces acting on atoms (Ry/au):

     atom    1 type  1   force =    -0.01145096   -0.00257124   -0.07783120
     atom    2 type  1   force =    -0.00023857   -0.00026891    0.00001874
     atom    3 type  2   force =     0.01168953    0.00284014    0.07781245

     Total force =     0.111333     Total SCF correction =     0.000010

     Entering Dynamics:    iteration =     2
                           time      =   0.0097 pico-seconds


     Andersen thermostat:    3 collisions

ATOMIC_POSITIONS (bohr)
H        6.928098692   3.315403110   8.339074941
H       15.631209012   3.968244861  17.046167212
O        6.479633484   2.851536771   7.417710678


     kinetic energy (Ekin) =     0.04730303 Ry
     temperature           =  2489.51611794 K 
     Ekin + Etot (const)   =   -31.89509070 Ry
     Message from routine dynamics:
     Total linear momentum <> 0

     Linear momentum :   -0.1820806967   -0.1588555936    0.0359318091

     Writing output data file pwscf.save

     first order wave-functions extrapolation
     Check: negative starting charge=   -0.351301
     first order charge density extrapolation
     Check: negative starting charge=   -0.354016

     negative rho (up, down):  2.662E-01 0.000E+00

     total cpu time spent up to now is        4.1 secs

     per-process dynamical memory:    20.4 Mb

     Self-consistent Calculation

     iteration #  1     ecut=    30.00 Ry     beta=0.70
     Davidson diagonalization with overlap
     c_bands:  1 eigenvalues not converged
     ethr =  1.00E-06,  avg # of iterations = 20.0

     negative rho (up, down):  6.158E-02 0.000E+00

     total cpu time spent up to now is        4.3 secs

     total energy              =     -29.99538239 Ry
     Harris-Foulkes estimate   =     -31.38948929 Ry
     estimated scf accuracy    <       1.47776993 Ry

     iteration #  2     ecut=    30.00 Ry     beta=0.70
     Davidson diagonalization with overlap
     ethr =  1.00E-02,  avg # of iterations =  4.0

     negative rho (up, down):  9.264E-03 0.000E+00

     total cpu time spent up to now is        4.3 secs

     total energy              =     -29.84068516 Ry
     Harris-Foulkes estimate   =     -33.56318481 Ry
     estimated scf accuracy    <      11.93710245 Ry

     iteration #  3     ecut=    30.00 Ry     beta=0.70
     Davidson diagonalization with overlap
     ethr =  1.00E-02,  avg # of iterations =  4.0

     negative rho (up, down):  1.126E-02 0.000E+00

     total cpu time spent up to now is        4.3 secs

     total energy              =     -30.98252045 Ry
     Harris-Foulkes estimate   =     -31.14460134 Ry
     estimated scf accuracy    <       1.73038937 Ry

     iteration #  4     ecut=    30.00 Ry     beta=0.70
     Davidson diagonalization with overlap
     ethr =  1.00E-02,  avg # of iterations =  1.0

     negative rho (up, down):  2.058E-01 0.000E+00

     total cpu time spent up to now is        4.4 secs

     total energy              =     -30.29228055 Ry
     Harris-Foulkes estimate   =     -30.98265636 Ry
     estimated scf accuracy    <       1.78805845 Ry

     iteration #  5     ecut=    30.00 Ry     beta=0.70
     Davidson diagonalization with overlap
     ethr =  1.00E-02,  avg # of iterations =  2.0

     negative rho (up, down):  3.587E-01 0.000E+00

     total cpu time spent up to now is        4.4 secs

     total energy              =     -30.27757321 Ry
     Harris-Foulkes estimate   =     -30.44082976 Ry
     estimated scf accuracy    <       0.48694335 Ry

     iteration #  6     ecut=    30.00 Ry     beta=0.70
     Davidson diagonalization with overlap
     ethr =  6.09E-03,  avg # of iterations =  5.0

     negative rho (up, down):  1.605E-01 0.000E+00

     total cpu time spent up to now is        4.4 secs

     total energy              =     -31.77473507 Ry
     Harris-Foulkes estimate   =     -32.14719303 Ry
     estimated scf accuracy    <       2.52832163 Ry

     iteration #  7     ecut=    30.00 Ry     beta=0.70
     Davidson diagonalization with overlap
     ethr =  6.09E-03,  avg # of iterations =  1.0

     negative rho (up, down):  7.863E-04 0.000E+00

     total cpu time spent up to now is        4.5 secs

     total energy              =     -31.25059877 Ry
     Harris-Foulkes estimate   =     -31.77783653 Ry
     estimated scf accuracy    <       1.95568299 Ry

     iteration #  8     ecut=    30.00 Ry     beta=0.70
     Davidson diagonalization with overlap
     ethr =  6.09E-03,  avg # of iterations =  2.0

     negative rho (up, down):  2.476E-02 0.000E+00

     total cpu time spent up to now is        4.5 secs

     total energy              =     -31.75536852 Ry
     Harris-Foulkes estimate   =     -31.25265832 Ry
     estimated scf accuracy    <       1.19798213 Ry

     iteration #  9     ecut=    30.00 Ry     beta=0.70
     Davidson diagonalization with overlap
     ethr =  6.09E-03,  avg # of iterations =  1.0

     negative rho (up, down):  3.449E-02 0.000E+00

     total cpu time spent up to now is        4.5 secs

     total energy              =     -31.87450653 Ry
     Harris-Foulkes estimate   =     -31.76431332 Ry
     estimated scf accuracy    <       1.89744321 Ry

     iteration # 10     ecut=    30.00 Ry     beta=0.70
     Davidson diagonalization with overlap
     ethr =  6.09E-03,  avg # of iterations =  1.0

     negative rho (up, down):  1.736E-01 0.000E+00

     total cpu time spent up to now is        4.6 secs

     total energy              =     -34.00477180 Ry
     Harris-Foulkes estimate   =     -31.87504373 Ry
     estimated scf accuracy    <       2.06065327 Ry

     iteration # 11     ecut=    30.00 Ry     beta=0.70
     Davidson diagonalization with overlap
     ethr =  6.09E-03,  avg # of iterations =  4.0

     negative rho (up, down):  5.724E-03 0.000E+00

     total cpu time spent up to now is        4.6 secs

     total energy              =     -31.88075215 Ry
     Harris-Foulkes estimate   =     -34.04749274 Ry
     estimated scf accuracy    <       4.80250430 Ry

     iteration # 12     ecut=    30.00 Ry     beta=0.70
     Davidson diagonalization with overlap
     ethr =  6.09E-03,  avg # of iterations =  2.0

     negative rho (up, down):  3.318E-02 0.000E+00

     total cpu time spent up to now is        4.6 secs

     total energy              =     -32.45044559 Ry
     Harris-Foulkes estimate   =     -31.91904514 Ry
     estimated scf accuracy    <       2.11903283 Ry

     iteration # 13     ecut=    30.00 Ry     beta=0.70
     Davidson diagonalization with overlap
     ethr =  6.09E-03,  avg # of iterations =  1.0

     negative rho (up, down):  2.486E-02 0.000E+00

     total cpu time spent up to now is        4.7 secs

     total energy              =     -30.62783592 Ry
     Harris-Foulkes estimate   =     -32.46105945 Ry
     estimated scf accuracy    <       2.79311623 Ry

     iteration # 14     ecut=    30.00 Ry     beta=0.70
     Davidson diagonalization with overlap
     ethr =  6.09E-03,  avg # of iterations =  5.0

     negative rho (up, down):  4.555E-04 0.000E+00

     total cpu time spent up to now is        4.7 secs

     total energy              =     -31.30006611 Ry
     Harris-Foulkes estimate   =     -33.46304447 Ry
     estimated scf accuracy    <       5.23116986 Ry

     iteration # 15     ecut=    30.00 Ry     beta=0.70
     Davidson diagonalization with overlap
     ethr =  6.09E-03,  avg # of iterations =  3.0

     total cpu time spent up to now is        4.8 secs

     total energy              =     -32.44202322 Ry
     Harris-Foulkes estimate   =     -33.00305869 Ry
     estimated scf accuracy    <      11.11721881 Ry

     iteration # 16     ecut=    30.00 Ry     beta=0.70
     Davidson diagonalization with overlap
     ethr =  6.09E-03,  avg # of iterations =  1.0

     total cpu time spent up to now is        4.8 secs

     total energy              =     -32.32263384 Ry
     Harris-Foulkes estimate   =     -32.45607934 Ry
     estimated scf accuracy    <       9.98075569 Ry

     iteration # 17     ecut=    30.00 Ry     beta=0.70
     Davidson diagonalization with overlap
     ethr =  6.09E-03,  avg # of iterations =  1.0

     total cpu time spent up to now is        4.9 secs

     total energy              =     -32.01557597 Ry
     Harris-Foulkes estimate   =     -32.34481231 Ry
     estimated scf accuracy    <       6.46975273 Ry

     iteration # 18     ecut=    30.00 Ry     beta=0.70
     Davidson diagonalization with overlap
     ethr =  6.09E-03,  avg # of iterations =  1.0

     negative rho (up, down):  1.602E-05 0.000E+00

     total cpu time spent up to now is        4.9 secs

     total energy              =     -32.19877061 Ry
     Harris-Foulkes estimate   =     -32.09138656 Ry
     estimated scf accuracy    <       3.28630928 Ry

     iteration # 19     ecut=    30.00 Ry     beta=0.70
     Davidson diagonalization with overlap
     ethr =  6.09E-03,  avg # of iterations =  1.0

     negative rho (up, down):  2.083E-03 0.000E+00

     total cpu time spent up to now is        4.9 secs

     total energy              =     -32.05819075 Ry
     Harris-Foulkes estimate   =     -32.20086644 Ry
     estimated scf accuracy    <       3.46125822 Ry

     iteration # 20     ecut=    30.00 Ry     beta=0.70
     Davidson diagonalization with overlap
     ethr =  6.09E-03,  avg # of iterations =  1.0

     negative rho (up, down):  2.437E-03 0.000E+00

     total cpu time spent up to now is        5.0 secs

     total energy              =     -30.90376408 Ry
     Harris-Foulkes estimate   =     -32.05989036 Ry
     estimated scf accuracy    <       3.16399557 Ry

     iteration # 21     ecut=    30.00 Ry     beta=0.70
     Davidson diagonalization with overlap
     ethr =  6.09E-03,  avg # of iterations =  2.0

     negative rho (up, down):  2.226E-03 0.000E+00

     total cpu time spent up to now is        5.0 secs

     total energy              =     -31.01875888 Ry
     Harris-Foulkes estimate   =     -31.02778757 Ry
     estimated scf accuracy    <       0.22880318 Ry

     iteration # 22     ecut=    30.00 Ry     beta=0.70
     Davidson diagonalization with overlap
     ethr =  2.86E-03,  avg # of iterations =  1.0

     negative rho (up, down):  2.151E-03 0.000E+00

     total cpu time spent up to now is        5.0 secs

     total energy              =     -31.32004050 Ry
     Harris-Foulkes estimate   =     -31.05616972 Ry
     estimated scf accuracy    <       1.46689425 Ry

     iteration # 23     ecut=    30.00 Ry     beta=0.70
     Davidson diagonalization with overlap
     ethr =  2.86E-03,  avg # of iterations =  1.0

     negative rho (up, down):  5.443E-04 0.000E+00

     total cpu time spent up to now is        5.1 secs

     total energy              =     -31.57729279 Ry
     Harris-Foulkes estimate   =     -31.32217793 Ry
     estimated scf accuracy    <       1.79853476 Ry

     iteration # 24     ecut=    30.00 Ry     beta=0.70
     Davidson diagonalization with overlap
     ethr =  2.86E-03,  avg # of iterations =  1.0

     negative rho (up, down):  1.600E-02 0.000E+00

     total cpu time spent up to now is        5.1 secs

     total energy              =     -31.74487142 Ry
     Harris-Foulkes estimate   =     -31.58518343 Ry
     estimated scf accuracy    <       2.20679591 Ry

     iteration # 25     ecut=    30.00 Ry     beta=0.70
     Davidson diagonalization with overlap
     ethr =  2.86E-03,  avg # of iterations =  1.0

     negative rho (up, down):  8.225E-02 0.000E+00

     total cpu time spent up to now is        5.1 secs

     total energy              =     -31.82711135 Ry
     Harris-Foulkes estimate   =     -31.74797978 Ry
     estimated scf accuracy    <       2.49311841 Ry

     iteration # 26     ecut=    30.00 Ry     beta=0.70
     Davidson diagonalization with overlap
     ethr =  2.86E-03,  avg # of iterations =  1.0

     negative rho (up, down):  1.270E-02 0.000E+00

     total cpu time spent up to now is        5.2 secs

     total energy              =     -31.74699106 Ry
     Harris-Foulkes estimate   =     -31.82790229 Ry
     estimated scf accuracy    <       2.61951627 Ry

     iteration # 27     ecut=    30.00 Ry     beta=0.70
     Davidson diagonalization with overlap
     ethr =  2.86E-03,  avg # of iterations =  1.0

     negative rho (up, down):  1.765E-02 0.000E+00

     total cpu time spent up to now is        5.2 secs

     total energy              =     -31.75856019 Ry
     Harris-Foulkes estimate   =     -31.74749460 Ry
     estimated scf accuracy    <       2.50621952 Ry

     iteration # 28     ecut=    30.00 Ry     beta=0.70
     Davidson diagonalization with overlap
     ethr =  2.86E-03,  avg # of iterations =  1.0

     negative rho (up, down):  3.721E-02 0.000E+00

     total cpu time spent up to now is        5.2 secs

     total energy              =     -31.77708511 Ry
     Harris-Foulkes estimate   =     -31.75863762 Ry
     estimated scf accuracy    <       2.51640389 Ry

     iteration # 29     ecut=    30.00 Ry     beta=0.70
     Davidson diagonalization with overlap
     ethr =  2.86E-03,  avg # of iterations =  1.0

     negative rho (up, down):  2.860E-02 0.000E+00

     total cpu time spent up to now is        5.3 secs

     total energy              =     -31.76774266 Ry
     Harris-Foulkes estimate   =     -31.77725386 Ry
     estimated scf accuracy    <       2.54862167 Ry

     iteration # 30     ecut=    30.00 Ry     beta=0.70
     Davidson diagonalization with overlap
     ethr =  2.86E-03,  avg # of iterations =  1.0

     negative rho (up, down):  2.851E-01 0.000E+00

     total cpu time spent up to now is        5.3 secs

     total energy              =     -29.98105800 Ry
     Harris-Foulkes estimate   =     -31.76779771 Ry
     estimated scf accuracy    <       2.54271921 Ry

     iteration # 31     ecut=    30.00 Ry     beta=0.70
     Davidson diagonalization with overlap
     ethr =  2.86E-03,  avg # of iterations =  4.0

     negative rho (up, down):  2.408E-02 0.000E+00

     total cpu time spent up to now is        5.3 secs

     total energy              =     -31.20614597 Ry
     Harris-Foulkes estimate   =     -32.54545673 Ry
     estimated scf accuracy    <       2.87111090 Ry

     iteration # 32     ecut=    30.00 Ry     beta=0.70
     Davidson diagonalization with overlap
     ethr =  2.86E-03,  avg # of iterations =  4.0

     negative rho (up, down):  4.028E-03 0.000E+00

     total cpu time spent up to now is        5.4 secs

     total energy              =     -30.87987082 Ry
     Harris-Foulkes estimate   =     -31.23239552 Ry
     estimated scf accuracy    <       1.13929495 Ry

     iteration # 33     ecut=    30.00 Ry     beta=0.70
     Davidson diagonalization with overlap
     ethr =  2.86E-03,  avg # of iterations =  2.0

     negative rho (up, down):  9.955E-04 0.000E+00

     total cpu time spent up to now is        5.4 secs

     total energy              =     -31.11004517 Ry
     Harris-Foulkes estimate   =     -31.16402637 Ry
     estimated scf accuracy    <       1.48893929 Ry

     iteration # 34     ecut=    30.00 Ry     beta=0.70
     Davidson diagonalization with overlap
     ethr =  2.86E-03,  avg # of iterations =  1.0

     negative rho (up, down):  3.145E-04 0.000E+00

     total cpu time spent up to now is        5.4 secs

     total energy              =     -30.91162210 Ry
     Harris-Foulkes estimate   =     -31.11036602 Ry
     estimated scf accuracy    <       1.41060214 Ry

     iteration # 35     ecut=    30.00 Ry     beta=0.70
     Davidson diagonalization with overlap
     ethr =  2.86E-03,  avg # of iterations =  1.0

     negative rho (up, down):  1.640E-04 0.000E+00

     total cpu time spent up to now is        5.5 secs

     total energy              =     -30.90017581 Ry
     Harris-Foulkes estimate   =     -31.08019762 Ry
     estimated scf accuracy    <       0.94048149 Ry

     iteration # 36     ecut=    30.00 Ry     beta=0.70
     Davidson diagonalization with overlap
     ethr =  2.86E-03,  avg # of iterations =  1.0

     negative rho (up, down):  8.678E-05 0.000E+00

     total cpu time spent up to now is        5.5 secs

     total energy              =     -31.10175009 Ry
     Harris-Foulkes estimate   =     -31.13816939 Ry
     estimated scf accuracy    <       1.43942621 Ry

     iteration # 37     ecut=    30.00 Ry     beta=0.70
     Davidson diagonalization with overlap
     ethr =  2.86E-03,  avg # of iterations =  1.0

     negative rho (up, down):  1.823E-05 0.000E+00

     total cpu time spent up to now is        5.5 secs

     total energy              =     -31.03166083 Ry
     Harris-Foulkes estimate   =     -31.10194044 Ry
     estimated scf accuracy    <       1.39286583 Ry

     iteration # 38     ecut=    30.00 Ry     beta=0.70
     Davidson diagonalization with overlap
     ethr =  2.86E-03,  avg # of iterations =  1.0

     negative rho (up, down):  1.056E-05 0.000E+00

     total cpu time spent up to now is        5.6 secs

     total energy              =     -30.99428578 Ry
     Harris-Foulkes estimate   =     -31.02857551 Ry
     estimated scf accuracy    <       0.91929948 Ry

     iteration # 39     ecut=    30.00 Ry     beta=0.70
     Davidson diagonalization with overlap
     ethr =  2.86E-03,  avg # of iterations =  1.0

     negative rho (up, down):  1.150E-05 0.000E+00

     total cpu time spent up to now is        5.6 secs

     total energy              =     -31.04025119 Ry
     Harris-Foulkes estimate   =     -31.01916011 Ry
     estimated scf accuracy    <       0.17488951 Ry

     iteration # 40     ecut=    30.00 Ry     beta=0.70
     Davidson diagonalization with overlap
     ethr =  2.19E-03,  avg # of iterations =  1.0

     negative rho (up, down):  4.088E-06 0.000E+00

     total cpu time spent up to now is        5.6 secs

     total energy              =     -31.09864620 Ry
     Harris-Foulkes estimate   =     -31.05897717 Ry
     estimated scf accuracy    <       0.91098189 Ry

     iteration # 41     ecut=    30.00 Ry     beta=0.70
     Davidson diagonalization with overlap
     ethr =  2.19E-03,  avg # of iterations =  1.0

     negative rho (up, down):  8.861E-06 0.000E+00

     total cpu time spent up to now is        5.7 secs

     total energy              =     -31.14501084 Ry
     Harris-Foulkes estimate   =     -31.09874872 Ry
     estimated scf accuracy    <       0.96893523 Ry

     iteration # 42     ecut=    30.00 Ry     beta=0.70
     Davidson diagonalization with overlap
     ethr =  2.19E-03,  avg # of iterations =  1.0

     negative rho (up, down):  3.663E-08 0.000E+00

     total cpu time spent up to now is        5.7 secs

     total energy              =     -31.13258134 Ry
     Harris-Foulkes estimate   =     -31.14509869 Ry
     estimated scf accuracy    <       1.03441206 Ry

     iteration # 43     ecut=    30.00 Ry     beta=0.70
     Davidson diagonalization with overlap
     ethr =  2.19E-03,  avg # of iterations =  1.0

     negative rho (up, down):  2.883E-08 0.000E+00

     total cpu time spent up to now is        5.7 secs

     total energy              =     -31.11492419 Ry
     Harris-Foulkes estimate   =     -31.13259598 Ry
     estimated scf accuracy    <       1.01625301 Ry

     iteration # 44     ecut=    30.00 Ry     beta=0.70
     Davidson diagonalization with overlap
     ethr =  2.19E-03,  avg # of iterations =  1.0

     negative rho (up, down):  1.827E-08 0.000E+00

     total cpu time spent up to now is        5.8 secs

     total energy              =     -31.09924749 Ry
     Harris-Foulkes estimate   =     -31.11495706 Ry
     estimated scf accuracy    <       0.98856134 Ry

     iteration # 45     ecut=    30.00 Ry     beta=0.70
     Davidson diagonalization with overlap
     ethr =  2.19E-03,  avg # of iterations =  1.0

     negative rho (up, down):  3.144E-07 0.000E+00

     total cpu time spent up to now is        5.8 secs

     total energy              =     -31.08063244 Ry
     Harris-Foulkes estimate   =     -31.09926124 Ry
     estimated scf accuracy    <       0.96561671 Ry

     iteration # 46     ecut=    30.00 Ry     beta=0.70
     Davidson diagonalization with overlap
     ethr =  2.19E-03,  avg # of iterations =  1.0

     negative rho (up, down):  1.263E-07 0.000E+00

     total cpu time spent up to now is        5.8 secs

     total energy              =     -31.12417439 Ry
     Harris-Foulkes estimate   =     -31.08066263 Ry
     estimated scf accuracy    <       0.93731316 Ry

     iteration # 47     ecut=    30.00 Ry     beta=0.70
     Davidson diagonalization with overlap
     ethr =  2.19E-03,  avg # of iterations =  1.0

     negative rho (up, down):  5.117E-06 0.000E+00

     total cpu time spent up to now is        5.9 secs

     total energy              =     -31.18626217 Ry
     Harris-Foulkes estimate   =     -31.12427815 Ry
     estimated scf accuracy    <       1.00026408 Ry

     iteration # 48     ecut=    30.00 Ry     beta=0.70
     Davidson diagonalization with overlap
     ethr =  2.19E-03,  avg # of iterations =  1.0

     negative rho (up, down):  9.183E-03 0.000E+00

     total cpu time spent up to now is        5.9 secs

     total energy              =     -30.38079208 Ry
     Harris-Foulkes estimate   =     -31.18651583 Ry
     estimated scf accuracy    <       1.09288770 Ry

     iteration # 49     ecut=    30.00 Ry     beta=0.70
     Davidson diagonalization with overlap
     ethr =  2.19E-03,  avg # of iterations =  5.0

     negative rho (up, down):  1.050E-03 0.000E+00

     total cpu time spent up to now is        5.9 secs

     total energy              =     -32.70224577 Ry
     Harris-Foulkes estimate   =     -32.56821178 Ry
     estimated scf accuracy    <      11.33548798 Ry

     iteration # 50     ecut=    30.00 Ry     beta=0.70
     Davidson diagonalization with overlap
     ethr =  2.19E-03,  avg # of iterations =  2.0

     negative rho (up, down):  1.125E-02 0.000E+00

     total cpu time spent up to now is        6.0 secs

     total energy              =     -32.77003842 Ry
     Harris-Foulkes estimate   =     -32.71676735 Ry
     estimated scf accuracy    <      11.32989890 Ry

     iteration # 51     ecut=    30.00 Ry     beta=0.70
     Davidson diagonalization with overlap
     ethr =  2.19E-03,  avg # of iterations =  1.0

     negative rho (up, down):  3.046E-02 0.000E+00

     total cpu time spent up to now is        6.0 secs

     total energy              =     -32.78684414 Ry
     Harris-Foulkes estimate   =     -32.78073632 Ry
     estimated scf accuracy    <      11.46671735 Ry

     iteration # 52     ecut=    30.00 Ry     beta=0.70
     Davidson diagonalization with overlap
     ethr =  2.19E-03,  avg # of iterations =  2.0

     negative rho (up, down):  2.863E-02 0.000E+00

     total cpu time spent up to now is        6.0 secs

     total energy              =     -32.79130437 Ry
     Harris-Foulkes estimate   =     -32.80740169 Ry
     estimated scf accuracy    <      11.20450734 Ry

     iteration # 53     ecut=    30.00 Ry     beta=0.70
     Davidson diagonalization with overlap
     ethr =  2.19E-03,  avg # of iterations =  1.0

     negative rho (up, down):  2.857E-02 0.000E+00

     total cpu time spent up to now is        6.1 secs

     total energy              =     -32.14108093 Ry
     Harris-Foulkes estimate   =     -32.79231625 Ry
     estimated scf accuracy    <      11.18654756 Ry

     iteration # 54     ecut=    30.00 Ry     beta=0.70
     Davidson diagonalization with overlap
     ethr =  2.19E-03,  avg # of iterations =  2.0

     negative rho (up, down):  5.405E-03 0.000E+00

     total cpu time spent up to now is        6.1 secs

     total energy              =     -31.58159701 Ry
     Harris-Foulkes estimate   =     -32.22938681 Ry
     estimated scf accuracy    <       3.45824790 Ry

     iteration # 55     ecut=    30.00 Ry     beta=0.70
     Davidson diagonalization with overlap
     ethr =  2.19E-03,  avg # of iterations =  2.0

     negative rho (up, down):  6.851E-05 0.000E+00

     total cpu time spent up to now is        6.1 secs

     total energy              =     -31.09234913 Ry
     Harris-Foulkes estimate   =     -31.60813320 Ry
     estimated scf accuracy    <       2.22889013 Ry

     iteration # 56     ecut=    30.00 Ry     beta=0.70
     Davidson diagonalization with overlap
     ethr =  2.19E-03,  avg # of iterations =  3.0

     negative rho (up, down):  7.484E-05 0.000E+00

     total cpu time spent up to now is        6.2 secs

     total energy              =     -30.96560438 Ry
     Harris-Foulkes estimate   =     -31.10601438 Ry
     estimated scf accuracy    <       1.40461217 Ry

     iteration # 57     ecut=    30.00 Ry     beta=0.70
     Davidson diagonalization with overlap
     ethr =  2.19E-03,  avg # of iterations =  1.0

     negative rho (up, down):  2.798E-04 0.000E+00

     total cpu time spent up to now is        6.2 secs

     total energy              =     -30.89389169 Ry
     Harris-Foulkes estimate   =     -31.03420502 Ry
     estimated scf accuracy    <       0.73024295 Ry

     iteration # 58     ecut=    30.00 Ry     beta=0.70
     Davidson diagonalization with overlap
     ethr =  2.19E-03,  avg # of iterations =  1.0

     negative rho (up, down):  6.417E-05 0.000E+00

     total cpu time spent up to now is        6.2 secs

     total energy              =     -31.12246454 Ry
     Harris-Foulkes estimate   =     -31.16908678 Ry
     estimated scf accuracy    <       1.49387195 Ry

     iteration # 59     ecut=    30.00 Ry     beta=0.70
     Davidson diagonalization with overlap
     ethr =  2.19E-03,  avg # of iterations =  1.0

     total cpu time spent up to now is        6.3 secs

     total energy              =     -31.10773018 Ry
     Harris-Foulkes estimate   =     -31.12264380 Ry
     estimated scf accuracy    <       1.42773110 Ry

     iteration # 60     ecut=    30.00 Ry     beta=0.70
     Davidson diagonalization with overlap
     ethr =  2.19E-03,  avg # of iterations =  1.0

     total cpu time spent up to now is        6.3 secs

     total energy              =     -31.13569592 Ry
     Harris-Foulkes estimate   =     -31.10776957 Ry
     estimated scf accuracy    <       1.40188714 Ry

     iteration # 61     ecut=    30.00 Ry     beta=0.70
     Davidson diagonalization with overlap
     ethr =  2.19E-03,  avg # of iterations =  1.0

     total cpu time spent up to now is        6.4 secs

     total energy              =     -31.14201613 Ry
     Harris-Foulkes estimate   =     -31.13573166 Ry
     estimated scf accuracy    <       1.44411381 Ry

     iteration # 62     ecut=    30.00 Ry     beta=0.70
     Davidson diagonalization with overlap
     ethr =  2.19E-03,  avg # of iterations =  1.0

     negative rho (up, down):  1.444E-08 0.000E+00

     total cpu time spent up to now is        6.4 secs

     total energy              =     -31.15402825 Ry
     Harris-Foulkes estimate   =     -31.14202206 Ry
     estimated scf accuracy    <       1.45452938 Ry

     iteration # 63     ecut=    30.00 Ry     beta=0.70
     Davidson diagonalization with overlap
     ethr =  2.19E-03,  avg # of iterations =  1.0

     negative rho (up, down):  1.392E-08 0.000E+00

     total cpu time spent up to now is        6.4 secs

     total energy              =     -31.14509122 Ry
     Harris-Foulkes estimate   =     -31.15404135 Ry
     estimated scf accuracy    <       1.47447583 Ry

     iteration # 64     ecut=    30.00 Ry     beta=0.70
     Davidson diagonalization with overlap
     ethr =  2.19E-03,  avg # of iterations =  1.0

     negative rho (up, down):  4.585E-06 0.000E+00

     total cpu time spent up to now is        6.5 secs

     total energy              =     -31.16318809 Ry
     Harris-Foulkes estimate   =     -31.14509601 Ry
     estimated scf accuracy    <       1.46092330 Ry

     iteration # 65     ecut=    30.00 Ry     beta=0.70
     Davidson diagonalization with overlap
     ethr =  2.19E-03,  avg # of iterations =  1.0

     negative rho (up, down):  2.914E-08 0.000E+00

     total cpu time spent up to now is        6.5 secs

     total energy              =     -30.99546565 Ry
     Harris-Foulkes estimate   =     -31.16321110 Ry
     estimated scf accuracy    <       1.48899062 Ry

     iteration # 66     ecut=    30.00 Ry     beta=0.70
     Davidson diagonalization with overlap
     ethr =  2.19E-03,  avg # of iterations =  1.0

     negative rho (up, down):  7.526E-06 0.000E+00

     total cpu time spent up to now is        6.5 secs

     total energy              =     -31.01475220 Ry
     Harris-Foulkes estimate   =     -31.01728288 Ry
     estimated scf accuracy    <       0.06015405 Ry

     iteration # 67     ecut=    30.00 Ry     beta=0.70
     Davidson diagonalization with overlap
     ethr =  7.52E-04,  avg # of iterations =  1.0

     negative rho (up, down):  1.885E-05 0.000E+00

     total cpu time spent up to now is        6.5 secs

     total energy              =     -31.02473936 Ry
     Harris-Foulkes estimate   =     -31.01677956 Ry
     estimated scf accuracy    <       0.02283818 Ry

     iteration # 68     ecut=    30.00 Ry     beta=0.70
     Davidson diagonalization with overlap
     ethr =  2.85E-04,  avg # of iterations =  1.0

     negative rho (up, down):  1.654E-05 0.000E+00

     total cpu time spent up to now is        6.6 secs

     total energy              =     -30.96341064 Ry
     Harris-Foulkes estimate   =     -31.06203561 Ry
     estimated scf accuracy    <       1.64613276 Ry

     iteration # 69     ecut=    30.00 Ry     beta=0.70
     Davidson diagonalization with overlap
     ethr =  2.85E-04,  avg # of iterations =  1.0

     negative rho (up, down):  3.032E-07 0.000E+00

     total cpu time spent up to now is        6.6 secs

     total energy              =     -30.96660670 Ry
     Harris-Foulkes estimate   =     -31.02806589 Ry
     estimated scf accuracy    <       0.58459654 Ry

     iteration # 70     ecut=    30.00 Ry     beta=0.70
     Davidson diagonalization with overlap
     ethr =  2.85E-04,  avg # of iterations =  1.0

     negative rho (up, down):  2.479E-07 0.000E+00

     total cpu time spent up to now is        6.7 secs

     total energy              =     -31.04770669 Ry
     Harris-Foulkes estimate   =     -31.06803758 Ry
     estimated scf accuracy    <       1.55466067 Ry

     iteration # 71     ecut=    30.00 Ry     beta=0.70
     Davidson diagonalization with overlap
     ethr =  2.85E-04,  avg # of iterations =  1.0

     total cpu time spent up to now is        6.7 secs

     total energy              =     -31.02458267 Ry
     Harris-Foulkes estimate   =     -31.04688957 Ry
     estimated scf accuracy    <       1.68869315 Ry

     iteration # 72     ecut=    30.00 Ry     beta=0.70
     Davidson diagonalization with overlap
     ethr =  2.85E-04,  avg # of iterations =  1.0

     negative rho (up, down):  1.292E-08 0.000E+00

     total cpu time spent up to now is        6.7 secs

     total energy              =     -31.01655448 Ry
     Harris-Foulkes estimate   =     -31.02715227 Ry
     estimated scf accuracy    <       0.83152178 Ry

     iteration # 73     ecut=    30.00 Ry     beta=0.70
     Davidson diagonalization with overlap
     ethr =  2.85E-04,  avg # of iterations =  1.0

     negative rho (up, down):  1.180E-08 0.000E+00

     total cpu time spent up to now is        6.8 secs

     total energy              =     -31.01870525 Ry
     Harris-Foulkes estimate   =     -31.01907906 Ry
     estimated scf accuracy    <       0.21121044 Ry

     iteration # 74     ecut=    30.00 Ry     beta=0.70
     Davidson diagonalization with overlap
     ethr =  2.85E-04,  avg # of iterations =  1.0

     negative rho (up, down):  2.586E-08 0.000E+00

     total cpu time spent up to now is        6.8 secs

     total energy              =     -31.01312479 Ry
     Harris-Foulkes estimate   =     -31.01871927 Ry
     estimated scf accuracy    <       0.18143034 Ry

     iteration # 75     ecut=    30.00 Ry     beta=0.70
     Davidson diagonalization with overlap
     ethr =  2.85E-04,  avg # of iterations =  1.0

     total cpu time spent up to now is        6.8 secs

     total energy              =     -31.01607218 Ry
     Harris-Foulkes estimate   =     -31.01667304 Ry
     estimated scf accuracy    <       0.01183857 Ry

     iteration # 76     ecut=    30.00 Ry     beta=0.70
     Davidson diagonalization with overlap
     ethr =  1.48E-04,  avg # of iterations =  1.0

     total cpu time spent up to now is        6.9 secs

     total energy              =     -31.01660139 Ry
     Harris-Foulkes estimate   =     -31.01667259 Ry
     estimated scf accuracy    <       0.01228370 Ry

     iteration # 77     ecut=    30.00 Ry     beta=0.70
     Davidson diagonalization with overlap
     ethr =  1.48E-04,  avg # of iterations =  1.0

     total cpu time spent up to now is        6.9 secs

     total energy              =     -31.01681502 Ry
     Harris-Foulkes estimate   =     -31.01660977 Ry
     estimated scf accuracy    <       0.00721324 Ry

     iteration # 78     ecut=    30.00 Ry     beta=0.70
     Davidson diagonalization with overlap
     ethr =  9.02E-05,  avg # of iterations =  1.0

     total cpu time spent up to now is        6.9 secs

     total energy              =     -31.01686360 Ry
     Harris-Foulkes estimate   =     -31.01692971 Ry
     estimated scf accuracy    <       0.03323169 Ry

     iteration # 79     ecut=    30.00 Ry     beta=0.70
     Davidson diagonalization with overlap
     ethr =  9.02E-05,  avg # of iterations =  1.0

     total cpu time spent up to now is        7.0 secs

     total energy              =     -31.01636987 Ry
     Harris-Foulkes estimate   =     -31.01686624 Ry
     estimated scf accuracy    <       0.02807490 Ry

     iteration # 80     ecut=    30.00 Ry     beta=0.70
     Davidson diagonalization with overlap
     ethr =  9.02E-05,  avg # of iterations =  1.0

     total cpu time spent up to now is        7.0 secs

     total energy              =     -31.01650357 Ry
     Harris-Foulkes estimate   =     -31.01654769 Ry
     estimated scf accuracy    <       0.00222136 Ry

     iteration # 81     ecut=    30.00 Ry     beta=0.70
     Davidson diagonalization with overlap
     ethr =  2.78E-05,  avg # of iterations =  1.0

     total cpu time spent up to now is        7.0 secs

     total energy              =     -31.01652058 Ry
     Harris-Foulkes estimate   =     -31.01652130 Ry
     estimated scf accuracy    <       0.00009053 Ry

     iteration # 82     ecut=    30.00 Ry     beta=0.70
     Davidson diagonalization with overlap
     ethr =  1.13E-06,  avg # of iterations =  8.0

     total cpu time spent up to now is        7.1 secs

     total energy              =     -31.01652071 Ry
     Harris-Foulkes estimate   =     -31.01652071 Ry
     estimated scf accuracy    <       0.00004320 Ry

     iteration # 83     ecut=    30.00 Ry     beta=0.70
     Davidson diagonalization with overlap
     ethr =  5.40E-07,  avg # of iterations =  1.0

     total cpu time spent up to now is        7.1 secs

     total energy              =     -31.01651973 Ry
     Harris-Foulkes estimate   =     -31.01652073 Ry
     estimated scf accuracy    <       0.00005925 Ry

     iteration # 84     ecut=    30.00 Ry     beta=0.70
     Davidson diagonalization with overlap
     ethr =  5.40E-07,  avg # of iterations =  1.0

     total cpu time spent up to now is        7.1 secs

     total energy              =     -31.01651950 Ry
     Harris-Foulkes estimate   =     -31.01651996 Ry
     estimated scf accuracy    <       0.00001175 Ry

     iteration # 85     ecut=    30.00 Ry     beta=0.70
     Davidson diagonalization with overlap
     ethr =  1.47E-07,  avg # of iterations =  1.0

     total cpu time spent up to now is        7.2 secs

     total energy              =     -31.01651991 Ry
     Harris-Foulkes estimate   =     -31.01651970 Ry
     estimated scf accuracy    <       0.00000028 Ry

     iteration # 86     ecut=    30.00 Ry     beta=0.70
     Davidson diagonalization with overlap
     ethr =  3.50E-09,  avg # of iterations =  1.0

     total cpu time spent up to now is        7.3 secs

     total energy              =     -31.01652001 Ry
     Harris-Foulkes estimate   =     -31.01651991 Ry
     estimated scf accuracy    <       0.00000038 Ry

     iteration # 87     ecut=    30.00 Ry     beta=0.70
     Davidson diagonalization with overlap
     ethr =  3.50E-09,  avg # of iterations =  1.0

[...]
     Harris-Foulkes estimate   =   -1475.97558890 Ry
     estimated scf accuracy    <      22.30776134 Ry

     iteration # 59     ecut=    30.00 Ry     beta=0.70
     Davidson diagonalization with overlap
     ethr =  1.00E-02,  avg # of iterations =  9.0

     negative rho (up, down):  5.094E-03 0.000E+00

     total cpu time spent up to now is       10.6 secs

     total energy              =     -27.69612834 Ry
     Harris-Foulkes estimate   =     -63.74319305 Ry
     estimated scf accuracy    <      28.12569856 Ry

     iteration # 60     ecut=    30.00 Ry     beta=0.70
     Davidson diagonalization with overlap
     ethr =  1.00E-02,  avg # of iterations =  5.0

     negative rho (up, down):  3.280E-01 0.000E+00

     total cpu time spent up to now is       10.6 secs

     total energy              =   -2218.47095875 Ry
     Harris-Foulkes estimate   =    -136.20030115 Ry
     estimated scf accuracy    <      25.03403272 Ry

     iteration # 61     ecut=    30.00 Ry     beta=0.70
     Davidson diagonalization with overlap
     ethr =  1.00E-02,  avg # of iterations =  9.0

     negative rho (up, down):  3.683E-01 0.000E+00

     total cpu time spent up to now is       10.7 secs

     total energy              =      74.63113715 Ry
     Harris-Foulkes estimate   =  -17299.48351998 Ry
     estimated scf accuracy    <      24.91911052 Ry

     iteration # 62     ecut=    30.00 Ry     beta=0.70
     Davidson diagonalization with overlap
     ethr =  1.00E-02,  avg # of iterations =  9.0

     negative rho (up, down):  3.770E-01 0.000E+00

     total cpu time spent up to now is       10.8 secs

     total energy              =   -1072.58536406 Ry
     Harris-Foulkes estimate   =   -1566.81071081 Ry
     estimated scf accuracy    <      27.63578891 Ry

     iteration # 63     ecut=    30.00 Ry     beta=0.70
     Davidson diagonalization with overlap
     ethr =  1.00E-02,  avg # of iterations =  9.0

     negative rho (up, down):  3.596E-01 0.000E+00

     total cpu time spent up to now is       10.8 secs

     total energy              =      -7.20102952 Ry
     Harris-Foulkes estimate   =   -3586.42623413 Ry
     estimated scf accuracy    <      24.02409465 Ry

     iteration # 64     ecut=    30.00 Ry     beta=0.70
     Davidson diagonalization with overlap
     ethr =  1.00E-02,  avg # of iterations = 10.0

     negative rho (up, down):  2.642E-01 0.000E+00

     total cpu time spent up to now is       10.9 secs

     total energy              =     118.21240876 Ry
     Harris-Foulkes estimate   =   -2241.06027319 Ry
     estimated scf accuracy    <      20.35913842 Ry

     iteration # 65     ecut=    30.00 Ry     beta=0.70
     Davidson diagonalization with overlap
     ethr =  1.00E-02,  avg # of iterations =  6.0

     negative rho (up, down):  4.416E-01 0.000E+00

     total cpu time spent up to now is       10.9 secs

     total energy              =      95.70757145 Ry
     Harris-Foulkes estimate   =    -333.17045340 Ry
     estimated scf accuracy    <      34.33743342 Ry

     iteration # 66     ecut=    30.00 Ry     beta=0.70
     Davidson diagonalization with overlap
     ethr =  1.00E-02,  avg # of iterations =  5.0

     negative rho (up, down):  5.473E-01 0.000E+00

     total cpu time spent up to now is       11.0 secs

     total energy              =    -112.96390127 Ry
     Harris-Foulkes estimate   =    -438.52128903 Ry
     estimated scf accuracy    <      35.51974307 Ry

     iteration # 67     ecut=    30.00 Ry     beta=0.70
     Davidson diagonalization with overlap
     ethr =  1.00E-02,  avg # of iterations =  7.0

     negative rho (up, down):  5.853E-01 0.000E+00

     total cpu time spent up to now is       11.0 secs

     total energy              =      81.87379148 Ry
     Harris-Foulkes estimate   =  -12415.48519749 Ry
     estimated scf accuracy    <      31.47808394 Ry

     iteration # 68     ecut=    30.00 Ry     beta=0.70
     Davidson diagonalization with overlap
     ethr =  1.00E-02,  avg # of iterations =  7.0

     negative rho (up, down):  7.073E-01 0.000E+00

     total cpu time spent up to now is       11.1 secs

     total energy              =      85.72532802 Ry
     Harris-Foulkes estimate   =    -436.97004169 Ry
     estimated scf accuracy    <      32.27472905 Ry

     iteration # 69     ecut=    30.00 Ry     beta=0.70
     Davidson diagonalization with overlap
     ethr =  1.00E-02,  avg # of iterations =  9.0

     negative rho (up, down):  6.168E-01 0.000E+00

     total cpu time spent up to now is       11.2 secs

     total energy              =    -201.89254047 Ry
     Harris-Foulkes estimate   =    -176.22378185 Ry
     estimated scf accuracy    <      38.82922114 Ry

     iteration # 70     ecut=    30.00 Ry     beta=0.70
     Davidson diagonalization with overlap
     ethr =  1.00E-02,  avg # of iterations =  6.0

     negative rho (up, down):  6.560E-01 0.000E+00

     total cpu time spent up to now is       11.2 secs

     total energy              =    -185.77528354 Ry
     Harris-Foulkes estimate   =   -1747.75468046 Ry
     estimated scf accuracy    <      25.73594451 Ry

     iteration # 71     ecut=    30.00 Ry     beta=0.70
     Davidson diagonalization with overlap
     ethr =  1.00E-02,  avg # of iterations =  6.0

     negative rho (up, down):  2.535E-01 0.000E+00

     total cpu time spent up to now is       11.3 secs

     total energy              =    -148.72385916 Ry
     Harris-Foulkes estimate   =   -1199.03756523 Ry
     estimated scf accuracy    <      16.29568937 Ry

     iteration # 72     ecut=    30.00 Ry     beta=0.70
     Davidson diagonalization with overlap
     ethr =  1.00E-02,  avg # of iterations =  7.0

     negative rho (up, down):  5.416E-01 0.000E+00

     total cpu time spent up to now is       11.3 secs

     total energy              =   -2088.04641876 Ry
     Harris-Foulkes estimate   =   -3697.13974276 Ry
     estimated scf accuracy    <      36.71222477 Ry

     iteration # 73     ecut=    30.00 Ry     beta=0.70
     Davidson diagonalization with overlap
     ethr =  1.00E-02,  avg # of iterations = 12.0

     negative rho (up, down):  4.178E-01 0.000E+00

     total cpu time spent up to now is       11.4 secs

     total energy              =  -10390.86610963 Ry
     Harris-Foulkes estimate   =   -8464.52172421 Ry
     estimated scf accuracy    <      24.21710288 Ry

     iteration # 74     ecut=    30.00 Ry     beta=0.70
     Davidson diagonalization with overlap
     ethr =  1.00E-02,  avg # of iterations = 10.0

     negative rho (up, down):  3.420E-01 0.000E+00

     total cpu time spent up to now is       11.5 secs

     total energy              =     129.02469307 Ry
     Harris-Foulkes estimate   =  -15282.91817723 Ry
     estimated scf accuracy    <      22.74076155 Ry

     iteration # 75     ecut=    30.00 Ry     beta=0.70
     Davidson diagonalization with overlap
     ethr =  1.00E-02,  avg # of iterations =  8.0

     negative rho (up, down):  2.595E-01 0.000E+00

     total cpu time spent up to now is       11.5 secs

     total energy              =     110.91404180 Ry
     Harris-Foulkes estimate   =    -975.19511256 Ry
     estimated scf accuracy    <      21.51093170 Ry

     iteration # 76     ecut=    30.00 Ry     beta=0.70
     Davidson diagonalization with overlap
     ethr =  1.00E-02,  avg # of iterations =  8.0

     negative rho (up, down):  1.521E-01 0.000E+00

     total cpu time spent up to now is       11.6 secs

     total energy              =     134.40659773 Ry
     Harris-Foulkes estimate   =    -200.95505970 Ry
     estimated scf accuracy    <      23.51664506 Ry

     iteration # 77     ecut=    30.00 Ry     beta=0.70
     Davidson diagonalization with overlap
     ethr =  1.00E-02,  avg # of iterations =  7.0

     negative rho (up, down):  1.347E-01 0.000E+00

     total cpu time spent up to now is       11.6 secs

     total energy              =    -151.45798887 Ry
     Harris-Foulkes estimate   =    -940.75881184 Ry
     estimated scf accuracy    <      25.09538357 Ry

     iteration # 78     ecut=    30.00 Ry     beta=0.70
     Davidson diagonalization with overlap
     ethr =  1.00E-02,  avg # of iterations =  4.0

     negative rho (up, down):  2.702E-02 0.000E+00

     total cpu time spent up to now is       11.7 secs

     total energy              =     137.92208673 Ry
     Harris-Foulkes estimate   =   -1644.67844366 Ry
     estimated scf accuracy    <      25.46363562 Ry

     iteration # 79     ecut=    30.00 Ry     beta=0.70
     Davidson diagonalization with overlap
     ethr =  1.00E-02,  avg # of iterations = 10.0

     negative rho (up, down):  1.556E-01 0.000E+00

     total cpu time spent up to now is       11.7 secs

     total energy              =    -260.85670583 Ry
     Harris-Foulkes estimate   =    -198.55269886 Ry
     estimated scf accuracy    <      28.62566356 Ry

     iteration # 80     ecut=    30.00 Ry     beta=0.70
     Davidson diagonalization with overlap
     ethr =  1.00E-02,  avg # of iterations =  6.0

     negative rho (up, down):  2.913E-01 0.000E+00

     total cpu time spent up to now is       11.8 secs

     total energy              =    -253.80406545 Ry
     Harris-Foulkes estimate   =   -2901.77072191 Ry
     estimated scf accuracy    <      28.46684666 Ry

     iteration # 81     ecut=    30.00 Ry     beta=0.70
     Davidson diagonalization with overlap
     ethr =  1.00E-02,  avg # of iterations =  7.0

     negative rho (up, down):  6.803E-02 0.000E+00

     total cpu time spent up to now is       11.8 secs

     total energy              =     136.27907986 Ry
     Harris-Foulkes estimate   =   -1632.33987417 Ry
     estimated scf accuracy    <      21.76453215 Ry

     iteration # 82     ecut=    30.00 Ry     beta=0.70
     Davidson diagonalization with overlap
     ethr =  1.00E-02,  avg # of iterations =  9.0

     negative rho (up, down):  2.261E-01 0.000E+00

     total cpu time spent up to now is       11.9 secs

     total energy              =      30.73839411 Ry
     Harris-Foulkes estimate   =    -845.50902013 Ry
     estimated scf accuracy    <      20.57187789 Ry

     iteration # 83     ecut=    30.00 Ry     beta=0.70
     Davidson diagonalization with overlap
     ethr =  1.00E-02,  avg # of iterations =  6.0

     negative rho (up, down):  9.227E-02 0.000E+00

     total cpu time spent up to now is       12.0 secs

     total energy              =     114.49224578 Ry
     Harris-Foulkes estimate   =   -2383.25340064 Ry
     estimated scf accuracy    <      22.01113077 Ry

     iteration # 84     ecut=    30.00 Ry     beta=0.70
     Davidson diagonalization with overlap
     ethr =  1.00E-02,  avg # of iterations = 11.0

     negative rho (up, down):  3.301E-02 0.000E+00

     total cpu time spent up to now is       12.0 secs

     total energy              =     -22.77803818 Ry
     Harris-Foulkes estimate   =    -228.96491593 Ry
     estimated scf accuracy    <      42.65620968 Ry

     iteration # 85     ecut=    30.00 Ry     beta=0.70
     Davidson diagonalization with overlap
     ethr =  1.00E-02,  avg # of iterations =  5.0

     negative rho (up, down):  2.998E-01 0.000E+00

     total cpu time spent up to now is       12.1 secs

     total energy              =      28.76294302 Ry
     Harris-Foulkes estimate   =    -735.88131217 Ry
     estimated scf accuracy    <      19.27178631 Ry

     iteration # 86     ecut=    30.00 Ry     beta=0.70
     Davidson diagonalization with overlap
     ethr =  1.00E-02,  avg # of iterations =  8.0

     negative rho (up, down):  1.831E-01 0.000E+00

     total cpu time spent up to now is       12.1 secs

     total energy              =      58.11645961 Ry
     Harris-Foulkes estimate   =    -509.88011486 Ry
     estimated scf accuracy    <      20.67612256 Ry

     iteration # 87     ecut=    30.00 Ry     beta=0.70
     Davidson diagonalization with overlap
     ethr =  1.00E-02,  avg # of iterations =  7.0

     negative rho (up, down):  1.824E-01 0.000E+00

     total cpu time spent up to now is       12.2 secs

     total energy              =      17.34158096 Ry
     Harris-Foulkes estimate   =    -172.68374120 Ry
     estimated scf accuracy    <      23.32334069 Ry

     iteration # 88     ecut=    30.00 Ry     beta=0.70
     Davidson diagonalization with overlap
     ethr =  1.00E-02,  avg # of iterations =  9.0

     negative rho (up, down):  9.508E-02 0.000E+00

     total cpu time spent up to now is       12.3 secs

     total energy              =     -68.69092280 Ry
     Harris-Foulkes estimate   =     -71.88132252 Ry
     estimated scf accuracy    <      55.14309528 Ry

     iteration # 89     ecut=    30.00 Ry     beta=0.70
     Davidson diagonalization with overlap
     ethr =  1.00E-02,  avg # of iterations =  1.0

     negative rho (up, down):  6.217E-01 0.000E+00

     total cpu time spent up to now is       12.3 secs

     total energy              =     -63.35649199 Ry
     Harris-Foulkes estimate   =     -68.69679357 Ry
     estimated scf accuracy    <      51.55579651 Ry

     iteration # 90     ecut=    30.00 Ry     beta=0.70
     Davidson diagonalization with overlap
     ethr =  1.00E-02,  avg # of iterations =  1.0

     negative rho (up, down):  1.080E+00 0.000E+00

     total cpu time spent up to now is       12.3 secs

     total energy              =     -59.68163081 Ry
     Harris-Foulkes estimate   =     -63.40431340 Ry
     estimated scf accuracy    <      44.31321317 Ry

     iteration # 91     ecut=    30.00 Ry     beta=0.70
     Davidson diagonalization with overlap
     ethr =  1.00E-02,  avg # of iterations =  9.0

     negative rho (up, down):  1.334E+00 0.000E+00

     total cpu time spent up to now is       12.4 secs

     total energy              =   -2251.91260540 Ry
     Harris-Foulkes estimate   =   -2709.75013517 Ry
     estimated scf accuracy    <      66.59345074 Ry

     iteration # 92     ecut=    30.00 Ry     beta=0.70
     Davidson diagonalization with overlap
     ethr =  1.00E-02,  avg # of iterations =  5.0

     negative rho (up, down):  1.334E+00 0.000E+00

     total cpu time spent up to now is       12.4 secs

     total energy              =      93.73338383 Ry
     Harris-Foulkes estimate   =   -2953.42525629 Ry
     estimated scf accuracy    <      59.45725952 Ry

     iteration # 93     ecut=    30.00 Ry     beta=0.70
     Davidson diagonalization with overlap
     ethr =  1.00E-02,  avg # of iterations =  9.0

     negative rho (up, down):  2.571E-01 0.000E+00

     total cpu time spent up to now is       12.5 secs

     total energy              =   46115.94656781 Ry
     Harris-Foulkes estimate   =    -572.14448986 Ry
     estimated scf accuracy    <      42.61601187 Ry

     iteration # 94     ecut=    30.00 Ry     beta=0.70
     Davidson diagonalization with overlap
     ethr =  1.00E-02,  avg # of iterations = 11.0

     negative rho (up, down):  5.702E-01 0.000E+00

     total cpu time spent up to now is       12.6 secs

     total energy              =      15.93714364 Ry
     Harris-Foulkes estimate   =    -313.57925036 Ry
     estimated scf accuracy    <      20.91225673 Ry

     iteration # 95     ecut=    30.00 Ry     beta=0.70
     Davidson diagonalization with overlap
     ethr =  1.00E-02,  avg # of iterations =  9.0

     negative rho (up, down):  4.786E-01 0.000E+00

     total cpu time spent up to now is       12.6 secs

     total energy              =     -56.42349507 Ry
     Harris-Foulkes estimate   =    -249.94983124 Ry
     estimated scf accuracy    <      38.05437962 Ry

     iteration # 96     ecut=    30.00 Ry     beta=0.70
     Davidson diagonalization with overlap
     ethr =  1.00E-02,  avg # of iterations =  9.0

     negative rho (up, down):  4.358E-01 0.000E+00

     total cpu time spent up to now is       12.7 secs

     total energy              =      94.57957655 Ry
     Harris-Foulkes estimate   =  -17943.55384449 Ry
     estimated scf accuracy    <      22.98120968 Ry

     iteration # 97     ecut=    30.00 Ry     beta=0.70
     Davidson diagonalization with overlap
     ethr =  1.00E-02,  avg # of iterations = 13.0

     negative rho (up, down):  5.142E-01 0.000E+00

     total cpu time spent up to now is       12.8 secs

     total energy              =    -179.72712741 Ry
     Harris-Foulkes estimate   =   -1555.85918278 Ry
     estimated scf accuracy    <      31.99675172 Ry

     iteration # 98     ecut=    30.00 Ry     beta=0.70
     Davidson diagonalization with overlap
     ethr =  1.00E-02,  avg # of iterations =  9.0

     negative rho (up, down):  7.120E-01 0.000E+00

     total cpu time spent up to now is       12.8 secs

     total energy              =    -638.47041547 Ry
     Harris-Foulkes estimate   =    -940.48537703 Ry
     estimated scf accuracy    <      42.08379867 Ry

     iteration # 99     ecut=    30.00 Ry     beta=0.70
     Davidson diagonalization with overlap
     ethr =  1.00E-02,  avg # of iterations =  6.0

     negative rho (up, down):  7.993E-01 0.000E+00

     total cpu time spent up to now is       12.9 secs

     total energy              =     171.12407193 Ry
     Harris-Foulkes estimate   =   -3587.40431717 Ry
     estimated scf accuracy    <      26.93529671 Ry

     iteration #100     ecut=    30.00 Ry     beta=0.70
     Davidson diagonalization with overlap
     ethr =  1.00E-02,  avg # of iterations = 11.0

     negative rho (up, down):  7.207E-01 0.000E+00

     total cpu time spent up to now is       12.9 secs

     total energy              =    -294.60827901 Ry
     Harris-Foulkes estimate   =    -273.68232152 Ry
     estimated scf accuracy    <      21.85321469 Ry

     End of self-consistent calculation

     convergence NOT achieved after 100 iterations: stopping

     Writing output data file pwscf.save
 
     init_run     :      0.09s CPU      0.11s WALL (       1 calls)
     electrons    :      9.49s CPU     11.90s WALL (       4 calls)
     update_pot   :      0.35s CPU      0.51s WALL (       3 calls)
     forces       :      0.08s CPU      0.08s WALL (       3 calls)

     Called by init_run:
     wfcinit      :      0.01s CPU      0.02s WALL (       1 calls)
     potinit      :      0.02s CPU      0.03s WALL (       1 calls)

     Called by electrons:
     c_bands      :      4.54s CPU      4.77s WALL (     279 calls)
     sum_band     :      0.80s CPU      0.88s WALL (     279 calls)
     v_of_rho     :      1.96s CPU      2.09s WALL (     283 calls)
     mix_rho      :      1.96s CPU      3.51s WALL (     279 calls)

     Called by c_bands:
     init_us_2    :      0.03s CPU      0.03s WALL (     559 calls)
     cegterg      :      4.48s CPU      4.63s WALL (     279 calls)

     Called by sum_band:

     Called by *egterg:
     h_psi        :      3.78s CPU      3.90s WALL (    1299 calls)
     g_psi        :      0.04s CPU      0.04s WALL (    1019 calls)
     cdiaghg      :      0.26s CPU      0.26s WALL (    1295 calls)

     Called by h_psi:
     h_psi:pot    :      3.76s CPU      3.88s WALL (    1299 calls)
     h_psi:calbec :      0.06s CPU      0.06s WALL (    1299 calls)
     vloc_psi     :      3.68s CPU      3.79s WALL (    1299 calls)
     add_vuspsi   :      0.01s CPU      0.01s WALL (    1299 calls)

     General routines
     calbec       :      0.07s CPU      0.08s WALL (    1313 calls)
     fft          :      1.27s CPU      1.37s WALL (    3119 calls)
     fftw         :      3.82s CPU      3.99s WALL (   17270 calls)
     davcio       :      0.29s CPU      1.31s WALL (    5237 calls)
 
     Parallel routines
     fft_scatter  :      1.97s CPU      2.15s WALL (   20389 calls)
 
     PWSCF        :    10.18s CPU        13.03s WALL

 
   This run was terminated on:   8: 3:54  14Feb2018            

=------------------------------------------------------------------------------=
   JOB DONE.
=------------------------------------------------------------------------------=
