
     Program PWSCF v.6.0 (svn rev. 13079) starts on 14Feb2018 at  8: 7:34 

     This program is part of the open-source Quantum ESPRESSO suite
     for quantum simulation of materials; please cite
         "P. Giannozzi et al., J. Phys.:Condens. Matter 21 395502 (2009);
          URL http://www.quantum-espresso.org", 
     in publications or presentations arising from this work. More details at
     http://www.quantum-espresso.org/quote

     Parallel version (MPI), running on    28 processors
     R & G space division:  proc/nbgrp/npool/nimage =      28
     Reading input from inputs/MD-H2O-2/282.in

     Current dimensions of program PWSCF are:
     Max number of different atomic species (ntypx) = 10
     Max number of k-points (npk) =  40000
     Max angular momentum in pseudopotentials (lmaxx) =  3

     Subspace diagonalization in iterative solution of the eigenvalue problem:
     a serial algorithm will be used

 
     Parallelization info
     --------------------
     sticks:   dense  smooth     PW     G-vecs:    dense   smooth      PW
     Min         136     136     33                 6338     6338     787
     Max         137     137     34                 6341     6341     792
     Sum        3809    3809    949               177509   177509   22119
 


     bravais-lattice index     =            1
     lattice parameter (alat)  =      20.0000  a.u.
     unit-cell volume          =    8000.0000 (a.u.)^3
     number of atoms/cell      =            3
     number of atomic types    =            2
     number of electrons       =         8.00
     number of Kohn-Sham states=            8
     kinetic-energy cutoff     =      30.0000  Ry
     charge density cutoff     =     120.0000  Ry
     convergence threshold     =      1.0E-08
     mixing beta               =       0.7000
     number of iterations used =            8  plain     mixing
     Exchange-correlation      = BLYP ( 1  3  1  3 0 0)
     nstep                     =         5000


     celldm(1)=  20.000000  celldm(2)=   0.000000  celldm(3)=   0.000000
     celldm(4)=   0.000000  celldm(5)=   0.000000  celldm(6)=   0.000000

     crystal axes: (cart. coord. in units of alat)
               a(1) = (   1.000000   0.000000   0.000000 )  
               a(2) = (   0.000000   1.000000   0.000000 )  
               a(3) = (   0.000000   0.000000   1.000000 )  

     reciprocal axes: (cart. coord. in units 2 pi/alat)
               b(1) = (  1.000000  0.000000  0.000000 )  
               b(2) = (  0.000000  1.000000  0.000000 )  
               b(3) = (  0.000000  0.000000  1.000000 )  


     PseudoPot. # 1 for  H read from file:
     ./H.blyp-hgh.UPF
     MD5 check sum: c576e69559cde411e611be972c763230
     Pseudo is Norm-conserving, Zval =  1.0
     Generated in analytical, separable form
     Using radial grid of  929 points,  0 beta functions with: 

     PseudoPot. # 2 for  O read from file:
     ./O.blyp-hgh.UPF
     MD5 check sum: d0b7156309aa9befef28faac7bc56342
     Pseudo is Norm-conserving, Zval =  6.0
     Generated in analytical, separable form
     Using radial grid of 1095 points,  1 beta functions with: 
                l(1) =   0

     atomic species   valence    mass     pseudopotential
        H              1.00     1.01000      H( 1.00)
        O              6.00    16.00000      O( 1.00)

     No symmetry found



   Cartesian axes

     site n.     atom                  positions (alat units)
         1           H   tau(   1) = (   0.1096287  -0.4933705   0.3758561  )
         2           H   tau(   2) = (   0.4475288  -1.4742849   1.3092076  )
         3           O   tau(   3) = (   0.4236120   0.4399350   0.3532923  )

     number of k points=     1  Marzari-Vanderbilt smearing, width (Ry)=  0.0250
                       cart. coord. in units 2pi/alat
        k(    1) = (   0.0000000   0.0000000   0.0000000), wk =   2.0000000

     Dense  grid:   177509 G-vectors     FFT dimensions: (  72,  72,  72)

     Estimated max dynamical RAM per process >       6.09Mb

     Estimated total allocated dynamical RAM >     170.64Mb

     Initial potential from superposition of free atoms
     Check: negative starting charge=   -0.343473

     starting charge    7.99998, renormalised to    8.00000

     negative rho (up, down):  3.435E-01 0.000E+00
     Starting wfc are    6 randomized atomic wfcs +    2 random wfc

     total cpu time spent up to now is        0.3 secs

     per-process dynamical memory:    18.8 Mb

     Self-consistent Calculation

     iteration #  1     ecut=    30.00 Ry     beta=0.70
     Davidson diagonalization with overlap
     ethr =  1.00E-02,  avg # of iterations =  6.0

     negative rho (up, down):  9.118E-02 0.000E+00

     total cpu time spent up to now is        0.4 secs

     total energy              =     -31.05238703 Ry
     Harris-Foulkes estimate   =     -32.23185582 Ry
     estimated scf accuracy    <       1.33055464 Ry

     iteration #  2     ecut=    30.00 Ry     beta=0.70
     Davidson diagonalization with overlap
     ethr =  1.00E-02,  avg # of iterations =  3.0

     negative rho (up, down):  6.760E-02 0.000E+00

     total cpu time spent up to now is        0.4 secs

     total energy              =     -32.03100650 Ry
     Harris-Foulkes estimate   =     -33.55712872 Ry
     estimated scf accuracy    <       3.94367330 Ry

     iteration #  3     ecut=    30.00 Ry     beta=0.70
     Davidson diagonalization with overlap
     ethr =  1.00E-02,  avg # of iterations =  2.0

     negative rho (up, down):  6.801E-02 0.000E+00

     total cpu time spent up to now is        0.4 secs

     total energy              =     -32.21083856 Ry
     Harris-Foulkes estimate   =     -32.20187643 Ry
     estimated scf accuracy    <       1.24530121 Ry

     iteration #  4     ecut=    30.00 Ry     beta=0.70
     Davidson diagonalization with overlap
     ethr =  1.00E-02,  avg # of iterations =  1.0

     negative rho (up, down):  6.026E-02 0.000E+00

     total cpu time spent up to now is        0.4 secs

     total energy              =     -32.01536417 Ry
     Harris-Foulkes estimate   =     -32.21107151 Ry
     estimated scf accuracy    <       1.25988721 Ry

     iteration #  5     ecut=    30.00 Ry     beta=0.70
     Davidson diagonalization with overlap
     ethr =  1.00E-02,  avg # of iterations =  1.0

     negative rho (up, down):  2.592E-02 0.000E+00

     total cpu time spent up to now is        0.5 secs

     total energy              =     -31.51417086 Ry
     Harris-Foulkes estimate   =     -32.01191926 Ry
     estimated scf accuracy    <       0.91499764 Ry

     iteration #  6     ecut=    30.00 Ry     beta=0.70
     Davidson diagonalization with overlap
     ethr =  1.00E-02,  avg # of iterations =  2.0

     negative rho (up, down):  9.851E-03 0.000E+00

     total cpu time spent up to now is        0.5 secs

     total energy              =     -32.58032443 Ry
     Harris-Foulkes estimate   =     -32.79799848 Ry
     estimated scf accuracy    <       2.79926503 Ry

     iteration #  7     ecut=    30.00 Ry     beta=0.70
     Davidson diagonalization with overlap
     ethr =  1.00E-02,  avg # of iterations =  1.0

     negative rho (up, down):  9.508E-03 0.000E+00

     total cpu time spent up to now is        0.6 secs

     total energy              =     -32.56973975 Ry
     Harris-Foulkes estimate   =     -32.58570492 Ry
     estimated scf accuracy    <       2.35263567 Ry

     iteration #  8     ecut=    30.00 Ry     beta=0.70
     Davidson diagonalization with overlap
     ethr =  1.00E-02,  avg # of iterations =  1.0

     negative rho (up, down):  2.771E-03 0.000E+00

     total cpu time spent up to now is        0.6 secs

     total energy              =     -32.34559414 Ry
     Harris-Foulkes estimate   =     -32.57000178 Ry
     estimated scf accuracy    <       2.31955678 Ry

     iteration #  9     ecut=    30.00 Ry     beta=0.70
     Davidson diagonalization with overlap
     ethr =  1.00E-02,  avg # of iterations =  1.0

     negative rho (up, down):  1.391E-04 0.000E+00

     total cpu time spent up to now is        0.6 secs

     total energy              =     -31.93409084 Ry
     Harris-Foulkes estimate   =     -32.34946655 Ry
     estimated scf accuracy    <       1.87648291 Ry

     iteration # 10     ecut=    30.00 Ry     beta=0.70
     Davidson diagonalization with overlap
     ethr =  1.00E-02,  avg # of iterations =  1.0

     negative rho (up, down):  3.869E-03 0.000E+00

     total cpu time spent up to now is        0.7 secs

     total energy              =     -31.97024339 Ry
     Harris-Foulkes estimate   =     -31.96216828 Ry
     estimated scf accuracy    <       0.22847926 Ry

     iteration # 11     ecut=    30.00 Ry     beta=0.70
     Davidson diagonalization with overlap
     ethr =  2.86E-03,  avg # of iterations =  1.0

     negative rho (up, down):  4.258E-03 0.000E+00

     total cpu time spent up to now is        0.7 secs

     total energy              =     -32.04670157 Ry
     Harris-Foulkes estimate   =     -31.97793271 Ry
     estimated scf accuracy    <       0.97781136 Ry

     iteration # 12     ecut=    30.00 Ry     beta=0.70
     Davidson diagonalization with overlap
     ethr =  2.86E-03,  avg # of iterations =  1.0

     negative rho (up, down):  2.585E-03 0.000E+00

     total cpu time spent up to now is        0.7 secs

     total energy              =     -31.84157378 Ry
     Harris-Foulkes estimate   =     -32.05045722 Ry
     estimated scf accuracy    <       1.23033503 Ry

     iteration # 13     ecut=    30.00 Ry     beta=0.70
     Davidson diagonalization with overlap
     ethr =  2.86E-03,  avg # of iterations =  1.0

     negative rho (up, down):  8.116E-04 0.000E+00

     total cpu time spent up to now is        0.8 secs

     total energy              =     -32.01252111 Ry
     Harris-Foulkes estimate   =     -32.02386959 Ry
     estimated scf accuracy    <       0.77667252 Ry

     iteration # 14     ecut=    30.00 Ry     beta=0.70
     Davidson diagonalization with overlap
     ethr =  2.86E-03,  avg # of iterations =  1.0

     negative rho (up, down):  3.933E-04 0.000E+00

     total cpu time spent up to now is        0.8 secs

     total energy              =     -31.98532030 Ry
     Harris-Foulkes estimate   =     -32.01273704 Ry
     estimated scf accuracy    <       0.75345354 Ry

     iteration # 15     ecut=    30.00 Ry     beta=0.70
     Davidson diagonalization with overlap
     ethr =  2.86E-03,  avg # of iterations =  1.0

     negative rho (up, down):  3.959E-04 0.000E+00

     total cpu time spent up to now is        0.8 secs

     total energy              =     -31.99131635 Ry
     Harris-Foulkes estimate   =     -31.98603147 Ry
     estimated scf accuracy    <       0.63256249 Ry

     iteration # 16     ecut=    30.00 Ry     beta=0.70
     Davidson diagonalization with overlap
     ethr =  2.86E-03,  avg # of iterations =  1.0

     negative rho (up, down):  5.555E-04 0.000E+00

     total cpu time spent up to now is        0.9 secs

     total energy              =     -31.98355328 Ry
     Harris-Foulkes estimate   =     -31.99137879 Ry
     estimated scf accuracy    <       0.66688095 Ry

     iteration # 17     ecut=    30.00 Ry     beta=0.70
     Davidson diagonalization with overlap
     ethr =  2.86E-03,  avg # of iterations =  1.0

     negative rho (up, down):  7.788E-04 0.000E+00

     total cpu time spent up to now is        0.9 secs

     total energy              =     -32.02636510 Ry
     Harris-Foulkes estimate   =     -31.98380805 Ry
     estimated scf accuracy    <       0.62839411 Ry

     iteration # 18     ecut=    30.00 Ry     beta=0.70
     Davidson diagonalization with overlap
     ethr =  2.86E-03,  avg # of iterations =  1.0

     negative rho (up, down):  8.623E-04 0.000E+00

     total cpu time spent up to now is        0.9 secs

     total energy              =     -32.08000290 Ry
     Harris-Foulkes estimate   =     -32.02923342 Ry
     estimated scf accuracy    <       0.83166899 Ry

     iteration # 19     ecut=    30.00 Ry     beta=0.70
     Davidson diagonalization with overlap
     ethr =  2.86E-03,  avg # of iterations =  1.0

     negative rho (up, down):  5.442E-04 0.000E+00

     total cpu time spent up to now is        1.0 secs

     total energy              =     -32.22615435 Ry
     Harris-Foulkes estimate   =     -32.08092432 Ry
     estimated scf accuracy    <       0.95405314 Ry

     iteration # 20     ecut=    30.00 Ry     beta=0.70
     Davidson diagonalization with overlap
     ethr =  2.86E-03,  avg # of iterations =  1.0

     negative rho (up, down):  5.233E-06 0.000E+00

     total cpu time spent up to now is        1.0 secs

     total energy              =     -32.04446901 Ry
     Harris-Foulkes estimate   =     -32.22887010 Ry
     estimated scf accuracy    <       1.21675811 Ry

     iteration # 21     ecut=    30.00 Ry     beta=0.70
     Davidson diagonalization with overlap
     ethr =  2.86E-03,  avg # of iterations =  1.0

     negative rho (up, down):  3.851E-03 0.000E+00

     total cpu time spent up to now is        1.1 secs

     total energy              =     -32.65558494 Ry
     Harris-Foulkes estimate   =     -32.04836686 Ry
     estimated scf accuracy    <       0.88497157 Ry

     iteration # 22     ecut=    30.00 Ry     beta=0.70
     Davidson diagonalization with overlap
     ethr =  2.86E-03,  avg # of iterations =  2.0

     negative rho (up, down):  2.242E-03 0.000E+00

     total cpu time spent up to now is        1.1 secs

     total energy              =     -32.06044268 Ry
     Harris-Foulkes estimate   =     -32.70006472 Ry
     estimated scf accuracy    <       1.96979284 Ry

     iteration # 23     ecut=    30.00 Ry     beta=0.70
     Davidson diagonalization with overlap
     ethr =  2.86E-03,  avg # of iterations =  1.0

     negative rho (up, down):  2.066E-03 0.000E+00

     total cpu time spent up to now is        1.2 secs

     total energy              =     -31.92415164 Ry
     Harris-Foulkes estimate   =     -32.07056979 Ry
     estimated scf accuracy    <       0.96859409 Ry

     iteration # 24     ecut=    30.00 Ry     beta=0.70
     Davidson diagonalization with overlap
     ethr =  2.86E-03,  avg # of iterations =  1.0

     negative rho (up, down):  8.811E-05 0.000E+00

     total cpu time spent up to now is        1.2 secs

     total energy              =     -31.98012303 Ry
     Harris-Foulkes estimate   =     -31.96149955 Ry
     estimated scf accuracy    <       0.18825672 Ry

     iteration # 25     ecut=    30.00 Ry     beta=0.70
     Davidson diagonalization with overlap
     ethr =  2.35E-03,  avg # of iterations =  1.0

     negative rho (up, down):  1.060E-05 0.000E+00

     total cpu time spent up to now is        1.2 secs

     total energy              =     -31.95591726 Ry
     Harris-Foulkes estimate   =     -31.99988413 Ry
     estimated scf accuracy    <       1.08206866 Ry

     iteration # 26     ecut=    30.00 Ry     beta=0.70
     Davidson diagonalization with overlap
     ethr =  2.35E-03,  avg # of iterations =  1.0

     negative rho (up, down):  1.054E-06 0.000E+00

     total cpu time spent up to now is        1.3 secs

     total energy              =     -31.94124628 Ry
     Harris-Foulkes estimate   =     -31.96204864 Ry
     estimated scf accuracy    <       0.23059006 Ry

     iteration # 27     ecut=    30.00 Ry     beta=0.70
     Davidson diagonalization with overlap
     ethr =  2.35E-03,  avg # of iterations =  1.0

     negative rho (up, down):  7.148E-06 0.000E+00

     total cpu time spent up to now is        1.3 secs

     total energy              =     -31.95335783 Ry
     Harris-Foulkes estimate   =     -31.96890597 Ry
     estimated scf accuracy    <       0.40587596 Ry

     iteration # 28     ecut=    30.00 Ry     beta=0.70
     Davidson diagonalization with overlap
     ethr =  2.35E-03,  avg # of iterations =  1.0

     negative rho (up, down):  9.810E-07 0.000E+00

     total cpu time spent up to now is        1.4 secs

     total energy              =     -31.96716715 Ry
     Harris-Foulkes estimate   =     -31.95861050 Ry
     estimated scf accuracy    <       0.01744008 Ry

     iteration # 29     ecut=    30.00 Ry     beta=0.70
     Davidson diagonalization with overlap
     ethr =  2.18E-04,  avg # of iterations =  1.0

     negative rho (up, down):  1.551E-07 0.000E+00

     total cpu time spent up to now is        1.4 secs

     total energy              =     -31.97543542 Ry
     Harris-Foulkes estimate   =     -31.99363720 Ry
     estimated scf accuracy    <       0.69647308 Ry

     iteration # 30     ecut=    30.00 Ry     beta=0.70
     Davidson diagonalization with overlap
     ethr =  2.18E-04,  avg # of iterations =  1.0

     negative rho (up, down):  5.053E-07 0.000E+00

     total cpu time spent up to now is        1.4 secs

     total energy              =     -31.96303420 Ry
     Harris-Foulkes estimate   =     -31.97613122 Ry
     estimated scf accuracy    <       0.55002237 Ry

     iteration # 31     ecut=    30.00 Ry     beta=0.70
     Davidson diagonalization with overlap
     ethr =  2.18E-04,  avg # of iterations =  1.0

     negative rho (up, down):  5.811E-07 0.000E+00

     total cpu time spent up to now is        1.5 secs

     total energy              =     -31.96381979 Ry
     Harris-Foulkes estimate   =     -31.96454622 Ry
     estimated scf accuracy    <       0.28007399 Ry

     iteration # 32     ecut=    30.00 Ry     beta=0.70
     Davidson diagonalization with overlap
     ethr =  2.18E-04,  avg # of iterations =  1.0

     negative rho (up, down):  5.998E-07 0.000E+00

     total cpu time spent up to now is        1.5 secs

     total energy              =     -31.96403215 Ry
     Harris-Foulkes estimate   =     -31.96383697 Ry
     estimated scf accuracy    <       0.25453885 Ry

     iteration # 33     ecut=    30.00 Ry     beta=0.70
     Davidson diagonalization with overlap
     ethr =  2.18E-04,  avg # of iterations =  1.0

     negative rho (up, down):  5.803E-07 0.000E+00

     total cpu time spent up to now is        1.5 secs

     total energy              =     -31.96400380 Ry
     Harris-Foulkes estimate   =     -31.96403362 Ry
     estimated scf accuracy    <       0.26139047 Ry

     iteration # 34     ecut=    30.00 Ry     beta=0.70
     Davidson diagonalization with overlap
     ethr =  2.18E-04,  avg # of iterations =  1.0

     negative rho (up, down):  6.788E-07 0.000E+00

     total cpu time spent up to now is        1.6 secs

     total energy              =     -31.96410206 Ry
     Harris-Foulkes estimate   =     -31.96400386 Ry
     estimated scf accuracy    <       0.26033045 Ry

     iteration # 35     ecut=    30.00 Ry     beta=0.70
     Davidson diagonalization with overlap
     ethr =  2.18E-04,  avg # of iterations =  1.0

     negative rho (up, down):  6.435E-07 0.000E+00

     total cpu time spent up to now is        1.6 secs

     total energy              =     -31.96368444 Ry
     Harris-Foulkes estimate   =     -31.96410289 Ry
     estimated scf accuracy    <       0.26342470 Ry

     iteration # 36     ecut=    30.00 Ry     beta=0.70
     Davidson diagonalization with overlap
     ethr =  2.18E-04,  avg # of iterations =  1.0

     negative rho (up, down):  5.012E-08 0.000E+00

     total cpu time spent up to now is        1.7 secs

     total energy              =     -31.94993818 Ry
     Harris-Foulkes estimate   =     -31.96369034 Ry
     estimated scf accuracy    <       0.24829607 Ry

     iteration # 37     ecut=    30.00 Ry     beta=0.70
     Davidson diagonalization with overlap
     ethr =  2.18E-04,  avg # of iterations =  1.0

     total cpu time spent up to now is        1.7 secs

     total energy              =     -31.96106816 Ry
     Harris-Foulkes estimate   =     -31.95923668 Ry
     estimated scf accuracy    <       0.05969609 Ry

     iteration # 38     ecut=    30.00 Ry     beta=0.70
     Davidson diagonalization with overlap
     ethr =  2.18E-04,  avg # of iterations =  1.0

     negative rho (up, down):  1.562E-08 0.000E+00

     total cpu time spent up to now is        1.7 secs

     total energy              =     -31.95886713 Ry
     Harris-Foulkes estimate   =     -31.96190503 Ry
     estimated scf accuracy    <       0.22313560 Ry

     iteration # 39     ecut=    30.00 Ry     beta=0.70
     Davidson diagonalization with overlap
     ethr =  2.18E-04,  avg # of iterations =  1.0

     negative rho (up, down):  1.448E-08 0.000E+00

     total cpu time spent up to now is        1.8 secs

     total energy              =     -31.95933387 Ry
     Harris-Foulkes estimate   =     -31.95948970 Ry
     estimated scf accuracy    <       0.07530509 Ry

     iteration # 40     ecut=    30.00 Ry     beta=0.70
     Davidson diagonalization with overlap
     ethr =  2.18E-04,  avg # of iterations =  1.0

     total cpu time spent up to now is        1.8 secs

     total energy              =     -31.95797099 Ry
     Harris-Foulkes estimate   =     -31.95934101 Ry
     estimated scf accuracy    <       0.06533360 Ry

     iteration # 41     ecut=    30.00 Ry     beta=0.70
     Davidson diagonalization with overlap
     ethr =  2.18E-04,  avg # of iterations =  1.0

     total cpu time spent up to now is        1.8 secs

     total energy              =     -31.95821839 Ry
     Harris-Foulkes estimate   =     -31.95840582 Ry
     estimated scf accuracy    <       0.00812034 Ry

     iteration # 42     ecut=    30.00 Ry     beta=0.70
     Davidson diagonalization with overlap
     ethr =  1.02E-04,  avg # of iterations =  1.0

     total cpu time spent up to now is        1.9 secs

     total energy              =     -31.95825634 Ry
     Harris-Foulkes estimate   =     -31.95828241 Ry
     estimated scf accuracy    <       0.00075298 Ry

     iteration # 43     ecut=    30.00 Ry     beta=0.70
     Davidson diagonalization with overlap
     ethr =  9.41E-06,  avg # of iterations =  4.0

     total cpu time spent up to now is        1.9 secs

     total energy              =     -31.95827016 Ry
     Harris-Foulkes estimate   =     -31.95827034 Ry
     estimated scf accuracy    <       0.00000243 Ry

     iteration # 44     ecut=    30.00 Ry     beta=0.70
     Davidson diagonalization with overlap
     c_bands:  1 eigenvalues not converged
     ethr =  3.03E-08,  avg # of iterations = 20.0

     total cpu time spent up to now is        1.9 secs

     total energy              =     -31.95827031 Ry
     Harris-Foulkes estimate   =     -31.95827037 Ry
     estimated scf accuracy    <       0.00000244 Ry

     iteration # 45     ecut=    30.00 Ry     beta=0.70
     Davidson diagonalization with overlap
     ethr =  3.03E-08,  avg # of iterations = 18.0

     total cpu time spent up to now is        2.0 secs

     total energy              =     -31.95826961 Ry
     Harris-Foulkes estimate   =     -31.95827051 Ry
     estimated scf accuracy    <       0.00002238 Ry

     iteration # 46     ecut=    30.00 Ry     beta=0.70
     Davidson diagonalization with overlap
     ethr =  3.03E-08,  avg # of iterations =  1.0

     total cpu time spent up to now is        2.0 secs

     total energy              =     -31.95826981 Ry
     Harris-Foulkes estimate   =     -31.95826993 Ry
     estimated scf accuracy    <       0.00000019 Ry

     iteration # 47     ecut=    30.00 Ry     beta=0.70
     Davidson diagonalization with overlap
     ethr =  2.39E-09,  avg # of iterations =  1.0

     total cpu time spent up to now is        2.1 secs

     End of self-consistent calculation

          k = 0.0000 0.0000 0.0000 ( 22119 PWs)   bands (ev):

   -24.8084 -10.6492  -7.2038  -7.0517  -6.7704  -0.6446   0.3159   0.8361

     the Fermi energy is    -6.8783 ev

!    total energy              =     -31.95826982 Ry
     Harris-Foulkes estimate   =     -31.95826982 Ry
     estimated scf accuracy    <          4.4E-09 Ry

     convergence has been achieved in  47 iterations

     Forces acting on atoms (Ry/au):

     atom    1 type  1   force =     0.01437517   -0.00215794   -0.00135778
     atom    2 type  1   force =     0.00268654    0.01568609   -0.00830583
     atom    3 type  2   force =    -0.01706171   -0.01352815    0.00966361

     Total force =     0.033210     Total SCF correction =     0.000056

     Molecular Dynamics Calculation

     Starting temperature  =  1000.00 K

     temperature is controlled by Andersen thermostat
     Collision frequency = 1.0000/timestep
     mass H                =     1.01
     mass O                =    16.00
     Time step             =   100.00 a.u.,  4.8378 femto-seconds

     Entering Dynamics:    iteration =     1
                           time      =   0.0048 pico-seconds


     Andersen thermostat:    3 collisions

ATOMIC_POSITIONS (bohr)
H        2.673301556 -10.088011772   7.718033096
H        8.783332167 -29.289878861  25.935217330
O        8.452450277   8.800264404   7.068878551


     kinetic energy (Ekin) =     0.01563447 Ry
     temperature           =   822.82795056 K 
     Ekin + Etot (const)   =   -31.94263535 Ry

     Linear momentum :    0.0000000000   -0.0000000000   -0.0000000000

     Writing output data file pwscf.save
     Check: negative starting charge=   -0.343473
     NEW-OLD atomic charge density approx. for the potential
     Check: negative starting charge=   -0.343032

     negative rho (up, down):  4.281E-02 0.000E+00

     total cpu time spent up to now is        2.4 secs

     per-process dynamical memory:    20.4 Mb

     Self-consistent Calculation

     iteration #  1     ecut=    30.00 Ry     beta=0.70
     Davidson diagonalization with overlap
     c_bands:  1 eigenvalues not converged
     ethr =  1.00E-06,  avg # of iterations = 20.0

     negative rho (up, down):  1.025E-02 0.000E+00

     total cpu time spent up to now is        2.5 secs

     total energy              =     -31.82129562 Ry
     Harris-Foulkes estimate   =     -31.91122179 Ry
     estimated scf accuracy    <       0.15688727 Ry

     iteration #  2     ecut=    30.00 Ry     beta=0.70
     Davidson diagonalization with overlap
     ethr =  1.96E-03,  avg # of iterations =  3.0

     negative rho (up, down):  8.489E-03 0.000E+00

     total cpu time spent up to now is        2.6 secs

     total energy              =     -31.96069866 Ry
     Harris-Foulkes estimate   =     -32.41136215 Ry
     estimated scf accuracy    <       1.75055553 Ry

     iteration #  3     ecut=    30.00 Ry     beta=0.70
     Davidson diagonalization with overlap
     ethr =  1.96E-03,  avg # of iterations =  2.0

     negative rho (up, down):  8.097E-03 0.000E+00

     total cpu time spent up to now is        2.7 secs

     total energy              =     -31.96857639 Ry
     Harris-Foulkes estimate   =     -31.99662781 Ry
     estimated scf accuracy    <       0.72098026 Ry

     iteration #  4     ecut=    30.00 Ry     beta=0.70
     Davidson diagonalization with overlap
     ethr =  1.96E-03,  avg # of iterations =  1.0

     negative rho (up, down):  6.715E-03 0.000E+00

     total cpu time spent up to now is        2.8 secs

     total energy              =     -31.92952141 Ry
     Harris-Foulkes estimate   =     -31.96965295 Ry
     estimated scf accuracy    <       0.56811977 Ry

     iteration #  5     ecut=    30.00 Ry     beta=0.70
     Davidson diagonalization with overlap
     ethr =  1.96E-03,  avg # of iterations =  1.0

     negative rho (up, down):  1.454E-03 0.000E+00

     total cpu time spent up to now is        2.8 secs

     total energy              =     -31.94680919 Ry
     Harris-Foulkes estimate   =     -31.94264126 Ry
     estimated scf accuracy    <       0.00213782 Ry

     iteration #  6     ecut=    30.00 Ry     beta=0.70
     Davidson diagonalization with overlap
     ethr =  2.67E-05,  avg # of iterations = 10.0

     negative rho (up, down):  3.235E-04 0.000E+00

     total cpu time spent up to now is        2.8 secs

     total energy              =     -32.00004337 Ry
     Harris-Foulkes estimate   =     -31.97340813 Ry
     estimated scf accuracy    <       0.76369351 Ry

     iteration #  7     ecut=    30.00 Ry     beta=0.70
     Davidson diagonalization with overlap
     ethr =  2.67E-05,  avg # of iterations =  3.0

     negative rho (up, down):  3.663E-04 0.000E+00

     total cpu time spent up to now is        2.9 secs

     total energy              =     -31.97962665 Ry
     Harris-Foulkes estimate   =     -32.00175837 Ry
     estimated scf accuracy    <       0.98868348 Ry

     iteration #  8     ecut=    30.00 Ry     beta=0.70
     Davidson diagonalization with overlap
     ethr =  2.67E-05,  avg # of iterations =  1.0

     negative rho (up, down):  3.504E-04 0.000E+00

     total cpu time spent up to now is        2.9 secs

     total energy              =     -31.95484505 Ry
     Harris-Foulkes estimate   =     -31.98031597 Ry
     estimated scf accuracy    <       0.83545862 Ry

     iteration #  9     ecut=    30.00 Ry     beta=0.70
     Davidson diagonalization with overlap
     ethr =  2.67E-05,  avg # of iterations =  2.0

     negative rho (up, down):  1.610E-04 0.000E+00

     total cpu time spent up to now is        2.9 secs

     total energy              =     -31.92767970 Ry
     Harris-Foulkes estimate   =     -31.95758776 Ry
     estimated scf accuracy    <       0.40968232 Ry

     iteration # 10     ecut=    30.00 Ry     beta=0.70
     Davidson diagonalization with overlap
     ethr =  2.67E-05,  avg # of iterations =  3.0

     negative rho (up, down):  1.750E-04 0.000E+00

     total cpu time spent up to now is        3.0 secs

     total energy              =     -31.96970427 Ry
     Harris-Foulkes estimate   =     -31.95429229 Ry
     estimated scf accuracy    <       0.21503783 Ry

     iteration # 11     ecut=    30.00 Ry     beta=0.70
     Davidson diagonalization with overlap
     ethr =  2.67E-05,  avg # of iterations =  2.0

     negative rho (up, down):  5.107E-06 0.000E+00

     total cpu time spent up to now is        3.0 secs

     total energy              =     -31.97098957 Ry
     Harris-Foulkes estimate   =     -31.97428598 Ry
     estimated scf accuracy    <       0.57509713 Ry

     iteration # 12     ecut=    30.00 Ry     beta=0.70
     Davidson diagonalization with overlap
     ethr =  2.67E-05,  avg # of iterations =  4.0

     negative rho (up, down):  4.032E-08 0.000E+00

     total cpu time spent up to now is        3.1 secs

     total energy              =     -31.94495385 Ry
     Harris-Foulkes estimate   =     -31.97229521 Ry
     estimated scf accuracy    <       0.53999406 Ry

     iteration # 13     ecut=    30.00 Ry     beta=0.70
     Davidson diagonalization with overlap
     ethr =  2.67E-05,  avg # of iterations =  2.0

     negative rho (up, down):  4.421E-07 0.000E+00

     total cpu time spent up to now is        3.1 secs

     total energy              =     -31.95146987 Ry
     Harris-Foulkes estimate   =     -31.95099541 Ry
     estimated scf accuracy    <       0.10827266 Ry

     iteration # 14     ecut=    30.00 Ry     beta=0.70
     Davidson diagonalization with overlap
     ethr =  2.67E-05,  avg # of iterations =  1.0

     negative rho (up, down):  3.568E-07 0.000E+00

     total cpu time spent up to now is        3.1 secs

     total energy              =     -31.94535368 Ry
     Harris-Foulkes estimate   =     -31.95159419 Ry
     estimated scf accuracy    <       0.13978490 Ry

     iteration # 15     ecut=    30.00 Ry     beta=0.70
     Davidson diagonalization with overlap
     ethr =  2.67E-05,  avg # of iterations =  1.0

     negative rho (up, down):  2.250E-07 0.000E+00

     total cpu time spent up to now is        3.2 secs

     total energy              =     -31.94808649 Ry
     Harris-Foulkes estimate   =     -31.94818009 Ry
     estimated scf accuracy    <       0.00046136 Ry

     iteration # 16     ecut=    30.00 Ry     beta=0.70
     Davidson diagonalization with overlap
     ethr =  5.77E-06,  avg # of iterations =  3.0

     total cpu time spent up to now is        3.2 secs

     total energy              =     -31.94808821 Ry
     Harris-Foulkes estimate   =     -31.94842130 Ry
     estimated scf accuracy    <       0.01370147 Ry

     iteration # 17     ecut=    30.00 Ry     beta=0.70
     Davidson diagonalization with overlap
     ethr =  5.77E-06,  avg # of iterations =  1.0

     negative rho (up, down):  2.046E-08 0.000E+00

     total cpu time spent up to now is        3.2 secs

     total energy              =     -31.94815670 Ry
     Harris-Foulkes estimate   =     -31.94818698 Ry
     estimated scf accuracy    <       0.00255529 Ry

     iteration # 18     ecut=    30.00 Ry     beta=0.70
     Davidson diagonalization with overlap
     ethr =  5.77E-06,  avg # of iterations =  1.0

     total cpu time spent up to now is        3.3 secs

     total energy              =     -31.94809674 Ry
     Harris-Foulkes estimate   =     -31.94816288 Ry
     estimated scf accuracy    <       0.00118652 Ry

     iteration # 19     ecut=    30.00 Ry     beta=0.70
     Davidson diagonalization with overlap
     ethr =  5.77E-06,  avg # of iterations =  1.0

     total cpu time spent up to now is        3.3 secs

     total energy              =     -31.94813616 Ry
     Harris-Foulkes estimate   =     -31.94813488 Ry
     estimated scf accuracy    <       0.00007360 Ry

     iteration # 20     ecut=    30.00 Ry     beta=0.70
     Davidson diagonalization with overlap
     ethr =  9.20E-07,  avg # of iterations =  1.0

     total cpu time spent up to now is        3.3 secs

     total energy              =     -31.94813915 Ry
     Harris-Foulkes estimate   =     -31.94813672 Ry
     estimated scf accuracy    <       0.00017946 Ry

     iteration # 21     ecut=    30.00 Ry     beta=0.70
     Davidson diagonalization with overlap
     ethr =  9.20E-07,  avg # of iterations =  1.0

     total cpu time spent up to now is        3.4 secs

     total energy              =     -31.94812811 Ry
     Harris-Foulkes estimate   =     -31.94813953 Ry
     estimated scf accuracy    <       0.00031228 Ry

     iteration # 22     ecut=    30.00 Ry     beta=0.70
     Davidson diagonalization with overlap
     ethr =  9.20E-07,  avg # of iterations =  1.0

     total cpu time spent up to now is        3.4 secs

     total energy              =     -31.94813354 Ry
     Harris-Foulkes estimate   =     -31.94813349 Ry
     estimated scf accuracy    <       0.00000210 Ry

     iteration # 23     ecut=    30.00 Ry     beta=0.70
     Davidson diagonalization with overlap
     ethr =  2.62E-08,  avg # of iterations =  1.0

     total cpu time spent up to now is        3.4 secs

     total energy              =     -31.94813373 Ry
     Harris-Foulkes estimate   =     -31.94813356 Ry
     estimated scf accuracy    <       0.00000022 Ry

     iteration # 24     ecut=    30.00 Ry     beta=0.70
     Davidson diagonalization with overlap
     ethr =  2.77E-09,  avg # of iterations =  1.0

     total cpu time spent up to now is        3.5 secs

     total energy              =     -31.94813397 Ry
     Harris-Foulkes estimate   =     -31.94813375 Ry
     estimated scf accuracy    <       0.00000009 Ry

     iteration # 25     ecut=    30.00 Ry     beta=0.70
     Davidson diagonalization with overlap
     ethr =  1.13E-09,  avg # of iterations =  1.0

     total cpu time spent up to now is        3.5 secs

     End of self-consistent calculation

          k = 0.0000 0.0000 0.0000 ( 22119 PWs)   bands (ev):

   -24.2970 -10.2388  -7.2504  -6.9859  -6.6337  -1.0973   0.1456   0.8476

     the Fermi energy is    -6.8066 ev

!    total energy              =     -31.94813403 Ry
     Harris-Foulkes estimate   =     -31.94813398 Ry
     estimated scf accuracy    <          5.9E-09 Ry

     convergence has been achieved in  25 iterations

     Forces acting on atoms (Ry/au):

     atom    1 type  1   force =     0.02892584   -0.00500222   -0.00394671
     atom    2 type  1   force =    -0.02457511   -0.13110699    0.07755888
     atom    3 type  2   force =    -0.00435072    0.13610921   -0.07361217

     Total force =     0.220565     Total SCF correction =     0.000163

     Entering Dynamics:    iteration =     2
                           time      =   0.0097 pico-seconds


     Andersen thermostat:    3 collisions

ATOMIC_POSITIONS (bohr)
H        2.729953240  -9.940668414   7.833686534
H        8.485276862 -30.599332760  26.543933113
O        8.467688880   8.873622632   7.023152744


     kinetic energy (Ekin) =     0.02947014 Ry
     temperature           =  1550.98730931 K 
     Ekin + Etot (const)   =   -31.91866389 Ry
     Message from routine dynamics:
     Total linear momentum <> 0

     Linear momentum :   -0.4918705368   -0.4467063376    0.2929750788

     Writing output data file pwscf.save

     first order wave-functions extrapolation
     Check: negative starting charge=   -0.343032
     first order charge density extrapolation
     Check: negative starting charge=   -0.345214

     negative rho (up, down):  2.809E-01 0.000E+00

     total cpu time spent up to now is        4.1 secs

     per-process dynamical memory:    20.4 Mb

     Self-consistent Calculation

     iteration #  1     ecut=    30.00 Ry     beta=0.70
     Davidson diagonalization with overlap
     ethr =  1.00E-06,  avg # of iterations = 14.0

     negative rho (up, down):  7.338E-02 0.000E+00

     total cpu time spent up to now is        4.2 secs

     total energy              =     -25.93827569 Ry
     Harris-Foulkes estimate   =     -27.83183269 Ry
     estimated scf accuracy    <       2.30800500 Ry

     iteration #  2     ecut=    30.00 Ry     beta=0.70
     Davidson diagonalization with overlap
     ethr =  1.00E-02,  avg # of iterations =  3.0

     negative rho (up, down):  1.294E-02 0.000E+00

     total cpu time spent up to now is        4.3 secs

     total energy              =     -25.58007387 Ry
     Harris-Foulkes estimate   =     -29.40239406 Ry
     estimated scf accuracy    <      11.10343256 Ry

     iteration #  3     ecut=    30.00 Ry     beta=0.70
     Davidson diagonalization with overlap
     ethr =  1.00E-02,  avg # of iterations =  3.0

     negative rho (up, down):  1.979E-03 0.000E+00

     total cpu time spent up to now is        4.4 secs

     total energy              =     -27.04158120 Ry
     Harris-Foulkes estimate   =     -27.12102500 Ry
     estimated scf accuracy    <       0.28152020 Ry

     iteration #  4     ecut=    30.00 Ry     beta=0.70
     Davidson diagonalization with overlap
     ethr =  3.52E-03,  avg # of iterations =  1.0

     negative rho (up, down):  1.971E-03 0.000E+00

     total cpu time spent up to now is        4.5 secs

     total energy              =     -27.20411395 Ry
     Harris-Foulkes estimate   =     -27.22382549 Ry
     estimated scf accuracy    <       1.49103649 Ry

     iteration #  5     ecut=    30.00 Ry     beta=0.70
     Davidson diagonalization with overlap
     ethr =  3.52E-03,  avg # of iterations =  1.0

     negative rho (up, down):  1.769E-03 0.000E+00

     total cpu time spent up to now is        4.5 secs

     total energy              =     -27.08104960 Ry
     Harris-Foulkes estimate   =     -27.20434294 Ry
     estimated scf accuracy    <       1.43593748 Ry

     iteration #  6     ecut=    30.00 Ry     beta=0.70
     Davidson diagonalization with overlap
     ethr =  3.52E-03,  avg # of iterations =  1.0

     negative rho (up, down):  4.794E-02 0.000E+00

     total cpu time spent up to now is        4.5 secs

     total energy              =     -27.04561644 Ry
     Harris-Foulkes estimate   =     -27.10010178 Ry
     estimated scf accuracy    <       0.10416011 Ry

     iteration #  7     ecut=    30.00 Ry     beta=0.70
     Davidson diagonalization with overlap
     ethr =  1.30E-03,  avg # of iterations =  3.0

     negative rho (up, down):  2.363E-02 0.000E+00

     total cpu time spent up to now is        4.6 secs

     total energy              =     -27.21251452 Ry
     Harris-Foulkes estimate   =     -27.25202858 Ry
     estimated scf accuracy    <       0.93438792 Ry

     iteration #  8     ecut=    30.00 Ry     beta=0.70
     Davidson diagonalization with overlap
     ethr =  1.30E-03,  avg # of iterations =  1.0

     negative rho (up, down):  5.927E-04 0.000E+00

     total cpu time spent up to now is        4.6 secs

     total energy              =     -27.15019332 Ry
     Harris-Foulkes estimate   =     -27.21318332 Ry
     estimated scf accuracy    <       0.84306521 Ry

     iteration #  9     ecut=    30.00 Ry     beta=0.70
     Davidson diagonalization with overlap
     ethr =  1.30E-03,  avg # of iterations =  1.0

     negative rho (up, down):  1.149E-06 0.000E+00

     total cpu time spent up to now is        4.6 secs

     total energy              =     -27.12370135 Ry
     Harris-Foulkes estimate   =     -27.15206223 Ry
     estimated scf accuracy    <       0.66589964 Ry

     iteration # 10     ecut=    30.00 Ry     beta=0.70
     Davidson diagonalization with overlap
     ethr =  1.30E-03,  avg # of iterations =  1.0

     total cpu time spent up to now is        4.7 secs

     total energy              =     -27.07522154 Ry
     Harris-Foulkes estimate   =     -27.12472982 Ry
     estimated scf accuracy    <       0.52541344 Ry

     iteration # 11     ecut=    30.00 Ry     beta=0.70
     Davidson diagonalization with overlap
     ethr =  1.30E-03,  avg # of iterations =  1.0

     total cpu time spent up to now is        4.7 secs

     total energy              =     -27.08199687 Ry
     Harris-Foulkes estimate   =     -27.09862494 Ry
     estimated scf accuracy    <       0.11247155 Ry

     iteration # 12     ecut=    30.00 Ry     beta=0.70
     Davidson diagonalization with overlap
     ethr =  1.30E-03,  avg # of iterations =  1.0

     negative rho (up, down):  1.002E-06 0.000E+00

     total cpu time spent up to now is        4.8 secs

     total energy              =     -27.08302970 Ry
     Harris-Foulkes estimate   =     -27.11232789 Ry
     estimated scf accuracy    <       0.40688448 Ry

     iteration # 13     ecut=    30.00 Ry     beta=0.70
     Davidson diagonalization with overlap
     ethr =  1.30E-03,  avg # of iterations =  1.0

     total cpu time spent up to now is        4.8 secs

     total energy              =     -27.09919342 Ry
     Harris-Foulkes estimate   =     -27.09739641 Ry
     estimated scf accuracy    <       0.03794034 Ry

     iteration # 14     ecut=    30.00 Ry     beta=0.70
     Davidson diagonalization with overlap
     ethr =  4.74E-04,  avg # of iterations =  1.0

     total cpu time spent up to now is        4.8 secs

     total energy              =     -27.09816962 Ry
     Harris-Foulkes estimate   =     -27.10038059 Ry
     estimated scf accuracy    <       0.20269364 Ry

     iteration # 15     ecut=    30.00 Ry     beta=0.70
     Davidson diagonalization with overlap
     ethr =  4.74E-04,  avg # of iterations =  1.0

     total cpu time spent up to now is        4.9 secs

     total energy              =     -27.09535724 Ry
     Harris-Foulkes estimate   =     -27.09848696 Ry
     estimated scf accuracy    <       0.10240429 Ry

     iteration # 16     ecut=    30.00 Ry     beta=0.70
     Davidson diagonalization with overlap
     ethr =  4.74E-04,  avg # of iterations =  1.0

     total cpu time spent up to now is        4.9 secs

     total energy              =     -27.09658378 Ry
     Harris-Foulkes estimate   =     -27.09666486 Ry
     estimated scf accuracy    <       0.00253661 Ry

     iteration # 17     ecut=    30.00 Ry     beta=0.70
     Davidson diagonalization with overlap
     ethr =  3.17E-05,  avg # of iterations =  5.0

     total cpu time spent up to now is        5.0 secs

     total energy              =     -27.09660526 Ry
     Harris-Foulkes estimate   =     -27.09661750 Ry
     estimated scf accuracy    <       0.00006805 Ry

     iteration # 18     ecut=    30.00 Ry     beta=0.70
     Davidson diagonalization with overlap
     ethr =  8.51E-07,  avg # of iterations =  5.0

     total cpu time spent up to now is        5.0 secs

     total energy              =     -27.09661383 Ry
     Harris-Foulkes estimate   =     -27.09664024 Ry
     estimated scf accuracy    <       0.00123741 Ry

     iteration # 19     ecut=    30.00 Ry     beta=0.70
     Davidson diagonalization with overlap
     ethr =  8.51E-07,  avg # of iterations =  1.0

     total cpu time spent up to now is        5.0 secs

     total energy              =     -27.09661598 Ry
     Harris-Foulkes estimate   =     -27.09662072 Ry
     estimated scf accuracy    <       0.00026473 Ry

     iteration # 20     ecut=    30.00 Ry     beta=0.70
     Davidson diagonalization with overlap
     ethr =  8.51E-07,  avg # of iterations =  1.0

     total cpu time spent up to now is        5.1 secs

     total energy              =     -27.09661702 Ry
     Harris-Foulkes estimate   =     -27.09661712 Ry
     estimated scf accuracy    <       0.00007328 Ry

     iteration # 21     ecut=    30.00 Ry     beta=0.70
     Davidson diagonalization with overlap
     ethr =  8.51E-07,  avg # of iterations =  1.0

     total cpu time spent up to now is        5.1 secs

     total energy              =     -27.09661449 Ry
     Harris-Foulkes estimate   =     -27.09661703 Ry
     estimated scf accuracy    <       0.00006525 Ry

     iteration # 22     ecut=    30.00 Ry     beta=0.70
     Davidson diagonalization with overlap
     ethr =  8.16E-07,  avg # of iterations =  1.0

     total cpu time spent up to now is        5.1 secs

     total energy              =     -27.09661588 Ry
     Harris-Foulkes estimate   =     -27.09661587 Ry
     estimated scf accuracy    <       0.00000021 Ry

     iteration # 23     ecut=    30.00 Ry     beta=0.70
     Davidson diagonalization with overlap
     ethr =  2.66E-09,  avg # of iterations =  1.0

     total cpu time spent up to now is        5.2 secs

     End of self-consistent calculation

          k = 0.0000 0.0000 0.0000 ( 22119 PWs)   bands (ev):

   -31.3277 -11.8647  -7.8275  -7.6002  -7.2440  -0.2521   0.5891   0.7976

     the Fermi energy is    -7.4165 ev

!    total energy              =     -27.09661590 Ry
     Harris-Foulkes estimate   =     -27.09661588 Ry
     estimated scf accuracy    <          2.6E-09 Ry

     convergence has been achieved in  23 iterations

     Forces acting on atoms (Ry/au):

     atom    1 type  1   force =     0.02766488   -0.00532953   -0.00437115
     atom    2 type  1   force =     0.47952108   14.35501121  -13.05309047
     atom    3 type  2   force =    -0.50718596  -14.34968169   13.05746162

     Total force =    27.447189     Total SCF correction =     0.000073

     Entering Dynamics:    iteration =     3
                           time      =   0.0145 pico-seconds


     Andersen thermostat:    3 collisions

ATOMIC_POSITIONS (bohr)
H        3.390724217 -10.169402069   7.584907453
H       13.831814437 125.566255179-115.313518966
O        8.088477528  -0.969891295  15.993608586


     kinetic energy (Ekin) =   546.00495558 Ry
     temperature           = ************** K 
     Ekin + Etot (const)   =   518.90833967 Ry
     Message from routine dynamics:
     Total linear momentum <> 0

     Linear momentum :   -0.1330048676    0.3377251849   -0.1674484622

     Writing output data file pwscf.save

     second order wave-functions extrapolation
     Check: negative starting charge=   -0.345214
     second order charge density extrapolation
     Check: negative starting charge=   -0.353729

     negative rho (up, down):  7.788E+01 0.000E+00

     total cpu time spent up to now is        5.5 secs

     per-process dynamical memory:    20.4 Mb

     Self-consistent Calculation

     iteration #  1     ecut=    30.00 Ry     beta=0.70
     Davidson diagonalization with overlap
     c_bands:  1 eigenvalues not converged
     ethr =  1.00E-06,  avg # of iterations = 20.0

     negative rho (up, down):  2.286E+01 0.000E+00

     total cpu time spent up to now is        5.7 secs

     total energy              =    -229.74505625 Ry
     Harris-Foulkes estimate   =  -19092.27638690 Ry
     estimated scf accuracy    <    2284.73322038 Ry

     iteration #  2     ecut=    30.00 Ry     beta=0.70
     Davidson diagonalization with overlap
     ethr =  1.00E-02,  avg # of iterations = 11.0

     negative rho (up, down):  3.647E-01 0.000E+00

     total cpu time spent up to now is        5.8 secs

     total energy              =     162.21910714 Ry
     Harris-Foulkes estimate   =  -47793.71884743 Ry
     estimated scf accuracy    <     265.44137055 Ry

     iteration #  3     ecut=    30.00 Ry     beta=0.70
     Davidson diagonalization with overlap
     ethr =  1.00E-02,  avg # of iterations = 12.0

     negative rho (up, down):  1.457E-01 0.000E+00

     total cpu time spent up to now is        5.9 secs

     total energy              =      85.97657135 Ry
     Harris-Foulkes estimate   =    -527.44262960 Ry
     estimated scf accuracy    <      38.47795556 Ry

     iteration #  4     ecut=    30.00 Ry     beta=0.70
     Davidson diagonalization with overlap
     ethr =  1.00E-02,  avg # of iterations =  9.0

     negative rho (up, down):  3.601E-02 0.000E+00

     total cpu time spent up to now is        5.9 secs

     total energy              =     142.08981719 Ry
     Harris-Foulkes estimate   =    -256.11909726 Ry
     estimated scf accuracy    <      26.40852688 Ry

     iteration #  5     ecut=    30.00 Ry     beta=0.70
     Davidson diagonalization with overlap
     ethr =  1.00E-02,  avg # of iterations =  8.0

     negative rho (up, down):  2.438E-02 0.000E+00

     total cpu time spent up to now is        6.0 secs

     total energy              =     -75.08608973 Ry
     Harris-Foulkes estimate   =     -89.56047151 Ry
     estimated scf accuracy    <      76.18532990 Ry

     iteration #  6     ecut=    30.00 Ry     beta=0.70
     Davidson diagonalization with overlap
     ethr =  1.00E-02,  avg # of iterations =  8.0

     negative rho (up, down):  4.372E-02 0.000E+00

     total cpu time spent up to now is        6.0 secs

     total energy              =      83.20455762 Ry
     Harris-Foulkes estimate   =    -279.23444698 Ry
     estimated scf accuracy    <      26.57924058 Ry

     iteration #  7     ecut=    30.00 Ry     beta=0.70
     Davidson diagonalization with overlap
     ethr =  1.00E-02,  avg # of iterations =  6.0

     negative rho (up, down):  4.423E-01 0.000E+00

     total cpu time spent up to now is        6.1 secs

     total energy              =     -58.17448645 Ry
     Harris-Foulkes estimate   =     -77.47190147 Ry
     estimated scf accuracy    <      61.00811615 Ry

     iteration #  8     ecut=    30.00 Ry     beta=0.70
     Davidson diagonalization with overlap
     ethr =  1.00E-02,  avg # of iterations =  9.0

     negative rho (up, down):  4.150E-01 0.000E+00

     total cpu time spent up to now is        6.1 secs

     total energy              =      95.22206103 Ry
     Harris-Foulkes estimate   =   -2280.46884767 Ry
     estimated scf accuracy    <      32.26731690 Ry

     iteration #  9     ecut=    30.00 Ry     beta=0.70
     Davidson diagonalization with overlap
     ethr =  1.00E-02,  avg # of iterations = 12.0

     negative rho (up, down):  4.031E-01 0.000E+00

     total cpu time spent up to now is        6.2 secs

     total energy              =      36.94977144 Ry
     Harris-Foulkes estimate   =    -133.23473568 Ry
     estimated scf accuracy    <      18.87759891 Ry

     iteration # 10     ecut=    30.00 Ry     beta=0.70
     Davidson diagonalization with overlap
     ethr =  1.00E-02,  avg # of iterations =  4.0

     negative rho (up, down):  4.276E-01 0.000E+00

     total cpu time spent up to now is        6.2 secs

     total energy              =    -145.43030468 Ry
     Harris-Foulkes estimate   =    -136.80745247 Ry
     estimated scf accuracy    <      17.30193407 Ry

     iteration # 11     ecut=    30.00 Ry     beta=0.70
     Davidson diagonalization with overlap
     ethr =  1.00E-02,  avg # of iterations =  4.0

     negative rho (up, down):  4.314E-01 0.000E+00

     total cpu time spent up to now is        6.3 secs

     total energy              =     -16.94196366 Ry
     Harris-Foulkes estimate   =    -391.64996901 Ry
     estimated scf accuracy    <      20.45958495 Ry

     iteration # 12     ecut=    30.00 Ry     beta=0.70
     Davidson diagonalization with overlap
     ethr =  1.00E-02,  avg # of iterations =  8.0

     negative rho (up, down):  3.082E-01 0.000E+00

     total cpu time spent up to now is        6.3 secs

     total energy              =    -431.00921528 Ry
     Harris-Foulkes estimate   =    -233.40535163 Ry
     estimated scf accuracy    <      16.59828659 Ry

     iteration # 13     ecut=    30.00 Ry     beta=0.70
     Davidson diagonalization with overlap
     ethr =  1.00E-02,  avg # of iterations =  7.0

     negative rho (up, down):  1.023E-01 0.000E+00

     total cpu time spent up to now is        6.4 secs

     total energy              =       0.67010471 Ry
     Harris-Foulkes estimate   =   -2977.84971138 Ry
     estimated scf accuracy    <      30.90358723 Ry

     iteration # 14     ecut=    30.00 Ry     beta=0.70
     Davidson diagonalization with overlap
     ethr =  1.00E-02,  avg # of iterations = 11.0

     negative rho (up, down):  1.139E-02 0.000E+00

     total cpu time spent up to now is        6.4 secs

     total energy              =      44.12032250 Ry
     Harris-Foulkes estimate   =   -1114.68790321 Ry
     estimated scf accuracy    <      12.39494321 Ry

     iteration # 15     ecut=    30.00 Ry     beta=0.70
     Davidson diagonalization with overlap
     ethr =  1.00E-02,  avg # of iterations =  8.0

     negative rho (up, down):  2.536E-01 0.000E+00

     total cpu time spent up to now is        6.5 secs

     total energy              =     -21.10411181 Ry
     Harris-Foulkes estimate   =     -89.66347994 Ry
     estimated scf accuracy    <      21.68569956 Ry

     iteration # 16     ecut=    30.00 Ry     beta=0.70
     Davidson diagonalization with overlap
     ethr =  1.00E-02,  avg # of iterations =  9.0

     negative rho (up, down):  1.346E-01 0.000E+00

     total cpu time spent up to now is        6.5 secs

     total energy              =      34.29756614 Ry
     Harris-Foulkes estimate   =   -2302.88159230 Ry
     estimated scf accuracy    <      19.28833226 Ry

     iteration # 17     ecut=    30.00 Ry     beta=0.70
     Davidson diagonalization with overlap
     ethr =  1.00E-02,  avg # of iterations =  7.0

     negative rho (up, down):  1.302E-01 0.000E+00

     total cpu time spent up to now is        6.6 secs

     total energy              =      24.63550334 Ry
     Harris-Foulkes estimate   =    -117.29251104 Ry
     estimated scf accuracy    <      18.17259417 Ry

     iteration # 18     ecut=    30.00 Ry     beta=0.70
     Davidson diagonalization with overlap
     ethr =  1.00E-02,  avg # of iterations =  8.0

     negative rho (up, down):  3.807E-04 0.000E+00

     total cpu time spent up to now is        6.6 secs

     total energy              =      15.03276770 Ry
     Harris-Foulkes estimate   =     -61.40334898 Ry
     estimated scf accuracy    <      15.27562972 Ry

     iteration # 19     ecut=    30.00 Ry     beta=0.70
     Davidson diagonalization with overlap
     ethr =  1.00E-02,  avg # of iterations =  4.0

     negative rho (up, down):  3.332E-02 0.000E+00

     total cpu time spent up to now is        6.7 secs

     total energy              =     -47.33556515 Ry
     Harris-Foulkes estimate   =     -50.55559523 Ry
     estimated scf accuracy    <      27.59714790 Ry

     iteration # 20     ecut=    30.00 Ry     beta=0.70
     Davidson diagonalization with overlap
     ethr =  1.00E-02,  avg # of iterations =  5.0

     negative rho (up, down):  1.643E-01 0.000E+00

     total cpu time spent up to now is        6.7 secs

     total energy              =      10.05024057 Ry
     Harris-Foulkes estimate   =    -393.75272552 Ry
     estimated scf accuracy    <      14.66980158 Ry

     iteration # 21     ecut=    30.00 Ry     beta=0.70
     Davidson diagonalization with overlap
     ethr =  1.00E-02,  avg # of iterations =  9.0

     negative rho (up, down):  9.013E-02 0.000E+00

     total cpu time spent up to now is        6.8 secs

     total energy              =    5659.36515076 Ry
     Harris-Foulkes estimate   =    -381.32475114 Ry
     estimated scf accuracy    <      39.65816037 Ry

     iteration # 22     ecut=    30.00 Ry     beta=0.70
     Davidson diagonalization with overlap
     ethr =  1.00E-02,  avg # of iterations =  7.0

     negative rho (up, down):  1.759E-02 0.000E+00

     total cpu time spent up to now is        6.8 secs

     total energy              =     138.96731843 Ry
     Harris-Foulkes estimate   =   -2579.24691084 Ry
     estimated scf accuracy    <      35.16422251 Ry

     iteration # 23     ecut=    30.00 Ry     beta=0.70
     Davidson diagonalization with overlap
     ethr =  1.00E-02,  avg # of iterations = 12.0

     negative rho (up, down):  1.315E-02 0.000E+00

     total cpu time spent up to now is        6.9 secs

     total energy              =      21.51555833 Ry
     Harris-Foulkes estimate   =     -60.99240140 Ry
     estimated scf accuracy    <      17.46014969 Ry

     iteration # 24     ecut=    30.00 Ry     beta=0.70
     Davidson diagonalization with overlap
     ethr =  1.00E-02,  avg # of iterations =  7.0

     negative rho (up, down):  3.297E-04 0.000E+00

     total cpu time spent up to now is        7.0 secs

     total energy              =      25.27844890 Ry
     Harris-Foulkes estimate   =     -79.98186184 Ry
     estimated scf accuracy    <      13.68315480 Ry

     iteration # 25     ecut=    30.00 Ry     beta=0.70
     Davidson diagonalization with overlap
     ethr =  1.00E-02,  avg # of iterations =  5.0

     negative rho (up, down):  4.635E-02 0.000E+00

     total cpu time spent up to now is        7.0 secs

     total energy              =     -44.75332384 Ry
     Harris-Foulkes estimate   =     -46.58403109 Ry
     estimated scf accuracy    <      22.88857182 Ry

     iteration # 26     ecut=    30.00 Ry     beta=0.70
     Davidson diagonalization with overlap
     ethr =  1.00E-02,  avg # of iterations = 10.0

     negative rho (up, down):  2.082E-02 0.000E+00

     total cpu time spent up to now is        7.0 secs

     total energy              =     131.25565982 Ry
     Harris-Foulkes estimate   =   -1428.15576452 Ry
     estimated scf accuracy    <      44.69542148 Ry

     iteration # 27     ecut=    30.00 Ry     beta=0.70
     Davidson diagonalization with overlap
     ethr =  1.00E-02,  avg # of iterations =  6.0

     negative rho (up, down):  9.611E-03 0.000E+00

     total cpu time spent up to now is        7.1 secs

     total energy              =      23.22035793 Ry
     Harris-Foulkes estimate   =     -70.05812889 Ry
     estimated scf accuracy    <      10.48707615 Ry

     iteration # 28     ecut=    30.00 Ry     beta=0.70
     Davidson diagonalization with overlap
     ethr =  1.00E-02,  avg # of iterations =  5.0

     negative rho (up, down):  2.195E-02 0.000E+00

     total cpu time spent up to now is        7.1 secs

     total energy              =     -40.95272713 Ry
     Harris-Foulkes estimate   =     -42.81741330 Ry
     estimated scf accuracy    <      17.93597583 Ry

     iteration # 29     ecut=    30.00 Ry     beta=0.70
     Davidson diagonalization with overlap
     ethr =  1.00E-02,  avg # of iterations =  4.0

     negative rho (up, down):  2.096E-02 0.000E+00

     total cpu time spent up to now is        7.2 secs

     total energy              =    -450.73397047 Ry
     Harris-Foulkes estimate   =     -86.66760733 Ry
     estimated scf accuracy    <       8.41614965 Ry

     iteration # 30     ecut=    30.00 Ry     beta=0.70
     Davidson diagonalization with overlap
     ethr =  1.00E-02,  avg # of iterations =  3.0

     negative rho (up, down):  7.840E-02 0.000E+00

     total cpu time spent up to now is        7.2 secs

     total energy              =      -1.37921459 Ry
     Harris-Foulkes estimate   =    -715.55866652 Ry
     estimated scf accuracy    <       7.30084187 Ry

     iteration # 31     ecut=    30.00 Ry     beta=0.70
     Davidson diagonalization with overlap
     ethr =  1.00E-02,  avg # of iterations =  7.0

     negative rho (up, down):  7.186E-02 0.000E+00

     total cpu time spent up to now is        7.3 secs

     total energy              =      -2.37636968 Ry
     Harris-Foulkes estimate   =    -101.25661217 Ry
     estimated scf accuracy    <      32.05299569 Ry

     iteration # 32     ecut=    30.00 Ry     beta=0.70
     Davidson diagonalization with overlap
     ethr =  1.00E-02,  avg # of iterations = 10.0

     negative rho (up, down):  7.475E-02 0.000E+00

     total cpu time spent up to now is        7.3 secs

     total energy              =     -82.15983291 Ry
     Harris-Foulkes estimate   =     -82.99689827 Ry
     estimated scf accuracy    <      15.20674317 Ry

     iteration # 33     ecut=    30.00 Ry     beta=0.70
     Davidson diagonalization with overlap
     ethr =  1.00E-02,  avg # of iterations =  4.0

     negative rho (up, down):  1.411E-01 0.000E+00

     total cpu time spent up to now is        7.4 secs

     total energy              =   -3189.33873102 Ry
     Harris-Foulkes estimate   =    -439.55565022 Ry
     estimated scf accuracy    <      34.04708607 Ry

     iteration # 34     ecut=    30.00 Ry     beta=0.70
     Davidson diagonalization with overlap
     ethr =  1.00E-02,  avg # of iterations =  9.0

     negative rho (up, down):  1.985E-01 0.000E+00

     total cpu time spent up to now is        7.4 secs

     total energy              =    -157.33001679 Ry
     Harris-Foulkes estimate   =   -5339.68273124 Ry
     estimated scf accuracy    <      53.61936937 Ry

     iteration # 35     ecut=    30.00 Ry     beta=0.70
     Davidson diagonalization with overlap
     ethr =  1.00E-02,  avg # of iterations =  4.0

     negative rho (up, down):  3.132E-01 0.000E+00

     total cpu time spent up to now is        7.5 secs

     total energy              =    1534.10870426 Ry
     Harris-Foulkes estimate   =   -1260.86031382 Ry
     estimated scf accuracy    <      23.30273510 Ry

     iteration # 36     ecut=    30.00 Ry     beta=0.70
     Davidson diagonalization with overlap
     ethr =  1.00E-02,  avg # of iterations =  7.0

     negative rho (up, down):  4.618E-01 0.000E+00

     total cpu time spent up to now is        7.5 secs

     total energy              =    -109.96939957 Ry
     Harris-Foulkes estimate   =   -1729.00411281 Ry
     estimated scf accuracy    <      54.71464033 Ry

     iteration # 37     ecut=    30.00 Ry     beta=0.70
     Davidson diagonalization with overlap
     ethr =  1.00E-02,  avg # of iterations =  5.0

     negative rho (up, down):  6.524E-01 0.000E+00

     total cpu time spent up to now is        7.6 secs

     total energy              =      29.26853098 Ry
     Harris-Foulkes estimate   =    -862.32130635 Ry
     estimated scf accuracy    <      49.78696945 Ry

     iteration # 38     ecut=    30.00 Ry     beta=0.70
     Davidson diagonalization with overlap
     ethr =  1.00E-02,  avg # of iterations = 14.0

     negative rho (up, down):  8.213E-01 0.000E+00

     total cpu time spent up to now is        7.7 secs

     total energy              =   -3058.56706919 Ry
     Harris-Foulkes estimate   =   -1642.96504882 Ry
     estimated scf accuracy    <      55.54261034 Ry

     iteration # 39     ecut=    30.00 Ry     beta=0.70
     Davidson diagonalization with overlap
     ethr =  1.00E-02,  avg # of iterations =  5.0

     negative rho (up, down):  1.092E+00 0.000E+00

     total cpu time spent up to now is        7.7 secs

     total energy              =     202.82439620 Ry
     Harris-Foulkes estimate   =  -11927.46685885 Ry
     estimated scf accuracy    <      54.15042008 Ry

     iteration # 40     ecut=    30.00 Ry     beta=0.70
     Davidson diagonalization with overlap
     ethr =  1.00E-02,  avg # of iterations = 10.0

     negative rho (up, down):  1.333E+00 0.000E+00

     total cpu time spent up to now is        7.8 secs

     total energy              =     106.06490948 Ry
     Harris-Foulkes estimate   =    -620.55422872 Ry
     estimated scf accuracy    <      36.66774554 Ry

     iteration # 41     ecut=    30.00 Ry     beta=0.70
     Davidson diagonalization with overlap
     ethr =  1.00E-02,  avg # of iterations =  7.0

     negative rho (up, down):  2.034E+00 0.000E+00

     total cpu time spent up to now is        7.8 secs

     total energy              =      52.13465059 Ry
     Harris-Foulkes estimate   =    -827.13785402 Ry
     estimated scf accuracy    <      36.74183249 Ry

     iteration # 42     ecut=    30.00 Ry     beta=0.70
     Davidson diagonalization with overlap
     ethr =  1.00E-02,  avg # of iterations =  8.0

     negative rho (up, down):  1.936E+00 0.000E+00

     total cpu time spent up to now is        7.9 secs

     total energy              =    -251.55882014 Ry
     Harris-Foulkes estimate   =   -2920.45360582 Ry
     estimated scf accuracy    <      36.53747991 Ry

     iteration # 43     ecut=    30.00 Ry     beta=0.70
     Davidson diagonalization with overlap
     ethr =  1.00E-02,  avg # of iterations =  4.0

     negative rho (up, down):  1.515E+00 0.000E+00

     total cpu time spent up to now is        7.9 secs

     total energy              =    1962.21377523 Ry
     Harris-Foulkes estimate   =  -13477.26995581 Ry
     estimated scf accuracy    <      30.78316387 Ry

     iteration # 44     ecut=    30.00 Ry     beta=0.70
     Davidson diagonalization with overlap
     ethr =  1.00E-02,  avg # of iterations =  7.0

     negative rho (up, down):  6.747E-01 0.000E+00

     total cpu time spent up to now is        8.0 secs

     total energy              =    -101.66905154 Ry
     Harris-Foulkes estimate   =   -1297.53663070 Ry
     estimated scf accuracy    <      27.67977017 Ry

     iteration # 45     ecut=    30.00 Ry     beta=0.70
     Davidson diagonalization with overlap
     ethr =  1.00E-02,  avg # of iterations =  8.0

     negative rho (up, down):  5.776E-01 0.000E+00

     total cpu time spent up to now is        8.0 secs

     total energy              =   -1723.44259431 Ry
     Harris-Foulkes estimate   =   -8494.56227817 Ry
     estimated scf accuracy    <      18.19468170 Ry

     iteration # 46     ecut=    30.00 Ry     beta=0.70
     Davidson diagonalization with overlap
     ethr =  1.00E-02,  avg # of iterations = 11.0

     negative rho (up, down):  3.972E-01 0.000E+00

     total cpu time spent up to now is        8.1 secs

     total energy              =     -79.54365476 Ry
     Harris-Foulkes estimate   =  -27446.53866860 Ry
     estimated scf accuracy    <      24.75924717 Ry

     iteration # 47     ecut=    30.00 Ry     beta=0.70
     Davidson diagonalization with overlap
     ethr =  1.00E-02,  avg # of iterations =  6.0

     negative rho (up, down):  7.269E-03 0.000E+00

     total cpu time spent up to now is        8.2 secs

     total energy              =     164.75834285 Ry
     Harris-Foulkes estimate   =   -3012.60912151 Ry
     estimated scf accuracy    <      28.76203476 Ry

     iteration # 48     ecut=    30.00 Ry     beta=0.70
     Davidson diagonalization with overlap
     ethr =  1.00E-02,  avg # of iterations =  8.0

     negative rho (up, down):  1.289E-02 0.000E+00

     total cpu time spent up to now is        8.2 secs

     total energy              =     -66.49262585 Ry
     Harris-Foulkes estimate   =     -94.08567754 Ry
     estimated scf accuracy    <      82.80273902 Ry

     iteration # 49     ecut=    30.00 Ry     beta=0.70
     Davidson diagonalization with overlap
     ethr =  1.00E-02,  avg # of iterations =  5.0

     negative rho (up, down):  1.126E-02 0.000E+00

     total cpu time spent up to now is        8.3 secs

     total energy              =     -17.99743227 Ry
     Harris-Foulkes estimate   =    -123.37949156 Ry
     estimated scf accuracy    <      26.17200050 Ry

     iteration # 50     ecut=    30.00 Ry     beta=0.70
     Davidson diagonalization with overlap
     ethr =  1.00E-02,  avg # of iterations =  4.0

     negative rho (up, down):  7.867E-03 0.000E+00

     total cpu time spent up to now is        8.3 secs

     total energy              =      40.37662291 Ry
     Harris-Foulkes estimate   =    -968.59614010 Ry
     estimated scf accuracy    <      13.95923395 Ry

     iteration # 51     ecut=    30.00 Ry     beta=0.70
     Davidson diagonalization with overlap
     ethr =  1.00E-02,  avg # of iterations =  6.0

     negative rho (up, down):  3.659E-04 0.000E+00

     total cpu time spent up to now is        8.4 secs

     total energy              =     -12.63596556 Ry
     Harris-Foulkes estimate   =    -183.19417096 Ry
     estimated scf accuracy    <      27.80927674 Ry

     iteration # 52     ecut=    30.00 Ry     beta=0.70
     Davidson diagonalization with overlap
     ethr =  1.00E-02,  avg # of iterations =  3.0

     negative rho (up, down):  1.479E-01 0.000E+00

     total cpu time spent up to now is        8.4 secs

     total energy              =     -42.50174827 Ry
     Harris-Foulkes estimate   =     -63.73399791 Ry
     estimated scf accuracy    <      43.95040016 Ry

     iteration # 53     ecut=    30.00 Ry     beta=0.70
     Davidson diagonalization with overlap
     ethr =  1.00E-02,  avg # of iterations = 13.0

     negative rho (up, down):  7.043E-02 0.000E+00

     total cpu time spent up to now is        8.5 secs

     total energy              =    -252.63641173 Ry
     Harris-Foulkes estimate   =   -1059.28836513 Ry
     estimated scf accuracy    <      37.21829519 Ry

     iteration # 54     ecut=    30.00 Ry     beta=0.70
     Davidson diagonalization with overlap
     ethr =  1.00E-02,  avg # of iterations =  8.0

     negative rho (up, down):  5.803E-03 0.000E+00

     total cpu time spent up to now is        8.6 secs

     total energy              =     140.96500227 Ry
     Harris-Foulkes estimate   =   -2882.30915543 Ry
     estimated scf accuracy    <      32.39713636 Ry

     iteration # 55     ecut=    30.00 Ry     beta=0.70
     Davidson diagonalization with overlap
     ethr =  1.00E-02,  avg # of iterations = 14.0

     negative rho (up, down):  2.655E-03 0.000E+00

     total cpu time spent up to now is        8.7 secs

     total energy              =     -47.77578383 Ry
     Harris-Foulkes estimate   =     -50.89154500 Ry
     estimated scf accuracy    <      27.84946497 Ry

     iteration # 56     ecut=    30.00 Ry     beta=0.70
     Davidson diagonalization with overlap
     ethr =  1.00E-02,  avg # of iterations =  1.0

     negative rho (up, down):  5.019E-02 0.000E+00

     total cpu time spent up to now is        8.7 secs

     total energy              =     -34.36879073 Ry
     Harris-Foulkes estimate   =     -47.78002517 Ry
     estimated scf accuracy    <      24.21582792 Ry

     iteration # 57     ecut=    30.00 Ry     beta=0.70
     Davidson diagonalization with overlap
     ethr =  1.00E-02,  avg # of iterations =  7.0

     negative rho (up, down):  1.921E-02 0.000E+00

     total cpu time spent up to now is        8.7 secs

     total energy              =     113.24955428 Ry
     Harris-Foulkes estimate   =    -416.20954244 Ry
     estimated scf accuracy    <      56.95225679 Ry

     iteration # 58     ecut=    30.00 Ry     beta=0.70
     Davidson diagonalization with overlap
     ethr =  1.00E-02,  avg # of iterations =  7.0

     negative rho (up, down):  3.876E-03 0.000E+00

     total cpu time spent up to now is        8.8 secs

     total energy              =      82.48824205 Ry
     Harris-Foulkes estimate   =   -1409.57416384 Ry
     estimated scf accuracy    <      23.43152847 Ry

     iteration # 59     ecut=    30.00 Ry     beta=0.70
     Davidson diagonalization with overlap
     ethr =  1.00E-02,  avg # of iterations = 10.0

     negative rho (up, down):  1.260E-02 0.000E+00

     total cpu time spent up to now is        8.8 secs

     total energy              =     -37.52661510 Ry
     Harris-Foulkes estimate   =     -41.65740273 Ry
     estimated scf accuracy    <      16.57099183 Ry

     iteration # 60     ecut=    30.00 Ry     beta=0.70
     Davidson diagonalization with overlap
     ethr =  1.00E-02,  avg # of iterations = 13.0

     negative rho (up, down):  4.992E-03 0.000E+00

     total cpu time spent up to now is        8.9 secs

     total energy              =      14.71620616 Ry
     Harris-Foulkes estimate   =    -139.28772724 Ry
     estimated scf accuracy    <      23.39570865 Ry

     iteration # 61     ecut=    30.00 Ry     beta=0.70
     Davidson diagonalization with overlap
     ethr =  1.00E-02,  avg # of iterations =  4.0

     negative rho (up, down):  4.729E-02 0.000E+00

     total cpu time spent up to now is        8.9 secs

     total energy              =    -108.54178174 Ry
     Harris-Foulkes estimate   =    -472.21731757 Ry
     estimated scf accuracy    <      14.08368352 Ry

     iteration # 62     ecut=    30.00 Ry     beta=0.70
     Davidson diagonalization with overlap
     ethr =  1.00E-02,  avg # of iterations =  8.0

     negative rho (up, down):  4.476E-02 0.000E+00

     total cpu time spent up to now is        9.0 secs

     total energy              =    -831.30573199 Ry
     Harris-Foulkes estimate   =    -580.43108777 Ry
     estimated scf accuracy    <      57.90475011 Ry

     iteration # 63     ecut=    30.00 Ry     beta=0.70
     Davidson diagonalization with overlap
     ethr =  1.00E-02,  avg # of iterations =  5.0

     negative rho (up, down):  8.075E-03 0.000E+00

     total cpu time spent up to now is        9.0 secs

     total energy              =     135.50086421 Ry
     Harris-Foulkes estimate   =   -1571.10732236 Ry
     estimated scf accuracy    <      51.95418404 Ry

     iteration # 64     ecut=    30.00 Ry     beta=0.70
     Davidson diagonalization with overlap
     ethr =  1.00E-02,  avg # of iterations = 12.0

     negative rho (up, down):  1.391E-02 0.000E+00

     total cpu time spent up to now is        9.1 secs

     total energy              =     -42.21584375 Ry
     Harris-Foulkes estimate   =     -43.21733163 Ry
     estimated scf accuracy    <      18.01397175 Ry

     iteration # 65     ecut=    30.00 Ry     beta=0.70
     Davidson diagonalization with overlap
     ethr =  1.00E-02,  avg # of iterations =  6.0

     negative rho (up, down):  7.418E-03 0.000E+00

     total cpu time spent up to now is        9.1 secs

     total energy              =     -39.84691457 Ry
     Harris-Foulkes estimate   =     -42.21977495 Ry
     estimated scf accuracy    <      16.84040194 Ry

     iteration # 66     ecut=    30.00 Ry     beta=0.70
     Davidson diagonalization with overlap
     ethr =  1.00E-02,  avg # of iterations =  1.0

     negative rho (up, down):  3.245E-02 0.000E+00

     total cpu time spent up to now is        9.2 secs

     total energy              =     -33.43502169 Ry
     Harris-Foulkes estimate   =     -39.85975594 Ry
     estimated scf accuracy    <      13.85766017 Ry

     iteration # 67     ecut=    30.00 Ry     beta=0.70
     Davidson diagonalization with overlap
     ethr =  1.00E-02,  avg # of iterations =  6.0

     negative rho (up, down):  1.009E-01 0.000E+00

     total cpu time spent up to now is        9.2 secs

     total energy              =      30.71242608 Ry
     Harris-Foulkes estimate   =    -451.96527629 Ry
     estimated scf accuracy    <      25.56920045 Ry

     iteration # 68     ecut=    30.00 Ry     beta=0.70
     Davidson diagonalization with overlap
     ethr =  1.00E-02,  avg # of iterations =  8.0

     negative rho (up, down):  6.993E-02 0.000E+00

     total cpu time spent up to now is        9.3 secs

     total energy              =      57.49588326 Ry
     Harris-Foulkes estimate   =    -325.30577644 Ry
     estimated scf accuracy    <      72.36066753 Ry

     iteration # 69     ecut=    30.00 Ry     beta=0.70
     Davidson diagonalization with overlap
     ethr =  1.00E-02,  avg # of iterations =  6.0

     negative rho (up, down):  4.131E-02 0.000E+00

     total cpu time spent up to now is        9.3 secs

     total energy              =     -47.66592921 Ry
     Harris-Foulkes estimate   =    -280.06014301 Ry
     estimated scf accuracy    <      75.30751542 Ry

     iteration # 70     ecut=    30.00 Ry     beta=0.70
     Davidson diagonalization with overlap
     ethr =  1.00E-02,  avg # of iterations =  5.0

     negative rho (up, down):  4.662E-02 0.000E+00

     total cpu time spent up to now is        9.4 secs

     total energy              =     -62.80674653 Ry
     Harris-Foulkes estimate   =    -145.37304907 Ry
     estimated scf accuracy    <      76.59629219 Ry

     iteration # 71     ecut=    30.00 Ry     beta=0.70
     Davidson diagonalization with overlap
     ethr =  1.00E-02,  avg # of iterations =  5.0

     negative rho (up, down):  5.049E-02 0.000E+00

     total cpu time spent up to now is        9.4 secs

     total energy              =      40.09603114 Ry
     Harris-Foulkes estimate   =    -562.62523713 Ry
     estimated scf accuracy    <      69.50894481 Ry

     iteration # 72     ecut=    30.00 Ry     beta=0.70
     Davidson diagonalization with overlap
     ethr =  1.00E-02,  avg # of iterations =  6.0

     negative rho (up, down):  7.244E-02 0.000E+00

     total cpu time spent up to now is        9.5 secs

     total energy              =     -44.43030921 Ry
     Harris-Foulkes estimate   =     -82.45386143 Ry
     estimated scf accuracy    <      34.99348206 Ry

     iteration # 73     ecut=    30.00 Ry     beta=0.70
     Davidson diagonalization with overlap
     ethr =  1.00E-02,  avg # of iterations =  5.0

     negative rho (up, down):  2.060E-01 0.000E+00

     total cpu time spent up to now is        9.5 secs

     total energy              =      80.57739773 Ry
     Harris-Foulkes estimate   =    -211.57646090 Ry
     estimated scf accuracy    <      81.51547193 Ry

     iteration # 74     ecut=    30.00 Ry     beta=0.70
     Davidson diagonalization with overlap
     ethr =  1.00E-02,  avg # of iterations =  7.0

     negative rho (up, down):  1.418E-02 0.000E+00

     total cpu time spent up to now is        9.6 secs

     total energy              =      -7.12306371 Ry
     Harris-Foulkes estimate   =     -77.20538340 Ry
     estimated scf accuracy    <      80.46484720 Ry

     iteration # 75     ecut=    30.00 Ry     beta=0.70
     Davidson diagonalization with overlap
     ethr =  1.00E-02,  avg # of iterations =  7.0

     negative rho (up, down):  1.758E+00 0.000E+00

     total cpu time spent up to now is        9.6 secs

     total energy              =     -25.31977976 Ry
     Harris-Foulkes estimate   =     -85.27298398 Ry
     estimated scf accuracy    <      59.09023377 Ry

     iteration # 76     ecut=    30.00 Ry     beta=0.70
     Davidson diagonalization with overlap
     ethr =  1.00E-02,  avg # of iterations =  8.0

     negative rho (up, down):  2.867E+00 0.000E+00

     total cpu time spent up to now is        9.7 secs

     total energy              =     214.47382804 Ry
     Harris-Foulkes estimate   =    -799.82598895 Ry
     estimated scf accuracy    <      65.61210293 Ry

     iteration # 77     ecut=    30.00 Ry     beta=0.70
     Davidson diagonalization with overlap
     ethr =  1.00E-02,  avg # of iterations =  5.0

     negative rho (up, down):  3.064E+00 0.000E+00

     total cpu time spent up to now is        9.8 secs

     total energy              =    -971.83535204 Ry
     Harris-Foulkes estimate   =   -7045.57177083 Ry
     estimated scf accuracy    <      39.79589955 Ry

     iteration # 78     ecut=    30.00 Ry     beta=0.70
     Davidson diagonalization with overlap
     ethr =  1.00E-02,  avg # of iterations =  7.0

     negative rho (up, down):  2.824E+00 0.000E+00

     total cpu time spent up to now is        9.8 secs

     total energy              =   -1134.40379726 Ry
     Harris-Foulkes estimate   =  -22422.97683412 Ry
     estimated scf accuracy    <      31.69092754 Ry

     iteration # 79     ecut=    30.00 Ry     beta=0.70
     Davidson diagonalization with overlap
     ethr =  1.00E-02,  avg # of iterations =  5.0

     negative rho (up, down):  2.648E+00 0.000E+00

     total cpu time spent up to now is        9.9 secs

     total energy              =    -105.56330833 Ry
     Harris-Foulkes estimate   =  -31624.08068871 Ry
     estimated scf accuracy    <      29.98424921 Ry

     iteration # 80     ecut=    30.00 Ry     beta=0.70
     Davidson diagonalization with overlap
     ethr =  1.00E-02,  avg # of iterations = 11.0

     negative rho (up, down):  2.499E+00 0.000E+00

     total cpu time spent up to now is        9.9 secs

     total energy              =   -5360.35511761 Ry
     Harris-Foulkes estimate   =  -14634.88170778 Ry
     estimated scf accuracy    <      35.36097379 Ry

     iteration # 81     ecut=    30.00 Ry     beta=0.70
     Davidson diagonalization with overlap
     ethr =  1.00E-02,  avg # of iterations =  8.0

     negative rho (up, down):  1.612E+00 0.000E+00

     total cpu time spent up to now is       10.0 secs

     total energy              =  -15101.62235983 Ry
     Harris-Foulkes estimate   =  -13195.34491587 Ry
     estimated scf accuracy    <      31.55749352 Ry

     iteration # 82     ecut=    30.00 Ry     beta=0.70
     Davidson diagonalization with overlap
     ethr =  1.00E-02,  avg # of iterations =  8.0

     negative rho (up, down):  1.414E+00 0.000E+00

     total cpu time spent up to now is       10.0 secs

     total energy              =      75.15846710 Ry
     Harris-Foulkes estimate   =  -60459.31231973 Ry
     estimated scf accuracy    <      20.84099093 Ry

     iteration # 83     ecut=    30.00 Ry     beta=0.70
     Davidson diagonalization with overlap
     ethr =  1.00E-02,  avg # of iterations =  7.0

     negative rho (up, down):  2.373E-01 0.000E+00

     total cpu time spent up to now is       10.1 secs

     total energy              =      95.91934135 Ry
     Harris-Foulkes estimate   =   -2196.69560841 Ry
     estimated scf accuracy    <      30.43938713 Ry

     iteration # 84     ecut=    30.00 Ry     beta=0.70
     Davidson diagonalization with overlap
     ethr =  1.00E-02,  avg # of iterations = 11.0

     negative rho (up, down):  1.765E-01 0.000E+00

     total cpu time spent up to now is       10.2 secs

     total energy              =     134.91891135 Ry
     Harris-Foulkes estimate   =   -1081.97340935 Ry
     estimated scf accuracy    <      19.16473537 Ry

     iteration # 85     ecut=    30.00 Ry     beta=0.70
     Davidson diagonalization with overlap
     ethr =  1.00E-02,  avg # of iterations =  7.0

     negative rho (up, down):  2.880E-02 0.000E+00

     total cpu time spent up to now is       10.2 secs

     total energy              =     151.97890768 Ry
     Harris-Foulkes estimate   =   -1834.58769635 Ry
     estimated scf accuracy    <      17.44946865 Ry

     iteration # 86     ecut=    30.00 Ry     beta=0.70
     Davidson diagonalization with overlap
     ethr =  1.00E-02,  avg # of iterations =  9.0

     negative rho (up, down):  7.223E-02 0.000E+00

     total cpu time spent up to now is       10.3 secs

     total energy              =      17.11793801 Ry
     Harris-Foulkes estimate   =    -349.49821869 Ry
     estimated scf accuracy    <      23.39759509 Ry

     iteration # 87     ecut=    30.00 Ry     beta=0.70
     Davidson diagonalization with overlap
     ethr =  1.00E-02,  avg # of iterations = 10.0

     negative rho (up, down):  2.719E-02 0.000E+00

     total cpu time spent up to now is       10.3 secs

     total energy              =      35.78093790 Ry
     Harris-Foulkes estimate   =    -884.83696531 Ry
     estimated scf accuracy    <      21.08526617 Ry

     iteration # 88     ecut=    30.00 Ry     beta=0.70
     Davidson diagonalization with overlap
     ethr =  1.00E-02,  avg # of iterations =  5.0

     negative rho (up, down):  4.482E-03 0.000E+00

     total cpu time spent up to now is       10.4 secs

     total energy              =     -86.42550140 Ry
     Harris-Foulkes estimate   =     -83.71177095 Ry
     estimated scf accuracy    <      69.20254636 Ry

     iteration # 89     ecut=    30.00 Ry     beta=0.70
     Davidson diagonalization with overlap
     ethr =  1.00E-02,  avg # of iterations =  5.0

     negative rho (up, down):  6.743E-03 0.000E+00

     total cpu time spent up to now is       10.4 secs

     total energy              =     -31.43209053 Ry
     Harris-Foulkes estimate   =    -168.13174608 Ry
     estimated scf accuracy    <      41.91896654 Ry

     iteration # 90     ecut=    30.00 Ry     beta=0.70
     Davidson diagonalization with overlap
     ethr =  1.00E-02,  avg # of iterations =  6.0

     negative rho (up, down):  4.824E-01 0.000E+00

     total cpu time spent up to now is       10.5 secs

     total energy              =    -193.89685394 Ry
     Harris-Foulkes estimate   =     -93.35247576 Ry
     estimated scf accuracy    <      78.59256254 Ry

     iteration # 91     ecut=    30.00 Ry     beta=0.70
     Davidson diagonalization with overlap
     ethr =  1.00E-02,  avg # of iterations =  5.0

     negative rho (up, down):  4.465E-01 0.000E+00

     total cpu time spent up to now is       10.5 secs

     total energy              =    -369.64614409 Ry
     Harris-Foulkes estimate   =    -425.08595673 Ry
     estimated scf accuracy    <      94.35405940 Ry

     iteration # 92     ecut=    30.00 Ry     beta=0.70
     Davidson diagonalization with overlap
     ethr =  1.00E-02,  avg # of iterations =  4.0

     negative rho (up, down):  3.345E-01 0.000E+00

     total cpu time spent up to now is       10.6 secs

     total energy              =     -26.72254889 Ry
     Harris-Foulkes estimate   =   -1210.90890419 Ry
     estimated scf accuracy    <      99.22088260 Ry

     iteration # 93     ecut=    30.00 Ry     beta=0.70
     Davidson diagonalization with overlap
     ethr =  1.00E-02,  avg # of iterations =  6.0

     negative rho (up, down):  3.583E-01 0.000E+00

     total cpu time spent up to now is       10.6 secs

     total energy              =    -100.39750501 Ry
     Harris-Foulkes estimate   =    -187.28703552 Ry
     estimated scf accuracy    <      93.07196343 Ry

     iteration # 94     ecut=    30.00 Ry     beta=0.70
     Davidson diagonalization with overlap
     ethr =  1.00E-02,  avg # of iterations =  5.0

     negative rho (up, down):  1.549E-01 0.000E+00

     total cpu time spent up to now is       10.7 secs

     total energy              =     -92.62826991 Ry
     Harris-Foulkes estimate   =    -176.97888395 Ry
     estimated scf accuracy    <      90.85605409 Ry

     iteration # 95     ecut=    30.00 Ry     beta=0.70
     Davidson diagonalization with overlap
     ethr =  1.00E-02,  avg # of iterations =  6.0

     negative rho (up, down):  4.822E-01 0.000E+00

     total cpu time spent up to now is       10.7 secs

     total energy              =     -42.53393436 Ry
     Harris-Foulkes estimate   =   -1651.93688613 Ry
     estimated scf accuracy    <      45.48887499 Ry

     iteration # 96     ecut=    30.00 Ry     beta=0.70
     Davidson diagonalization with overlap
     ethr =  1.00E-02,  avg # of iterations =  7.0

     negative rho (up, down):  1.013E+00 0.000E+00

     total cpu time spent up to now is       10.8 secs

     total energy              =     -40.68410813 Ry
     Harris-Foulkes estimate   =   -1372.69703337 Ry
     estimated scf accuracy    <      71.12549927 Ry

     iteration # 97     ecut=    30.00 Ry     beta=0.70
     Davidson diagonalization with overlap
     ethr =  1.00E-02,  avg # of iterations =  7.0

     negative rho (up, down):  9.485E-01 0.000E+00

     total cpu time spent up to now is       10.8 secs

     total energy              =      34.22112799 Ry
     Harris-Foulkes estimate   =   -2217.23622088 Ry
     estimated scf accuracy    <      31.33800451 Ry

     iteration # 98     ecut=    30.00 Ry     beta=0.70
     Davidson diagonalization with overlap
     ethr =  1.00E-02,  avg # of iterations =  8.0

     negative rho (up, down):  1.290E+00 0.000E+00

     total cpu time spent up to now is       10.9 secs

     total energy              =     153.51351896 Ry
     Harris-Foulkes estimate   =   -3172.00351941 Ry
     estimated scf accuracy    <      28.78650384 Ry

     iteration # 99     ecut=    30.00 Ry     beta=0.70
     Davidson diagonalization with overlap
     ethr =  1.00E-02,  avg # of iterations =  5.0

     negative rho (up, down):  9.002E-01 0.000E+00

     total cpu time spent up to now is       11.0 secs

     total energy              =      34.47766356 Ry
     Harris-Foulkes estimate   =  -10297.82530233 Ry
     estimated scf accuracy    <      19.94271046 Ry

     iteration #100     ecut=    30.00 Ry     beta=0.70
     Davidson diagonalization with overlap
     ethr =  1.00E-02,  avg # of iterations = 11.0

     negative rho (up, down):  6.854E-01 0.000E+00

     total cpu time spent up to now is       11.0 secs

     total energy              =      43.80672918 Ry
     Harris-Foulkes estimate   =   -1197.19955320 Ry
     estimated scf accuracy    <      23.88604590 Ry

     End of self-consistent calculation

     convergence NOT achieved after 100 iterations: stopping

     Writing output data file pwscf.save
 
     init_run     :      0.10s CPU      0.11s WALL (       1 calls)
     electrons    :      7.82s CPU      9.87s WALL (       4 calls)
     update_pot   :      0.35s CPU      0.65s WALL (       3 calls)
     forces       :      0.07s CPU      0.08s WALL (       3 calls)

     Called by init_run:
     wfcinit      :      0.01s CPU      0.02s WALL (       1 calls)
     potinit      :      0.02s CPU      0.03s WALL (       1 calls)

     Called by electrons:
     c_bands      :      3.78s CPU      3.99s WALL (     195 calls)
     sum_band     :      0.57s CPU      0.61s WALL (     195 calls)
     v_of_rho     :      1.45s CPU      1.54s WALL (     199 calls)
     mix_rho      :      1.72s CPU      2.82s WALL (     195 calls)

     Called by c_bands:
     init_us_2    :      0.02s CPU      0.02s WALL (     391 calls)
     cegterg      :      3.74s CPU      3.89s WALL (     195 calls)

     Called by sum_band:

     Called by *egterg:
     h_psi        :      3.12s CPU      3.24s WALL (    1140 calls)
     g_psi        :      0.03s CPU      0.03s WALL (     944 calls)
     cdiaghg      :      0.23s CPU      0.24s WALL (    1136 calls)

     Called by h_psi:
     h_psi:pot    :      3.10s CPU      3.22s WALL (    1140 calls)
     h_psi:calbec :      0.05s CPU      0.09s WALL (    1140 calls)
     vloc_psi     :      3.04s CPU      3.11s WALL (    1140 calls)
     add_vuspsi   :      0.01s CPU      0.01s WALL (    1140 calls)

     General routines
     calbec       :      0.06s CPU      0.12s WALL (    1154 calls)
     fft          :      0.98s CPU      1.05s WALL (    2195 calls)
     fftw         :      3.12s CPU      3.21s WALL (   13786 calls)
     davcio       :      0.21s CPU      0.94s WALL (    3557 calls)
 
     Parallel routines
     fft_scatter  :      1.56s CPU      1.66s WALL (   15981 calls)
 
     PWSCF        :     8.50s CPU        11.25s WALL

 
   This run was terminated on:   8: 7:46  14Feb2018            

=------------------------------------------------------------------------------=
   JOB DONE.
=------------------------------------------------------------------------------=
