
     Program PWSCF v.6.0 (svn rev. 13079) starts on 14Feb2018 at  8: 8: 0 

     This program is part of the open-source Quantum ESPRESSO suite
     for quantum simulation of materials; please cite
         "P. Giannozzi et al., J. Phys.:Condens. Matter 21 395502 (2009);
          URL http://www.quantum-espresso.org", 
     in publications or presentations arising from this work. More details at
     http://www.quantum-espresso.org/quote

     Parallel version (MPI), running on    28 processors
     R & G space division:  proc/nbgrp/npool/nimage =      28
     Reading input from inputs/MD-H2O-2/284.in

     Current dimensions of program PWSCF are:
     Max number of different atomic species (ntypx) = 10
     Max number of k-points (npk) =  40000
     Max angular momentum in pseudopotentials (lmaxx) =  3

     Subspace diagonalization in iterative solution of the eigenvalue problem:
     a serial algorithm will be used

 
     Parallelization info
     --------------------
     sticks:   dense  smooth     PW     G-vecs:    dense   smooth      PW
     Min         136     136     33                 6338     6338     787
     Max         137     137     34                 6341     6341     792
     Sum        3809    3809    949               177509   177509   22119
 


     bravais-lattice index     =            1
     lattice parameter (alat)  =      20.0000  a.u.
     unit-cell volume          =    8000.0000 (a.u.)^3
     number of atoms/cell      =            3
     number of atomic types    =            2
     number of electrons       =         8.00
     number of Kohn-Sham states=            8
     kinetic-energy cutoff     =      30.0000  Ry
     charge density cutoff     =     120.0000  Ry
     convergence threshold     =      1.0E-08
     mixing beta               =       0.7000
     number of iterations used =            8  plain     mixing
     Exchange-correlation      = BLYP ( 1  3  1  3 0 0)
     nstep                     =         5000


     celldm(1)=  20.000000  celldm(2)=   0.000000  celldm(3)=   0.000000
     celldm(4)=   0.000000  celldm(5)=   0.000000  celldm(6)=   0.000000

     crystal axes: (cart. coord. in units of alat)
               a(1) = (   1.000000   0.000000   0.000000 )  
               a(2) = (   0.000000   1.000000   0.000000 )  
               a(3) = (   0.000000   0.000000   1.000000 )  

     reciprocal axes: (cart. coord. in units 2 pi/alat)
               b(1) = (  1.000000  0.000000  0.000000 )  
               b(2) = (  0.000000  1.000000  0.000000 )  
               b(3) = (  0.000000  0.000000  1.000000 )  


     PseudoPot. # 1 for  H read from file:
     ./H.blyp-hgh.UPF
     MD5 check sum: c576e69559cde411e611be972c763230
     Pseudo is Norm-conserving, Zval =  1.0
     Generated in analytical, separable form
     Using radial grid of  929 points,  0 beta functions with: 

     PseudoPot. # 2 for  O read from file:
     ./O.blyp-hgh.UPF
     MD5 check sum: d0b7156309aa9befef28faac7bc56342
     Pseudo is Norm-conserving, Zval =  6.0
     Generated in analytical, separable form
     Using radial grid of 1095 points,  1 beta functions with: 
                l(1) =   0

     atomic species   valence    mass     pseudopotential
        H              1.00     1.01000      H( 1.00)
        O              6.00    16.00000      O( 1.00)

     No symmetry found



   Cartesian axes

     site n.     atom                  positions (alat units)
         1           H   tau(   1) = (   0.9822276   0.6596895   0.9082905  )
         2           H   tau(   2) = (   0.5178547   0.8473622   0.0074047  )
         3           O   tau(   3) = (   0.4884910   0.8649562   0.9141078  )

     number of k points=     1  Marzari-Vanderbilt smearing, width (Ry)=  0.0250
                       cart. coord. in units 2pi/alat
        k(    1) = (   0.0000000   0.0000000   0.0000000), wk =   2.0000000

     Dense  grid:   177509 G-vectors     FFT dimensions: (  72,  72,  72)

     Estimated max dynamical RAM per process >       6.09Mb

     Estimated total allocated dynamical RAM >     170.64Mb

     Initial potential from superposition of free atoms
     Check: negative starting charge=   -0.346108

     starting charge    7.99998, renormalised to    8.00000

     negative rho (up, down):  3.461E-01 0.000E+00
     Starting wfc are    6 randomized atomic wfcs +    2 random wfc

     total cpu time spent up to now is        0.3 secs

     per-process dynamical memory:    18.8 Mb

     Self-consistent Calculation

     iteration #  1     ecut=    30.00 Ry     beta=0.70
     Davidson diagonalization with overlap
     ethr =  1.00E-02,  avg # of iterations =  9.0

     negative rho (up, down):  9.041E-02 0.000E+00

     total cpu time spent up to now is        0.3 secs

     total energy              =     -30.37645452 Ry
     Harris-Foulkes estimate   =     -32.23080368 Ry
     estimated scf accuracy    <       2.14091793 Ry

     iteration #  2     ecut=    30.00 Ry     beta=0.70
     Davidson diagonalization with overlap
     ethr =  1.00E-02,  avg # of iterations =  4.0

     negative rho (up, down):  6.574E-02 0.000E+00

     total cpu time spent up to now is        0.4 secs

     total energy              =     -32.28160589 Ry
     Harris-Foulkes estimate   =     -34.53354369 Ry
     estimated scf accuracy    <       5.48630351 Ry

     iteration #  3     ecut=    30.00 Ry     beta=0.70
     Davidson diagonalization with overlap
     ethr =  1.00E-02,  avg # of iterations =  2.0

     negative rho (up, down):  6.307E-02 0.000E+00

     total cpu time spent up to now is        0.4 secs

     total energy              =     -32.42594637 Ry
     Harris-Foulkes estimate   =     -32.51510389 Ry
     estimated scf accuracy    <       1.77221104 Ry

     iteration #  4     ecut=    30.00 Ry     beta=0.70
     Davidson diagonalization with overlap
     ethr =  1.00E-02,  avg # of iterations =  1.0

     negative rho (up, down):  1.151E-02 0.000E+00

     total cpu time spent up to now is        0.4 secs

     total energy              =     -31.31476230 Ry
     Harris-Foulkes estimate   =     -32.42628402 Ry
     estimated scf accuracy    <       1.64834716 Ry

     iteration #  5     ecut=    30.00 Ry     beta=0.70
     Davidson diagonalization with overlap
     ethr =  1.00E-02,  avg # of iterations =  4.0

     negative rho (up, down):  2.180E-02 0.000E+00

     total cpu time spent up to now is        0.5 secs

     total energy              =     -33.31580681 Ry
     Harris-Foulkes estimate   =     -33.18219634 Ry
     estimated scf accuracy    <       6.77746995 Ry

     iteration #  6     ecut=    30.00 Ry     beta=0.70
     Davidson diagonalization with overlap
     ethr =  1.00E-02,  avg # of iterations =  1.0

     negative rho (up, down):  1.576E-02 0.000E+00

     total cpu time spent up to now is        0.5 secs

     total energy              =     -32.85769470 Ry
     Harris-Foulkes estimate   =     -33.33160450 Ry
     estimated scf accuracy    <       9.00800075 Ry

     iteration #  7     ecut=    30.00 Ry     beta=0.70
     Davidson diagonalization with overlap
     ethr =  1.00E-02,  avg # of iterations =  1.0

     negative rho (up, down):  1.860E-02 0.000E+00

     total cpu time spent up to now is        0.5 secs

     total energy              =     -32.79452076 Ry
     Harris-Foulkes estimate   =     -32.97103497 Ry
     estimated scf accuracy    <       3.17584325 Ry

     iteration #  8     ecut=    30.00 Ry     beta=0.70
     Davidson diagonalization with overlap
     ethr =  1.00E-02,  avg # of iterations =  1.0

     negative rho (up, down):  4.543E-02 0.000E+00

     total cpu time spent up to now is        0.6 secs

     total energy              =     -32.44201380 Ry
     Harris-Foulkes estimate   =     -32.79835130 Ry
     estimated scf accuracy    <       2.77953843 Ry

     iteration #  9     ecut=    30.00 Ry     beta=0.70
     Davidson diagonalization with overlap
     ethr =  1.00E-02,  avg # of iterations =  1.0

     negative rho (up, down):  4.486E-02 0.000E+00

     total cpu time spent up to now is        0.6 secs

     total energy              =     -32.04218127 Ry
     Harris-Foulkes estimate   =     -32.45108255 Ry
     estimated scf accuracy    <       2.10474665 Ry

     iteration # 10     ecut=    30.00 Ry     beta=0.70
     Davidson diagonalization with overlap
     ethr =  1.00E-02,  avg # of iterations =  1.0

     negative rho (up, down):  4.488E-02 0.000E+00

     total cpu time spent up to now is        0.6 secs

     total energy              =     -32.33801980 Ry
     Harris-Foulkes estimate   =     -32.05787005 Ry
     estimated scf accuracy    <       1.37143198 Ry

     iteration # 11     ecut=    30.00 Ry     beta=0.70
     Davidson diagonalization with overlap
     ethr =  1.00E-02,  avg # of iterations =  1.0

     negative rho (up, down):  2.308E-02 0.000E+00

     total cpu time spent up to now is        0.7 secs

     total energy              =     -32.12275346 Ry
     Harris-Foulkes estimate   =     -32.34436081 Ry
     estimated scf accuracy    <       1.84491269 Ry

     iteration # 12     ecut=    30.00 Ry     beta=0.70
     Davidson diagonalization with overlap
     ethr =  1.00E-02,  avg # of iterations =  1.0

     negative rho (up, down):  1.709E-01 0.000E+00

     total cpu time spent up to now is        0.7 secs

     total energy              =     -31.84547468 Ry
     Harris-Foulkes estimate   =     -32.12628749 Ry
     estimated scf accuracy    <       1.47699831 Ry

     iteration # 13     ecut=    30.00 Ry     beta=0.70
     Davidson diagonalization with overlap
     ethr =  1.00E-02,  avg # of iterations =  1.0

     negative rho (up, down):  2.631E-01 0.000E+00

     total cpu time spent up to now is        0.7 secs

     total energy              =     -31.82956462 Ry
     Harris-Foulkes estimate   =     -31.99474878 Ry
     estimated scf accuracy    <       0.86473967 Ry

     iteration # 14     ecut=    30.00 Ry     beta=0.70
     Davidson diagonalization with overlap
     ethr =  1.00E-02,  avg # of iterations =  1.0

     negative rho (up, down):  2.202E-02 0.000E+00

     total cpu time spent up to now is        0.8 secs

     total energy              =     -31.77295145 Ry
     Harris-Foulkes estimate   =     -32.08743854 Ry
     estimated scf accuracy    <       1.44964531 Ry

     iteration # 15     ecut=    30.00 Ry     beta=0.70
     Davidson diagonalization with overlap
     ethr =  1.00E-02,  avg # of iterations =  1.0

     negative rho (up, down):  8.369E-04 0.000E+00

     total cpu time spent up to now is        0.8 secs

     total energy              =     -32.06101788 Ry
     Harris-Foulkes estimate   =     -32.07284573 Ry
     estimated scf accuracy    <       1.00527136 Ry

     iteration # 16     ecut=    30.00 Ry     beta=0.70
     Davidson diagonalization with overlap
     ethr =  1.00E-02,  avg # of iterations =  1.0

     negative rho (up, down):  7.064E-06 0.000E+00

     total cpu time spent up to now is        0.8 secs

     total energy              =     -31.99745632 Ry
     Harris-Foulkes estimate   =     -32.06379024 Ry
     estimated scf accuracy    <       1.02703696 Ry

     iteration # 17     ecut=    30.00 Ry     beta=0.70
     Davidson diagonalization with overlap
     ethr =  1.00E-02,  avg # of iterations =  1.0

     negative rho (up, down):  4.469E-06 0.000E+00

     total cpu time spent up to now is        0.9 secs

     total energy              =     -32.02883710 Ry
     Harris-Foulkes estimate   =     -31.99767179 Ry
     estimated scf accuracy    <       0.95252088 Ry

     iteration # 18     ecut=    30.00 Ry     beta=0.70
     Davidson diagonalization with overlap
     ethr =  1.00E-02,  avg # of iterations =  1.0

     negative rho (up, down):  2.480E-05 0.000E+00

     total cpu time spent up to now is        0.9 secs

     total energy              =     -32.02298015 Ry
     Harris-Foulkes estimate   =     -32.02890028 Ry
     estimated scf accuracy    <       0.99921988 Ry

     iteration # 19     ecut=    30.00 Ry     beta=0.70
     Davidson diagonalization with overlap
     ethr =  1.00E-02,  avg # of iterations =  1.0

     negative rho (up, down):  2.581E-04 0.000E+00

     total cpu time spent up to now is        0.9 secs

     total energy              =     -31.97649482 Ry
     Harris-Foulkes estimate   =     -32.02299211 Ry
     estimated scf accuracy    <       0.99227240 Ry

     iteration # 20     ecut=    30.00 Ry     beta=0.70
     Davidson diagonalization with overlap
     ethr =  1.00E-02,  avg # of iterations =  1.0

     negative rho (up, down):  2.324E-03 0.000E+00

     total cpu time spent up to now is        1.0 secs

     total energy              =     -31.84808143 Ry
     Harris-Foulkes estimate   =     -31.97666213 Ry
     estimated scf accuracy    <       0.90079734 Ry

     iteration # 21     ecut=    30.00 Ry     beta=0.70
     Davidson diagonalization with overlap
     ethr =  1.00E-02,  avg # of iterations =  1.0

     negative rho (up, down):  1.271E-03 0.000E+00

     total cpu time spent up to now is        1.0 secs

     total energy              =     -31.94348384 Ry
     Harris-Foulkes estimate   =     -32.04126025 Ry
     estimated scf accuracy    <       1.29374899 Ry

     iteration # 22     ecut=    30.00 Ry     beta=0.70
     Davidson diagonalization with overlap
     ethr =  1.00E-02,  avg # of iterations =  1.0

     total cpu time spent up to now is        1.0 secs

     total energy              =     -31.91489566 Ry
     Harris-Foulkes estimate   =     -31.94776669 Ry
     estimated scf accuracy    <       0.10809970 Ry

     iteration # 23     ecut=    30.00 Ry     beta=0.70
     Davidson diagonalization with overlap
     ethr =  1.35E-03,  avg # of iterations =  1.0

     negative rho (up, down):  1.315E-06 0.000E+00

     total cpu time spent up to now is        1.1 secs

     total energy              =     -31.98375308 Ry
     Harris-Foulkes estimate   =     -32.02927445 Ry
     estimated scf accuracy    <       0.98246911 Ry

     iteration # 24     ecut=    30.00 Ry     beta=0.70
     Davidson diagonalization with overlap
     ethr =  1.35E-03,  avg # of iterations =  1.0

     negative rho (up, down):  1.242E-05 0.000E+00

     total cpu time spent up to now is        1.1 secs

     total energy              =     -31.97111534 Ry
     Harris-Foulkes estimate   =     -31.98394414 Ry
     estimated scf accuracy    <       0.90746208 Ry

     iteration # 25     ecut=    30.00 Ry     beta=0.70
     Davidson diagonalization with overlap
     ethr =  1.35E-03,  avg # of iterations =  1.0

     negative rho (up, down):  9.030E-08 0.000E+00

     total cpu time spent up to now is        1.1 secs

     total energy              =     -31.97213610 Ry
     Harris-Foulkes estimate   =     -31.97134543 Ry
     estimated scf accuracy    <       0.83137523 Ry

     iteration # 26     ecut=    30.00 Ry     beta=0.70
     Davidson diagonalization with overlap
     ethr =  1.35E-03,  avg # of iterations =  1.0

     negative rho (up, down):  1.591E-08 0.000E+00

     total cpu time spent up to now is        1.2 secs

     total energy              =     -31.98714452 Ry
     Harris-Foulkes estimate   =     -31.97217326 Ry
     estimated scf accuracy    <       0.84530638 Ry

     iteration # 27     ecut=    30.00 Ry     beta=0.70
     Davidson diagonalization with overlap
     ethr =  1.35E-03,  avg # of iterations =  1.0

     negative rho (up, down):  1.430E-05 0.000E+00

     total cpu time spent up to now is        1.2 secs

     total energy              =     -31.94962131 Ry
     Harris-Foulkes estimate   =     -31.98744706 Ry
     estimated scf accuracy    <       0.91575915 Ry

     iteration # 28     ecut=    30.00 Ry     beta=0.70
     Davidson diagonalization with overlap
     ethr =  1.35E-03,  avg # of iterations =  1.0

     negative rho (up, down):  2.200E-06 0.000E+00

     total cpu time spent up to now is        1.2 secs

     total energy              =     -31.91805820 Ry
     Harris-Foulkes estimate   =     -31.95289188 Ry
     estimated scf accuracy    <       0.38135390 Ry

     iteration # 29     ecut=    30.00 Ry     beta=0.70
     Davidson diagonalization with overlap
     ethr =  1.35E-03,  avg # of iterations =  1.0

     total cpu time spent up to now is        1.3 secs

     total energy              =     -31.88580468 Ry
     Harris-Foulkes estimate   =     -31.97339345 Ry
     estimated scf accuracy    <       1.51270455 Ry

     iteration # 30     ecut=    30.00 Ry     beta=0.70
     Davidson diagonalization with overlap
     ethr =  1.35E-03,  avg # of iterations =  1.0

     negative rho (up, down):  1.664E-08 0.000E+00

     total cpu time spent up to now is        1.3 secs

     total energy              =     -31.95602794 Ry
     Harris-Foulkes estimate   =     -31.96359104 Ry
     estimated scf accuracy    <       0.72311219 Ry

     iteration # 31     ecut=    30.00 Ry     beta=0.70
     Davidson diagonalization with overlap
     ethr =  1.35E-03,  avg # of iterations =  1.0

     total cpu time spent up to now is        1.3 secs

     total energy              =     -31.95691315 Ry
     Harris-Foulkes estimate   =     -31.95651812 Ry
     estimated scf accuracy    <       0.52697799 Ry

     iteration # 32     ecut=    30.00 Ry     beta=0.70
     Davidson diagonalization with overlap
     ethr =  1.35E-03,  avg # of iterations =  1.0

     negative rho (up, down):  8.484E-08 0.000E+00

     total cpu time spent up to now is        1.4 secs

     total energy              =     -31.93911002 Ry
     Harris-Foulkes estimate   =     -31.95691701 Ry
     estimated scf accuracy    <       0.54206150 Ry

     iteration # 33     ecut=    30.00 Ry     beta=0.70
     Davidson diagonalization with overlap
     ethr =  1.35E-03,  avg # of iterations =  1.0

     total cpu time spent up to now is        1.4 secs

     total energy              =     -31.94635547 Ry
     Harris-Foulkes estimate   =     -31.94635090 Ry
     estimated scf accuracy    <       0.00206771 Ry

     iteration # 34     ecut=    30.00 Ry     beta=0.70
     Davidson diagonalization with overlap
     ethr =  2.58E-05,  avg # of iterations = 14.0

     total cpu time spent up to now is        1.5 secs

     total energy              =     -31.94636300 Ry
     Harris-Foulkes estimate   =     -31.94635807 Ry
     estimated scf accuracy    <       0.00249514 Ry

     iteration # 35     ecut=    30.00 Ry     beta=0.70
     Davidson diagonalization with overlap
     ethr =  2.58E-05,  avg # of iterations =  1.0

     total cpu time spent up to now is        1.5 secs

     total energy              =     -31.94632668 Ry
     Harris-Foulkes estimate   =     -31.94636350 Ry
     estimated scf accuracy    <       0.00284531 Ry

     iteration # 36     ecut=    30.00 Ry     beta=0.70
     Davidson diagonalization with overlap
     ethr =  2.58E-05,  avg # of iterations =  1.0

     total cpu time spent up to now is        1.5 secs

     total energy              =     -31.94627971 Ry
     Harris-Foulkes estimate   =     -31.94633568 Ry
     estimated scf accuracy    <       0.00074812 Ry

     iteration # 37     ecut=    30.00 Ry     beta=0.70
     Davidson diagonalization with overlap
     ethr =  9.35E-06,  avg # of iterations =  1.0

     total cpu time spent up to now is        1.6 secs

     total energy              =     -31.94621974 Ry
     Harris-Foulkes estimate   =     -31.94636270 Ry
     estimated scf accuracy    <       0.00278110 Ry

     iteration # 38     ecut=    30.00 Ry     beta=0.70
     Davidson diagonalization with overlap
     ethr =  9.35E-06,  avg # of iterations =  1.0

     total cpu time spent up to now is        1.6 secs

     total energy              =     -31.94628603 Ry
     Harris-Foulkes estimate   =     -31.94636455 Ry
     estimated scf accuracy    <       0.00275696 Ry

     iteration # 39     ecut=    30.00 Ry     beta=0.70
     Davidson diagonalization with overlap
     ethr =  9.35E-06,  avg # of iterations =  1.0

     total cpu time spent up to now is        1.6 secs

     total energy              =     -31.94632619 Ry
     Harris-Foulkes estimate   =     -31.94632782 Ry
     estimated scf accuracy    <       0.00001589 Ry

     iteration # 40     ecut=    30.00 Ry     beta=0.70
     Davidson diagonalization with overlap
     ethr =  1.99E-07,  avg # of iterations = 19.0

     total cpu time spent up to now is        1.7 secs

     total energy              =     -31.94632699 Ry
     Harris-Foulkes estimate   =     -31.94632888 Ry
     estimated scf accuracy    <       0.00010623 Ry

     iteration # 41     ecut=    30.00 Ry     beta=0.70
     Davidson diagonalization with overlap
     ethr =  1.99E-07,  avg # of iterations =  1.0

     total cpu time spent up to now is        1.7 secs

     total energy              =     -31.94632738 Ry
     Harris-Foulkes estimate   =     -31.94632766 Ry
     estimated scf accuracy    <       0.00001002 Ry

     iteration # 42     ecut=    30.00 Ry     beta=0.70
     Davidson diagonalization with overlap
     ethr =  1.25E-07,  avg # of iterations =  1.0

     total cpu time spent up to now is        1.7 secs

     End of self-consistent calculation

          k = 0.0000 0.0000 0.0000 ( 22119 PWs)   bands (ev):

   -24.7779 -10.6246  -7.0350  -7.0345  -6.8932  -0.6926   0.3538   0.7974

     the Fermi energy is    -6.8637 ev

!    total energy              =     -31.94632752 Ry
     Harris-Foulkes estimate   =     -31.94632752 Ry
     estimated scf accuracy    <          3.3E-09 Ry

     convergence has been achieved in  42 iterations

     Forces acting on atoms (Ry/au):

     atom    1 type  1   force =    -0.00052805   -0.00062771    0.00015056
     atom    2 type  1   force =     0.00447022   -0.00351843    0.01660722
     atom    3 type  2   force =    -0.00394217    0.00414615   -0.01675778

     Total force =     0.024948     Total SCF correction =     0.000081

     Molecular Dynamics Calculation

     Starting temperature  =  1000.00 K

     temperature is controlled by Andersen thermostat
     Collision frequency = 1.0000/timestep
     mass H                =     1.01
     mass O                =    16.00
     Time step             =   100.00 a.u.,  4.8378 femto-seconds

     Entering Dynamics:    iteration =     1
                           time      =   0.0048 pico-seconds


     Andersen thermostat:    3 collisions

ATOMIC_POSITIONS (bohr)
H       19.873241989  13.466920741  17.968499914
H       10.387904298  17.157146686   0.049399721
O        9.753438981  17.268632452  18.300841276


     kinetic energy (Ekin) =     0.01319564 Ry
     temperature           =   694.47456190 K 
     Ekin + Etot (const)   =   -31.93313188 Ry

     Linear momentum :   -0.0000000000    0.0000000000    0.0000000000

     Writing output data file pwscf.save
     Check: negative starting charge=   -0.346108
     NEW-OLD atomic charge density approx. for the potential
     Check: negative starting charge=   -0.345249

     negative rho (up, down):  8.095E-02 0.000E+00

     total cpu time spent up to now is        2.2 secs

     per-process dynamical memory:    20.4 Mb

     Self-consistent Calculation

     iteration #  1     ecut=    30.00 Ry     beta=0.70
     Davidson diagonalization with overlap
     ethr =  1.00E-06,  avg # of iterations = 20.0

     negative rho (up, down):  2.058E-02 0.000E+00

     total cpu time spent up to now is        2.4 secs

     total energy              =     -31.60443374 Ry
     Harris-Foulkes estimate   =     -31.87962250 Ry
     estimated scf accuracy    <       0.41045317 Ry

     iteration #  2     ecut=    30.00 Ry     beta=0.70
     Davidson diagonalization with overlap
     ethr =  5.13E-03,  avg # of iterations =  2.0

     negative rho (up, down):  1.299E-04 0.000E+00

     total cpu time spent up to now is        2.5 secs

     total energy              =     -31.44402896 Ry
     Harris-Foulkes estimate   =     -32.99207388 Ry
     estimated scf accuracy    <       6.56803355 Ry

     iteration #  3     ecut=    30.00 Ry     beta=0.70
     Davidson diagonalization with overlap
     ethr =  5.13E-03,  avg # of iterations =  2.0

     negative rho (up, down):  1.697E-03 0.000E+00

     total cpu time spent up to now is        2.5 secs

     total energy              =     -31.99836203 Ry
     Harris-Foulkes estimate   =     -32.11048065 Ry
     estimated scf accuracy    <       1.47014317 Ry

     iteration #  4     ecut=    30.00 Ry     beta=0.70
     Davidson diagonalization with overlap
     ethr =  5.13E-03,  avg # of iterations =  1.0

     negative rho (up, down):  1.291E-02 0.000E+00

     total cpu time spent up to now is        2.6 secs

     total energy              =     -31.90604446 Ry
     Harris-Foulkes estimate   =     -32.00100469 Ry
     estimated scf accuracy    <       1.30708936 Ry

     iteration #  5     ecut=    30.00 Ry     beta=0.70
     Davidson diagonalization with overlap
     ethr =  5.13E-03,  avg # of iterations =  1.0

     negative rho (up, down):  3.544E-03 0.000E+00

     total cpu time spent up to now is        2.6 secs

     total energy              =     -31.93349950 Ry
     Harris-Foulkes estimate   =     -31.92440183 Ry
     estimated scf accuracy    <       0.02500988 Ry

     iteration #  6     ecut=    30.00 Ry     beta=0.70
     Davidson diagonalization with overlap
     ethr =  3.13E-04,  avg # of iterations =  4.0

     negative rho (up, down):  2.609E-04 0.000E+00

     total cpu time spent up to now is        2.6 secs

     total energy              =     -31.93577719 Ry
     Harris-Foulkes estimate   =     -31.93398091 Ry
     estimated scf accuracy    <       0.00027598 Ry

     iteration #  7     ecut=    30.00 Ry     beta=0.70
     Davidson diagonalization with overlap
     c_bands:  1 eigenvalues not converged
     ethr =  3.45E-06,  avg # of iterations = 20.0

     negative rho (up, down):  9.048E-05 0.000E+00

     total cpu time spent up to now is        2.7 secs

     total energy              =     -31.93479729 Ry
     Harris-Foulkes estimate   =     -31.93656747 Ry
     estimated scf accuracy    <       0.06642741 Ry

     iteration #  8     ecut=    30.00 Ry     beta=0.70
     Davidson diagonalization with overlap
     ethr =  3.45E-06,  avg # of iterations = 13.0

     negative rho (up, down):  1.639E-06 0.000E+00

     total cpu time spent up to now is        2.7 secs

     total energy              =     -31.93576594 Ry
     Harris-Foulkes estimate   =     -31.93578926 Ry
     estimated scf accuracy    <       0.00038505 Ry

     iteration #  9     ecut=    30.00 Ry     beta=0.70
     Davidson diagonalization with overlap
     ethr =  3.45E-06,  avg # of iterations =  1.0

     total cpu time spent up to now is        2.8 secs

     total energy              =     -31.93578878 Ry
     Harris-Foulkes estimate   =     -31.93578902 Ry
     estimated scf accuracy    <       0.00048736 Ry

     iteration # 10     ecut=    30.00 Ry     beta=0.70
     Davidson diagonalization with overlap
     ethr =  3.45E-06,  avg # of iterations =  1.0

     total cpu time spent up to now is        2.8 secs

     total energy              =     -31.93578373 Ry
     Harris-Foulkes estimate   =     -31.93578919 Ry
     estimated scf accuracy    <       0.00036966 Ry

     iteration # 11     ecut=    30.00 Ry     beta=0.70
     Davidson diagonalization with overlap
     ethr =  3.45E-06,  avg # of iterations =  1.0

     total cpu time spent up to now is        2.8 secs

     total energy              =     -31.93578494 Ry
     Harris-Foulkes estimate   =     -31.93578618 Ry
     estimated scf accuracy    <       0.00003245 Ry

     iteration # 12     ecut=    30.00 Ry     beta=0.70
     Davidson diagonalization with overlap
     ethr =  4.06E-07,  avg # of iterations =  1.0

     total cpu time spent up to now is        2.9 secs

     total energy              =     -31.93578593 Ry
     Harris-Foulkes estimate   =     -31.93578711 Ry
     estimated scf accuracy    <       0.00005128 Ry

     iteration # 13     ecut=    30.00 Ry     beta=0.70
     Davidson diagonalization with overlap
     ethr =  4.06E-07,  avg # of iterations =  1.0

     total cpu time spent up to now is        2.9 secs

     total energy              =     -31.93578612 Ry
     Harris-Foulkes estimate   =     -31.93578631 Ry
     estimated scf accuracy    <       0.00000341 Ry

     iteration # 14     ecut=    30.00 Ry     beta=0.70
     Davidson diagonalization with overlap
     ethr =  4.26E-08,  avg # of iterations =  1.0

     total cpu time spent up to now is        2.9 secs

     End of self-consistent calculation

          k = 0.0000 0.0000 0.0000 ( 22119 PWs)   bands (ev):

   -25.1249 -10.7873  -7.0644  -7.0636  -6.9211  -0.5772   0.4277   0.8032

     the Fermi energy is    -6.8924 ev

!    total energy              =     -31.93578615 Ry
     Harris-Foulkes estimate   =     -31.93578617 Ry
     estimated scf accuracy    <          5.9E-10 Ry

     convergence has been achieved in  14 iterations

     Forces acting on atoms (Ry/au):

     atom    1 type  1   force =    -0.00063299   -0.00073678   -0.00000431
     atom    2 type  1   force =     0.05323957   -0.01013587    0.14870652
     atom    3 type  2   force =    -0.05260658    0.01087264   -0.14870221

     Total force =     0.223718     Total SCF correction =     0.000165

     Entering Dynamics:    iteration =     2
                           time      =   0.0097 pico-seconds


     Andersen thermostat:    3 collisions

ATOMIC_POSITIONS (bohr)
H       19.918779528  13.635067026  18.113583793
H       11.029500510  16.893190422   1.841035126
O        9.710063663  17.274680457  18.178585871


     kinetic energy (Ekin) =     0.06181220 Ry
     temperature           =  3253.12119398 K 
     Ekin + Etot (const)   =   -31.87397395 Ry
     Message from routine dynamics:
     Total linear momentum <> 0

     Linear momentum :   -0.0482643422    0.4839037204    0.0463385468

     Writing output data file pwscf.save

     first order wave-functions extrapolation
     Check: negative starting charge=   -0.345249
     first order charge density extrapolation
     Check: negative starting charge=   -0.340956

     negative rho (up, down):  2.931E-01 0.000E+00

     total cpu time spent up to now is        3.2 secs

     per-process dynamical memory:    20.4 Mb

     Self-consistent Calculation

     iteration #  1     ecut=    30.00 Ry     beta=0.70
     Davidson diagonalization with overlap
     c_bands:  1 eigenvalues not converged
     ethr =  1.00E-06,  avg # of iterations = 20.0

     negative rho (up, down):  7.397E-02 0.000E+00

     total cpu time spent up to now is        3.5 secs

     total energy              =     -29.96541504 Ry
     Harris-Foulkes estimate   =     -31.89364785 Ry
     estimated scf accuracy    <       2.22423981 Ry

     iteration #  2     ecut=    30.00 Ry     beta=0.70
     Davidson diagonalization with overlap
     ethr =  1.00E-02,  avg # of iterations =  3.0

     negative rho (up, down):  5.611E-02 0.000E+00

     total cpu time spent up to now is        3.5 secs

     total energy              =     -31.97608596 Ry
     Harris-Foulkes estimate   =     -35.09779112 Ry
     estimated scf accuracy    <       8.41746668 Ry

     iteration #  3     ecut=    30.00 Ry     beta=0.70
     Davidson diagonalization with overlap
     ethr =  1.00E-02,  avg # of iterations =  2.0

     negative rho (up, down):  4.801E-02 0.000E+00

     total cpu time spent up to now is        3.6 secs

     total energy              =     -31.83078760 Ry
     Harris-Foulkes estimate   =     -32.26011386 Ry
     estimated scf accuracy    <       2.77734766 Ry

     iteration #  4     ecut=    30.00 Ry     beta=0.70
     Davidson diagonalization with overlap
     ethr =  1.00E-02,  avg # of iterations =  3.0

     negative rho (up, down):  4.600E-02 0.000E+00

     total cpu time spent up to now is        3.6 secs

     total energy              =     -31.82346442 Ry
     Harris-Foulkes estimate   =     -31.85419979 Ry
     estimated scf accuracy    <       1.61068543 Ry

     iteration #  5     ecut=    30.00 Ry     beta=0.70
     Davidson diagonalization with overlap
     ethr =  1.00E-02,  avg # of iterations =  1.0

     negative rho (up, down):  3.287E-03 0.000E+00

     total cpu time spent up to now is        3.7 secs

     total energy              =     -30.91458979 Ry
     Harris-Foulkes estimate   =     -31.82425700 Ry
     estimated scf accuracy    <       1.66214484 Ry

     iteration #  6     ecut=    30.00 Ry     beta=0.70
     Davidson diagonalization with overlap
     ethr =  1.00E-02,  avg # of iterations =  2.0

     negative rho (up, down):  1.323E-02 0.000E+00

     total cpu time spent up to now is        3.7 secs

     total energy              =     -33.41661609 Ry
     Harris-Foulkes estimate   =     -33.26244356 Ry
     estimated scf accuracy    <      11.28350224 Ry

     iteration #  7     ecut=    30.00 Ry     beta=0.70
     Davidson diagonalization with overlap
     ethr =  1.00E-02,  avg # of iterations =  1.0

     negative rho (up, down):  2.720E-02 0.000E+00

     total cpu time spent up to now is        3.7 secs

     total energy              =     -32.97250601 Ry
     Harris-Foulkes estimate   =     -33.42941812 Ry
     estimated scf accuracy    <      12.64646979 Ry

     iteration #  8     ecut=    30.00 Ry     beta=0.70
     Davidson diagonalization with overlap
     ethr =  1.00E-02,  avg # of iterations =  1.0

     negative rho (up, down):  1.488E-02 0.000E+00

     total cpu time spent up to now is        3.8 secs

     total energy              =     -32.75513900 Ry
     Harris-Foulkes estimate   =     -33.01868325 Ry
     estimated scf accuracy    <       6.28012005 Ry

     iteration #  9     ecut=    30.00 Ry     beta=0.70
     Davidson diagonalization with overlap
     ethr =  1.00E-02,  avg # of iterations =  1.0

     negative rho (up, down):  3.072E-03 0.000E+00

     total cpu time spent up to now is        3.8 secs

     total energy              =     -32.40451186 Ry
     Harris-Foulkes estimate   =     -32.78088619 Ry
     estimated scf accuracy    <       4.41825798 Ry

     iteration # 10     ecut=    30.00 Ry     beta=0.70
     Davidson diagonalization with overlap
     ethr =  1.00E-02,  avg # of iterations =  1.0

     negative rho (up, down):  4.151E-03 0.000E+00

     total cpu time spent up to now is        3.9 secs

     total energy              =     -31.93321871 Ry
     Harris-Foulkes estimate   =     -32.41661331 Ry
     estimated scf accuracy    <       3.31159036 Ry

     iteration # 11     ecut=    30.00 Ry     beta=0.70
     Davidson diagonalization with overlap
     ethr =  1.00E-02,  avg # of iterations =  1.0

     negative rho (up, down):  3.609E-03 0.000E+00

     total cpu time spent up to now is        3.9 secs

     total energy              =     -31.94162301 Ry
     Harris-Foulkes estimate   =     -31.95940820 Ry
     estimated scf accuracy    <       1.92691554 Ry

     iteration # 12     ecut=    30.00 Ry     beta=0.70
     Davidson diagonalization with overlap
     ethr =  1.00E-02,  avg # of iterations =  1.0

     negative rho (up, down):  1.447E-02 0.000E+00

     total cpu time spent up to now is        3.9 secs

     total energy              =     -31.37633937 Ry
     Harris-Foulkes estimate   =     -31.94287975 Ry
     estimated scf accuracy    <       1.96042245 Ry

     iteration # 13     ecut=    30.00 Ry     beta=0.70
     Davidson diagonalization with overlap
     ethr =  1.00E-02,  avg # of iterations =  1.0

     negative rho (up, down):  1.274E-02 0.000E+00

     total cpu time spent up to now is        4.0 secs

     total energy              =     -31.78259823 Ry
     Harris-Foulkes estimate   =     -31.85701529 Ry
     estimated scf accuracy    <       1.24546187 Ry

     iteration # 14     ecut=    30.00 Ry     beta=0.70
     Davidson diagonalization with overlap
     ethr =  1.00E-02,  avg # of iterations =  1.0

     negative rho (up, down):  7.913E-03 0.000E+00

     total cpu time spent up to now is        4.0 secs

     total energy              =     -31.68396837 Ry
     Harris-Foulkes estimate   =     -31.78352614 Ry
     estimated scf accuracy    <       1.16575108 Ry

     iteration # 15     ecut=    30.00 Ry     beta=0.70
     Davidson diagonalization with overlap
     ethr =  1.00E-02,  avg # of iterations =  1.0

     negative rho (up, down):  1.179E-05 0.000E+00

     total cpu time spent up to now is        4.0 secs

     total energy              =     -31.60801761 Ry
     Harris-Foulkes estimate   =     -31.68448550 Ry
     estimated scf accuracy    <       0.99000036 Ry

     iteration # 16     ecut=    30.00 Ry     beta=0.70
     Davidson diagonalization with overlap
     ethr =  1.00E-02,  avg # of iterations =  1.0

     negative rho (up, down):  1.859E-07 0.000E+00

     total cpu time spent up to now is        4.1 secs

     total energy              =     -31.67848494 Ry
     Harris-Foulkes estimate   =     -31.66020537 Ry
     estimated scf accuracy    <       0.92532492 Ry

     iteration # 17     ecut=    30.00 Ry     beta=0.70
     Davidson diagonalization with overlap
     ethr =  1.00E-02,  avg # of iterations =  1.0

     total cpu time spent up to now is        4.1 secs

     total energy              =     -31.58587504 Ry
     Harris-Foulkes estimate   =     -31.68207556 Ry
     estimated scf accuracy    <       1.58108941 Ry

     iteration # 18     ecut=    30.00 Ry     beta=0.70
     Davidson diagonalization with overlap
     ethr =  1.00E-02,  avg # of iterations =  1.0

     negative rho (up, down):  7.283E-07 0.000E+00

     total cpu time spent up to now is        4.1 secs

     total energy              =     -31.62449015 Ry
     Harris-Foulkes estimate   =     -31.66518909 Ry
     estimated scf accuracy    <       0.73256722 Ry

     iteration # 19     ecut=    30.00 Ry     beta=0.70
     Davidson diagonalization with overlap
     ethr =  9.16E-03,  avg # of iterations =  1.0

     negative rho (up, down):  1.567E-04 0.000E+00

     total cpu time spent up to now is        4.2 secs

     total energy              =     -31.66373673 Ry
     Harris-Foulkes estimate   =     -31.65129685 Ry
     estimated scf accuracy    <       0.30395367 Ry

     iteration # 20     ecut=    30.00 Ry     beta=0.70
     Davidson diagonalization with overlap
     ethr =  3.80E-03,  avg # of iterations =  1.0

     negative rho (up, down):  4.611E-04 0.000E+00

     total cpu time spent up to now is        4.2 secs

     total energy              =     -31.65007072 Ry
     Harris-Foulkes estimate   =     -31.67220726 Ry
     estimated scf accuracy    <       1.45332539 Ry

     iteration # 21     ecut=    30.00 Ry     beta=0.70
     Davidson diagonalization with overlap
     ethr =  3.80E-03,  avg # of iterations =  1.0

     negative rho (up, down):  7.509E-04 0.000E+00

     total cpu time spent up to now is        4.2 secs

     total energy              =     -31.65327972 Ry
     Harris-Foulkes estimate   =     -31.65390464 Ry
     estimated scf accuracy    <       0.50076792 Ry

     iteration # 22     ecut=    30.00 Ry     beta=0.70
     Davidson diagonalization with overlap
     ethr =  3.80E-03,  avg # of iterations =  1.0

     negative rho (up, down):  2.642E-04 0.000E+00

     total cpu time spent up to now is        4.3 secs

     total energy              =     -31.64470689 Ry
     Harris-Foulkes estimate   =     -31.65330139 Ry
     estimated scf accuracy    <       0.45611194 Ry

     iteration # 23     ecut=    30.00 Ry     beta=0.70
     Davidson diagonalization with overlap
     ethr =  3.80E-03,  avg # of iterations =  1.0

     negative rho (up, down):  1.712E-06 0.000E+00

     total cpu time spent up to now is        4.3 secs

     total energy              =     -31.64691388 Ry
     Harris-Foulkes estimate   =     -31.64786177 Ry
     estimated scf accuracy    <       0.02875482 Ry

     iteration # 24     ecut=    30.00 Ry     beta=0.70
     Davidson diagonalization with overlap
     ethr =  3.59E-04,  avg # of iterations =  1.0

     negative rho (up, down):  1.336E-05 0.000E+00

     total cpu time spent up to now is        4.3 secs

     total energy              =     -31.64755505 Ry
     Harris-Foulkes estimate   =     -31.64753403 Ry
     estimated scf accuracy    <       0.00261915 Ry

     iteration # 25     ecut=    30.00 Ry     beta=0.70
     Davidson diagonalization with overlap
     ethr =  3.27E-05,  avg # of iterations =  7.0

     negative rho (up, down):  1.595E-06 0.000E+00

     total cpu time spent up to now is        4.4 secs

     total energy              =     -31.64736995 Ry
     Harris-Foulkes estimate   =     -31.64755895 Ry
     estimated scf accuracy    <       0.00454998 Ry

     iteration # 26     ecut=    30.00 Ry     beta=0.70
     Davidson diagonalization with overlap
     ethr =  3.27E-05,  avg # of iterations =  1.0

     total cpu time spent up to now is        4.4 secs

     total energy              =     -31.64748692 Ry
     Harris-Foulkes estimate   =     -31.64751957 Ry
     estimated scf accuracy    <       0.00166023 Ry

     iteration # 27     ecut=    30.00 Ry     beta=0.70
     Davidson diagonalization with overlap
     ethr =  2.08E-05,  avg # of iterations =  1.0

     total cpu time spent up to now is        4.5 secs

     total energy              =     -31.64749872 Ry
     Harris-Foulkes estimate   =     -31.64750037 Ry
     estimated scf accuracy    <       0.00007037 Ry

     iteration # 28     ecut=    30.00 Ry     beta=0.70
     Davidson diagonalization with overlap
     c_bands:  1 eigenvalues not converged
     ethr =  8.80E-07,  avg # of iterations = 20.0

     total cpu time spent up to now is        4.5 secs

     total energy              =     -31.64749921 Ry
     Harris-Foulkes estimate   =     -31.64749936 Ry
     estimated scf accuracy    <       0.00000194 Ry

     iteration # 29     ecut=    30.00 Ry     beta=0.70
     Davidson diagonalization with overlap
     ethr =  2.42E-08,  avg # of iterations = 10.0

     total cpu time spent up to now is        4.6 secs

     total energy              =     -31.64749923 Ry
     Harris-Foulkes estimate   =     -31.64749928 Ry
     estimated scf accuracy    <       0.00000084 Ry

     iteration # 30     ecut=    30.00 Ry     beta=0.70
     Davidson diagonalization with overlap
     ethr =  1.05E-08,  avg # of iterations =  1.0

     total cpu time spent up to now is        4.6 secs

     End of self-consistent calculation

          k = 0.0000 0.0000 0.0000 ( 22119 PWs)   bands (ev):

   -23.5706  -8.2278  -6.8943  -6.8937  -6.7571  -5.4692  -0.1140   0.7292

     the Fermi energy is    -6.7245 ev

!    total energy              =     -31.64749924 Ry
     Harris-Foulkes estimate   =     -31.64749924 Ry
     estimated scf accuracy    <          3.0E-10 Ry

     convergence has been achieved in  30 iterations

     Forces acting on atoms (Ry/au):

     atom    1 type  1   force =     0.00017742   -0.00055513    0.00000166
     atom    2 type  1   force =    -0.03885813    0.01085236   -0.10734582
     atom    3 type  2   force =     0.03868071   -0.01029723    0.10734416

     Total force =     0.162099     Total SCF correction =     0.000151

     Entering Dynamics:    iteration =     3
                           time      =   0.0145 pico-seconds


     Andersen thermostat:    3 collisions

ATOMIC_POSITIONS (bohr)
H       20.142319382  13.346317541  18.202049478
H       10.750743006  17.083636314   1.013891023
O        9.713549277  17.280885871  18.225214946


     kinetic energy (Ekin) =     0.01320851 Ry
     temperature           =   695.15187330 K 
     Ekin + Etot (const)   =   -31.63429074 Ry
     Message from routine dynamics:
     Total linear momentum <> 0

     Linear momentum :    0.3047675616   -0.3500624036   -0.1369358232

     Writing output data file pwscf.save

     second order wave-functions extrapolation
     Check: negative starting charge=   -0.340956
     second order charge density extrapolation
     Check: negative starting charge=   -0.342301

     negative rho (up, down):  5.269E-02 0.000E+00

     total cpu time spent up to now is        5.0 secs

     per-process dynamical memory:    20.4 Mb

     Self-consistent Calculation

     iteration #  1     ecut=    30.00 Ry     beta=0.70
     Davidson diagonalization with overlap
     c_bands:  1 eigenvalues not converged
     ethr =  1.00E-06,  avg # of iterations = 20.0

     negative rho (up, down):  1.199E-02 0.000E+00

     total cpu time spent up to now is        5.1 secs

     total energy              =     -30.92208865 Ry
     Harris-Foulkes estimate   =     -31.76439008 Ry
     estimated scf accuracy    <       1.08392274 Ry

     iteration #  2     ecut=    30.00 Ry     beta=0.70
     Davidson diagonalization with overlap
     ethr =  1.00E-02,  avg # of iterations =  2.0

     negative rho (up, down):  9.195E-03 0.000E+00

     total cpu time spent up to now is        5.2 secs

     total energy              =     -32.00671762 Ry
     Harris-Foulkes estimate   =     -33.78066453 Ry
     estimated scf accuracy    <       5.09999947 Ry

     iteration #  3     ecut=    30.00 Ry     beta=0.70
     Davidson diagonalization with overlap
     ethr =  1.00E-02,  avg # of iterations =  2.0

     negative rho (up, down):  7.870E-03 0.000E+00

     total cpu time spent up to now is        5.3 secs

     total energy              =     -32.00824186 Ry
     Harris-Foulkes estimate   =     -32.24083182 Ry
     estimated scf accuracy    <       1.52269499 Ry

     iteration #  4     ecut=    30.00 Ry     beta=0.70
     Davidson diagonalization with overlap
     ethr =  1.00E-02,  avg # of iterations =  1.0

     negative rho (up, down):  7.254E-03 0.000E+00

     total cpu time spent up to now is        5.3 secs

     total energy              =     -31.89982342 Ry
     Harris-Foulkes estimate   =     -32.01002582 Ry
     estimated scf accuracy    <       1.26553619 Ry

     iteration #  5     ecut=    30.00 Ry     beta=0.70
     Davidson diagonalization with overlap
     ethr =  1.00E-02,  avg # of iterations =  1.0

     negative rho (up, down):  6.140E-03 0.000E+00

     total cpu time spent up to now is        5.4 secs

     total energy              =     -31.74717083 Ry
     Harris-Foulkes estimate   =     -31.90078477 Ry
     estimated scf accuracy    <       1.07353527 Ry

     iteration #  6     ecut=    30.00 Ry     beta=0.70
     Davidson diagonalization with overlap
     ethr =  1.00E-02,  avg # of iterations =  1.0

     negative rho (up, down):  2.237E-04 0.000E+00

     total cpu time spent up to now is        5.4 secs

     total energy              =     -31.82687973 Ry
     Harris-Foulkes estimate   =     -31.79711396 Ry
     estimated scf accuracy    <       0.81866373 Ry

     iteration #  7     ecut=    30.00 Ry     beta=0.70
     Davidson diagonalization with overlap
     ethr =  1.00E-02,  avg # of iterations =  1.0

     negative rho (up, down):  4.086E-05 0.000E+00

     total cpu time spent up to now is        5.4 secs

     total energy              =     -31.83319257 Ry
     Harris-Foulkes estimate   =     -31.83505727 Ry
     estimated scf accuracy    <       1.48070535 Ry

     iteration #  8     ecut=    30.00 Ry     beta=0.70
     Davidson diagonalization with overlap
     ethr =  1.00E-02,  avg # of iterations =  1.0

     negative rho (up, down):  1.216E-05 0.000E+00

     total cpu time spent up to now is        5.5 secs

     total energy              =     -31.90426653 Ry
     Harris-Foulkes estimate   =     -31.83338710 Ry
     estimated scf accuracy    <       1.51723835 Ry

     iteration #  9     ecut=    30.00 Ry     beta=0.70
     Davidson diagonalization with overlap
     ethr =  1.00E-02,  avg # of iterations =  1.0

     negative rho (up, down):  2.653E-05 0.000E+00

     total cpu time spent up to now is        5.6 secs

     total energy              =     -31.68669756 Ry
     Harris-Foulkes estimate   =     -31.89859664 Ry
     estimated scf accuracy    <       1.32165179 Ry

     iteration # 10     ecut=    30.00 Ry     beta=0.70
     Davidson diagonalization with overlap
     ethr =  1.00E-02,  avg # of iterations =  1.0

     negative rho (up, down):  1.322E-05 0.000E+00

     total cpu time spent up to now is        5.6 secs

     total energy              =     -31.86716032 Ry
     Harris-Foulkes estimate   =     -31.86086969 Ry
     estimated scf accuracy    <       0.98437078 Ry

     iteration # 11     ecut=    30.00 Ry     beta=0.70
     Davidson diagonalization with overlap
     ethr =  1.00E-02,  avg # of iterations =  1.0

     negative rho (up, down):  1.523E-07 0.000E+00

     total cpu time spent up to now is        5.6 secs

     total energy              =     -31.82645461 Ry
     Harris-Foulkes estimate   =     -31.86723366 Ry
     estimated scf accuracy    <       0.99801369 Ry

     iteration # 12     ecut=    30.00 Ry     beta=0.70
     Davidson diagonalization with overlap
     ethr =  1.00E-02,  avg # of iterations =  1.0

     negative rho (up, down):  1.464E-07 0.000E+00

     total cpu time spent up to now is        5.7 secs

     total energy              =     -31.81911755 Ry
     Harris-Foulkes estimate   =     -31.82654778 Ry
     estimated scf accuracy    <       0.92499577 Ry

     iteration # 13     ecut=    30.00 Ry     beta=0.70
     Davidson diagonalization with overlap
     ethr =  1.00E-02,  avg # of iterations =  1.0

     negative rho (up, down):  4.149E-07 0.000E+00

     total cpu time spent up to now is        5.7 secs

     total energy              =     -31.76873293 Ry
     Harris-Foulkes estimate   =     -31.81916822 Ry
     estimated scf accuracy    <       0.88591053 Ry

     iteration # 14     ecut=    30.00 Ry     beta=0.70
     Davidson diagonalization with overlap
     ethr =  1.00E-02,  avg # of iterations =  1.0

     negative rho (up, down):  4.916E-08 0.000E+00

     total cpu time spent up to now is        5.7 secs

     total energy              =     -31.79113313 Ry
     Harris-Foulkes estimate   =     -31.79285308 Ry
     estimated scf accuracy    <       0.12876015 Ry

     iteration # 15     ecut=    30.00 Ry     beta=0.70
     Davidson diagonalization with overlap
     ethr =  1.61E-03,  avg # of iterations =  1.0

     negative rho (up, down):  3.614E-08 0.000E+00

     total cpu time spent up to now is        5.8 secs

     total energy              =     -31.79039836 Ry
     Harris-Foulkes estimate   =     -31.79159445 Ry
     estimated scf accuracy    <       0.02822808 Ry

     iteration # 16     ecut=    30.00 Ry     beta=0.70
     Davidson diagonalization with overlap
     ethr =  3.53E-04,  avg # of iterations =  1.0

     total cpu time spent up to now is        5.8 secs

     total energy              =     -31.79071950 Ry
     Harris-Foulkes estimate   =     -31.79139519 Ry
     estimated scf accuracy    <       0.01184982 Ry

     iteration # 17     ecut=    30.00 Ry     beta=0.70
     Davidson diagonalization with overlap
     ethr =  1.48E-04,  avg # of iterations =  1.0

     total cpu time spent up to now is        5.8 secs

     total energy              =     -31.79057950 Ry
     Harris-Foulkes estimate   =     -31.79146034 Ry
     estimated scf accuracy    <       0.01736403 Ry

     iteration # 18     ecut=    30.00 Ry     beta=0.70
     Davidson diagonalization with overlap
     ethr =  1.48E-04,  avg # of iterations =  1.0

     total cpu time spent up to now is        5.9 secs

     total energy              =     -31.79039733 Ry
     Harris-Foulkes estimate   =     -31.79144865 Ry
     estimated scf accuracy    <       0.01578060 Ry

     iteration # 19     ecut=    30.00 Ry     beta=0.70
     Davidson diagonalization with overlap
     ethr =  1.48E-04,  avg # of iterations =  1.0

     total cpu time spent up to now is        5.9 secs

     total energy              =     -31.79064140 Ry
     Harris-Foulkes estimate   =     -31.79176160 Ry
     estimated scf accuracy    <       0.04103863 Ry

     iteration # 20     ecut=    30.00 Ry     beta=0.70
     Davidson diagonalization with overlap
     ethr =  1.48E-04,  avg # of iterations =  1.0

     total cpu time spent up to now is        5.9 secs

     total energy              =     -31.79122196 Ry
     Harris-Foulkes estimate   =     -31.79123899 Ry
     estimated scf accuracy    <       0.00019267 Ry

     iteration # 21     ecut=    30.00 Ry     beta=0.70
     Davidson diagonalization with overlap
     ethr =  2.41E-06,  avg # of iterations = 14.0

     total cpu time spent up to now is        6.0 secs

     total energy              =     -31.79122388 Ry
     Harris-Foulkes estimate   =     -31.79125237 Ry
     estimated scf accuracy    <       0.00120025 Ry

     iteration # 22     ecut=    30.00 Ry     beta=0.70
     Davidson diagonalization with overlap
     ethr =  2.41E-06,  avg # of iterations =  1.0

     total cpu time spent up to now is        6.0 secs

     total energy              =     -31.79123619 Ry
     Harris-Foulkes estimate   =     -31.79123649 Ry
     estimated scf accuracy    <       0.00001118 Ry

     iteration # 23     ecut=    30.00 Ry     beta=0.70
     Davidson diagonalization with overlap
     ethr =  1.40E-07,  avg # of iterations =  1.0

     total cpu time spent up to now is        6.1 secs

     total energy              =     -31.79123616 Ry
     Harris-Foulkes estimate   =     -31.79123627 Ry
     estimated scf accuracy    <       0.00000098 Ry

     iteration # 24     ecut=    30.00 Ry     beta=0.70
     Davidson diagonalization with overlap
     ethr =  1.22E-08,  avg # of iterations =  1.0

     total cpu time spent up to now is        6.1 secs

     total energy              =     -31.79123618 Ry
     Harris-Foulkes estimate   =     -31.79123619 Ry
     estimated scf accuracy    <       0.00000050 Ry

     iteration # 25     ecut=    30.00 Ry     beta=0.70
     Davidson diagonalization with overlap
     ethr =  6.25E-09,  avg # of iterations =  1.0

     total cpu time spent up to now is        6.1 secs

     End of self-consistent calculation

          k = 0.0000 0.0000 0.0000 ( 22119 PWs)   bands (ev):

   -23.6573  -9.1354  -6.9008  -6.9005  -6.7635  -3.4261  -0.0521   0.7686

     the Fermi energy is    -6.7310 ev

!    total energy              =     -31.79123618 Ry
     Harris-Foulkes estimate   =     -31.79123619 Ry
     estimated scf accuracy    <          8.6E-09 Ry

     convergence has been achieved in  25 iterations

     Forces acting on atoms (Ry/au):

     atom    1 type  1   force =     0.00004301   -0.00067217    0.00032687
     atom    2 type  1   force =    -0.05964004    0.01061382   -0.16030751
     atom    3 type  2   force =     0.05959703   -0.00994165    0.15998064

     Total force =     0.242101     Total SCF correction =     0.000025

     Entering Dynamics:    iteration =     4
                           time      =   0.0194 pico-seconds


     Andersen thermostat:    3 collisions

ATOMIC_POSITIONS (bohr)
H       20.131203910  13.202879839  18.114655540
H        9.906037972  16.864114446  -0.923024996
O        9.767572947  17.303797694  18.352999512


     kinetic energy (Ekin) =     0.08368222 Ry
     temperature           =  4404.12059824 K 
     Ekin + Etot (const)   =   -31.70755396 Ry
     Message from routine dynamics:
     Total linear momentum <> 0

     Linear momentum :    0.6585480540    0.4524520681   -0.2987964083

     Writing output data file pwscf.save

     second order wave-functions extrapolation
     Check: negative starting charge=   -0.342301
     second order charge density extrapolation
     Check: negative starting charge=   -0.350127

     negative rho (up, down):  2.318E-01 0.000E+00

     total cpu time spent up to now is        6.6 secs

     per-process dynamical memory:    20.4 Mb

     Self-consistent Calculation

     iteration #  1     ecut=    30.00 Ry     beta=0.70
     Davidson diagonalization with overlap
     ethr =  1.00E-06,  avg # of iterations = 19.0

     negative rho (up, down):  4.075E-02 0.000E+00

     total cpu time spent up to now is        6.7 secs

     total energy              =     -28.24507070 Ry
     Harris-Foulkes estimate   =     -29.66686787 Ry
     estimated scf accuracy    <       1.68455832 Ry

     iteration #  2     ecut=    30.00 Ry     beta=0.70
     Davidson diagonalization with overlap
     ethr =  1.00E-02,  avg # of iterations =  3.0

     negative rho (up, down):  2.906E-03 0.000E+00

     total cpu time spent up to now is        6.8 secs

     total energy              =     -28.03281735 Ry
     Harris-Foulkes estimate   =     -31.59491820 Ry
     estimated scf accuracy    <      11.08412876 Ry

     iteration #  3     ecut=    30.00 Ry     beta=0.70
     Davidson diagonalization with overlap
     ethr =  1.00E-02,  avg # of iterations =  4.0

     negative rho (up, down):  4.028E-03 0.000E+00

     total cpu time spent up to now is        6.8 secs

     total energy              =     -29.12778012 Ry
     Harris-Foulkes estimate   =     -29.33694557 Ry
     estimated scf accuracy    <       1.54842686 Ry

     iteration #  4     ecut=    30.00 Ry     beta=0.70
     Davidson diagonalization with overlap
     ethr =  1.00E-02,  avg # of iterations =  1.0

     negative rho (up, down):  1.966E-05 0.000E+00

     total cpu time spent up to now is        6.9 secs

     total energy              =     -29.12945013 Ry
     Harris-Foulkes estimate   =     -29.27108665 Ry
     estimated scf accuracy    <       0.89797029 Ry

     iteration #  5     ecut=    30.00 Ry     beta=0.70
     Davidson diagonalization with overlap
     ethr =  1.00E-02,  avg # of iterations =  1.0

     negative rho (up, down):  9.696E-06 0.000E+00

     total cpu time spent up to now is        6.9 secs

     total energy              =     -29.28304679 Ry
     Harris-Foulkes estimate   =     -29.32516054 Ry
     estimated scf accuracy    <       1.47114324 Ry

     iteration #  6     ecut=    30.00 Ry     beta=0.70
     Davidson diagonalization with overlap
     ethr =  1.00E-02,  avg # of iterations =  1.0

     negative rho (up, down):  5.469E-03 0.000E+00

     total cpu time spent up to now is        6.9 secs

     total energy              =     -29.14783188 Ry
     Harris-Foulkes estimate   =     -29.28412373 Ry
     estimated scf accuracy    <       1.54057222 Ry

     iteration #  7     ecut=    30.00 Ry     beta=0.70
     Davidson diagonalization with overlap
     ethr =  1.00E-02,  avg # of iterations =  1.0

     negative rho (up, down):  1.971E-07 0.000E+00

     total cpu time spent up to now is        7.0 secs

     total energy              =     -29.21486548 Ry
     Harris-Foulkes estimate   =     -29.25770370 Ry
     estimated scf accuracy    <       0.82889262 Ry

     iteration #  8     ecut=    30.00 Ry     beta=0.70
     Davidson diagonalization with overlap
     ethr =  1.00E-02,  avg # of iterations =  1.0

     total cpu time spent up to now is        7.0 secs

     total energy              =     -29.22341618 Ry
     Harris-Foulkes estimate   =     -29.22588935 Ry
     estimated scf accuracy    <       0.01286143 Ry

     iteration #  9     ecut=    30.00 Ry     beta=0.70
     Davidson diagonalization with overlap
     ethr =  1.61E-04,  avg # of iterations =  4.0

     total cpu time spent up to now is        7.0 secs

     total energy              =     -29.21965265 Ry
     Harris-Foulkes estimate   =     -29.23422867 Ry
     estimated scf accuracy    <       0.66892113 Ry

     iteration # 10     ecut=    30.00 Ry     beta=0.70
     Davidson diagonalization with overlap
     ethr =  1.61E-04,  avg # of iterations =  1.0

     negative rho (up, down):  1.873E-05 0.000E+00

     total cpu time spent up to now is        7.1 secs

     total energy              =     -29.22521706 Ry
     Harris-Foulkes estimate   =     -29.22591558 Ry
     estimated scf accuracy    <       0.01048128 Ry

     iteration # 11     ecut=    30.00 Ry     beta=0.70
     Davidson diagonalization with overlap
     ethr =  1.31E-04,  avg # of iterations =  1.0

     total cpu time spent up to now is        7.1 secs

     total energy              =     -29.22584695 Ry
     Harris-Foulkes estimate   =     -29.22615931 Ry
     estimated scf accuracy    <       0.02696827 Ry

     iteration # 12     ecut=    30.00 Ry     beta=0.70
     Davidson diagonalization with overlap
     ethr =  1.31E-04,  avg # of iterations =  1.0

     total cpu time spent up to now is        7.1 secs

     total energy              =     -29.22586389 Ry
     Harris-Foulkes estimate   =     -29.22591200 Ry
     estimated scf accuracy    <       0.00900818 Ry

     iteration # 13     ecut=    30.00 Ry     beta=0.70
     Davidson diagonalization with overlap
     ethr =  1.13E-04,  avg # of iterations =  1.0

     total cpu time spent up to now is        7.2 secs

     total energy              =     -29.22578896 Ry
     Harris-Foulkes estimate   =     -29.22586873 Ry
     estimated scf accuracy    <       0.00574440 Ry

     iteration # 14     ecut=    30.00 Ry     beta=0.70
     Davidson diagonalization with overlap
     ethr =  7.18E-05,  avg # of iterations =  1.0

     total cpu time spent up to now is        7.2 secs

     total energy              =     -29.22579570 Ry
     Harris-Foulkes estimate   =     -29.22580981 Ry
     estimated scf accuracy    <       0.00128379 Ry

     iteration # 15     ecut=    30.00 Ry     beta=0.70
     Davidson diagonalization with overlap
     ethr =  1.60E-05,  avg # of iterations =  6.0

     total cpu time spent up to now is        7.3 secs

     total energy              =     -29.22579548 Ry
     Harris-Foulkes estimate   =     -29.22579869 Ry
     estimated scf accuracy    <       0.00042644 Ry

     iteration # 16     ecut=    30.00 Ry     beta=0.70
     Davidson diagonalization with overlap
     ethr =  5.33E-06,  avg # of iterations =  1.0

     total cpu time spent up to now is        7.3 secs

     total energy              =     -29.22579079 Ry
     Harris-Foulkes estimate   =     -29.22579597 Ry
     estimated scf accuracy    <       0.00021056 Ry

     iteration # 17     ecut=    30.00 Ry     beta=0.70
     Davidson diagonalization with overlap
     ethr =  2.63E-06,  avg # of iterations =  1.0

     total cpu time spent up to now is        7.3 secs

     total energy              =     -29.22579356 Ry
     Harris-Foulkes estimate   =     -29.22579354 Ry
     estimated scf accuracy    <       0.00000001 Ry

     iteration # 18     ecut=    30.00 Ry     beta=0.70
     Davidson diagonalization with overlap
     ethr =  1.53E-10,  avg # of iterations =  2.0

     total cpu time spent up to now is        7.3 secs

     End of self-consistent calculation

          k = 0.0000 0.0000 0.0000 ( 22119 PWs)   bands (ev):

   -30.9127 -11.9233  -7.4501  -7.4486  -7.2921  -0.3231   0.6237   0.7537

     the Fermi energy is    -7.2729 ev

!    total energy              =     -29.22579359 Ry
     Harris-Foulkes estimate   =     -29.22579356 Ry
     estimated scf accuracy    <          8.4E-09 Ry

     convergence has been achieved in  18 iterations

     Forces acting on atoms (Ry/au):

     atom    1 type  1   force =    -0.00019710   -0.00080350    0.00034231
     atom    2 type  1   force =     1.76093390   -5.59106857    9.20489958
     atom    3 type  2   force =    -1.76073680    5.59187207   -9.20524189

     Total force =    15.433626     Total SCF correction =     0.000047

     Entering Dynamics:    iteration =     5
                           time      =   0.0242 pico-seconds


     Andersen thermostat:    3 collisions

ATOMIC_POSITIONS (bohr)
H       19.945752224  13.487546741  18.423295934
H       28.500353338 -43.656002027  98.790924916
O        8.605513427  21.106160448  12.039073499


     kinetic energy (Ekin) =   169.47418460 Ry
     temperature           = ************** K 
     Ekin + Etot (const)   =   140.24839101 Ry
     Message from routine dynamics:
     Total linear momentum <> 0

     Linear momentum :    0.2555715914    0.0401351917   -0.1541686132

     Writing output data file pwscf.save

     second order wave-functions extrapolation
     Check: negative starting charge=   -0.350127
     second order charge density extrapolation
     Check: negative starting charge=   -0.347827

     negative rho (up, down):  3.010E+01 0.000E+00

     total cpu time spent up to now is        7.8 secs

     per-process dynamical memory:    20.4 Mb

     Self-consistent Calculation

     iteration #  1     ecut=    30.00 Ry     beta=0.70
     Davidson diagonalization with overlap
     c_bands:  4 eigenvalues not converged
     ethr =  1.00E-06,  avg # of iterations = 20.0

     negative rho (up, down):  8.623E+00 0.000E+00

     total cpu time spent up to now is        8.3 secs

     total energy              =      78.24818532 Ry
     Harris-Foulkes estimate   =   -6103.61514422 Ry
     estimated scf accuracy    <     110.87360320 Ry

     iteration #  2     ecut=    30.00 Ry     beta=0.70
     Davidson diagonalization with overlap
     ethr =  1.00E-02,  avg # of iterations = 17.0

     negative rho (up, down):  3.084E+00 0.000E+00

     total cpu time spent up to now is        8.4 secs

     total energy              =     -28.88889147 Ry
     Harris-Foulkes estimate   =   -2878.69171179 Ry
     estimated scf accuracy    <      40.66887006 Ry

     iteration #  3     ecut=    30.00 Ry     beta=0.70
     Davidson diagonalization with overlap
     ethr =  1.00E-02,  avg # of iterations = 14.0

     negative rho (up, down):  1.051E+00 0.000E+00

     total cpu time spent up to now is        8.6 secs

     total energy              =     150.36162600 Ry
     Harris-Foulkes estimate   =   -4395.21051573 Ry
     estimated scf accuracy    <      23.92780085 Ry

     iteration #  4     ecut=    30.00 Ry     beta=0.70
     Davidson diagonalization with overlap
     ethr =  1.00E-02,  avg # of iterations = 11.0

     negative rho (up, down):  4.243E-01 0.000E+00

     total cpu time spent up to now is        8.6 secs

     total energy              =     142.11319024 Ry
     Harris-Foulkes estimate   =   -1171.56240058 Ry
     estimated scf accuracy    <      28.73732513 Ry

     iteration #  5     ecut=    30.00 Ry     beta=0.70
     Davidson diagonalization with overlap
     ethr =  1.00E-02,  avg # of iterations = 13.0

     negative rho (up, down):  3.515E-01 0.000E+00

     total cpu time spent up to now is        8.7 secs

     total energy              =      78.94762691 Ry
     Harris-Foulkes estimate   =    -682.28234879 Ry
     estimated scf accuracy    <      31.74393683 Ry

     iteration #  6     ecut=    30.00 Ry     beta=0.70
     Davidson diagonalization with overlap
     ethr =  1.00E-02,  avg # of iterations = 10.0

     negative rho (up, down):  4.664E-01 0.000E+00

     total cpu time spent up to now is        8.8 secs

     total energy              =      25.74145716 Ry
     Harris-Foulkes estimate   =    -208.39350481 Ry
     estimated scf accuracy    <      23.78170456 Ry

     iteration #  7     ecut=    30.00 Ry     beta=0.70
     Davidson diagonalization with overlap
     ethr =  1.00E-02,  avg # of iterations =  7.0

     negative rho (up, down):  6.155E-01 0.000E+00

     total cpu time spent up to now is        8.8 secs

     total energy              =     -36.63101972 Ry
     Harris-Foulkes estimate   =     -92.38026981 Ry
     estimated scf accuracy    <      43.91157038 Ry

     iteration #  8     ecut=    30.00 Ry     beta=0.70
     Davidson diagonalization with overlap
     ethr =  1.00E-02,  avg # of iterations = 13.0

     negative rho (up, down):  5.516E-01 0.000E+00

     total cpu time spent up to now is        8.9 secs

     total energy              =      50.66754793 Ry
     Harris-Foulkes estimate   =    -106.84295908 Ry
     estimated scf accuracy    <      15.47515255 Ry

     iteration #  9     ecut=    30.00 Ry     beta=0.70
     Davidson diagonalization with overlap
     ethr =  1.00E-02,  avg # of iterations =  8.0

     negative rho (up, down):  5.075E-01 0.000E+00

     total cpu time spent up to now is        8.9 secs

     total energy              =     -67.57150457 Ry
     Harris-Foulkes estimate   =     -65.92354969 Ry
     estimated scf accuracy    <      48.12361169 Ry

     iteration # 10     ecut=    30.00 Ry     beta=0.70
     Davidson diagonalization with overlap
     ethr =  1.00E-02,  avg # of iterations =  3.0

     negative rho (up, down):  9.252E+00 0.000E+00

     total cpu time spent up to now is        9.0 secs

     total energy              =    -301.60200143 Ry
     Harris-Foulkes estimate   =     -67.57292108 Ry
     estimated scf accuracy    <      50.29891264 Ry

     iteration # 11     ecut=    30.00 Ry     beta=0.70
     Davidson diagonalization with overlap
     ethr =  1.00E-02,  avg # of iterations =  9.0

     negative rho (up, down):  1.304E+00 0.000E+00

     total cpu time spent up to now is        9.0 secs

     total energy              =       8.94541271 Ry
     Harris-Foulkes estimate   =   -4975.15780182 Ry
     estimated scf accuracy    <     120.65321020 Ry

     iteration # 12     ecut=    30.00 Ry     beta=0.70
     Davidson diagonalization with overlap
     ethr =  1.00E-02,  avg # of iterations = 10.0

     negative rho (up, down):  3.296E+00 0.000E+00

     total cpu time spent up to now is        9.1 secs

     total energy              =      62.40654445 Ry
     Harris-Foulkes estimate   =   -4186.57509704 Ry
     estimated scf accuracy    <      37.48467274 Ry

     iteration # 13     ecut=    30.00 Ry     beta=0.70
     Davidson diagonalization with overlap
     ethr =  1.00E-02,  avg # of iterations = 12.0

     negative rho (up, down):  1.826E+00 0.000E+00

     total cpu time spent up to now is        9.2 secs

     total energy              =    -181.64391204 Ry
     Harris-Foulkes estimate   =    -263.98820719 Ry
     estimated scf accuracy    <      77.20874440 Ry

     iteration # 14     ecut=    30.00 Ry     beta=0.70
     Davidson diagonalization with overlap
     ethr =  1.00E-02,  avg # of iterations =  7.0

     negative rho (up, down):  2.641E-01 0.000E+00

     total cpu time spent up to now is        9.2 secs

     total energy              =      46.64269897 Ry
     Harris-Foulkes estimate   =   -3028.21720181 Ry
     estimated scf accuracy    <      45.38769043 Ry

     iteration # 15     ecut=    30.00 Ry     beta=0.70
     Davidson diagonalization with overlap
     ethr =  1.00E-02,  avg # of iterations = 11.0

     negative rho (up, down):  4.627E-01 0.000E+00

     total cpu time spent up to now is        9.3 secs

     total energy              =      73.44093234 Ry
     Harris-Foulkes estimate   =    -896.77707730 Ry
     estimated scf accuracy    <      39.18463999 Ry

     iteration # 16     ecut=    30.00 Ry     beta=0.70
     Davidson diagonalization with overlap
     ethr =  1.00E-02,  avg # of iterations =  7.0

     negative rho (up, down):  1.224E-01 0.000E+00

     total cpu time spent up to now is        9.4 secs

     total energy              =      79.26670801 Ry
     Harris-Foulkes estimate   =    -241.58874533 Ry
     estimated scf accuracy    <      31.84635730 Ry

     iteration # 17     ecut=    30.00 Ry     beta=0.70
     Davidson diagonalization with overlap
     ethr =  1.00E-02,  avg # of iterations = 10.0

     negative rho (up, down):  4.493E-02 0.000E+00

     total cpu time spent up to now is        9.4 secs

     total energy              =      63.05827188 Ry
     Harris-Foulkes estimate   =    -389.24287529 Ry
     estimated scf accuracy    <      20.25434743 Ry

     iteration # 18     ecut=    30.00 Ry     beta=0.70
     Davidson diagonalization with overlap
     ethr =  1.00E-02,  avg # of iterations =  7.0

     negative rho (up, down):  1.294E-01 0.000E+00

     total cpu time spent up to now is        9.5 secs

     total energy              =      -4.90723630 Ry
     Harris-Foulkes estimate   =     -74.28122211 Ry
     estimated scf accuracy    <      10.05853470 Ry

     iteration # 19     ecut=    30.00 Ry     beta=0.70
     Davidson diagonalization with overlap
     ethr =  1.00E-02,  avg # of iterations =  5.0

     negative rho (up, down):  1.193E-01 0.000E+00

     total cpu time spent up to now is        9.6 secs

     total energy              =       7.53113719 Ry
     Harris-Foulkes estimate   =    -293.16523840 Ry
     estimated scf accuracy    <      21.13693084 Ry

     iteration # 20     ecut=    30.00 Ry     beta=0.70
     Davidson diagonalization with overlap
     ethr =  1.00E-02,  avg # of iterations =  7.0

     negative rho (up, down):  1.705E-01 0.000E+00

     total cpu time spent up to now is        9.6 secs

     total energy              =      25.27512124 Ry
     Harris-Foulkes estimate   =    -925.23327078 Ry
     estimated scf accuracy    <      36.49001856 Ry

     iteration # 21     ecut=    30.00 Ry     beta=0.70
     Davidson diagonalization with overlap
     ethr =  1.00E-02,  avg # of iterations =  9.0

     negative rho (up, down):  1.277E-01 0.000E+00

     total cpu time spent up to now is        9.7 secs

     total energy              =      92.31184229 Ry
     Harris-Foulkes estimate   =    -938.65785649 Ry
     estimated scf accuracy    <      31.26370068 Ry

     iteration # 22     ecut=    30.00 Ry     beta=0.70
     Davidson diagonalization with overlap
     ethr =  1.00E-02,  avg # of iterations =  8.0

     negative rho (up, down):  2.230E-01 0.000E+00

     total cpu time spent up to now is        9.7 secs

     total energy              =   -1988.11368336 Ry
     Harris-Foulkes estimate   =   -1272.67661896 Ry
     estimated scf accuracy    <      33.05041289 Ry

     iteration # 23     ecut=    30.00 Ry     beta=0.70
     Davidson diagonalization with overlap
     ethr =  1.00E-02,  avg # of iterations =  7.0

     negative rho (up, down):  2.438E-01 0.000E+00

     total cpu time spent up to now is        9.8 secs

     total energy              =      55.99234467 Ry
     Harris-Foulkes estimate   =   -6398.88172162 Ry
     estimated scf accuracy    <      35.71928039 Ry

     iteration # 24     ecut=    30.00 Ry     beta=0.70
     Davidson diagonalization with overlap
     ethr =  1.00E-02,  avg # of iterations =  5.0

     negative rho (up, down):  9.431E-02 0.000E+00

     total cpu time spent up to now is        9.8 secs

     total energy              =     114.04754277 Ry
     Harris-Foulkes estimate   =   -4169.67769661 Ry
     estimated scf accuracy    <      35.72391104 Ry

     iteration # 25     ecut=    30.00 Ry     beta=0.70
     Davidson diagonalization with overlap
     ethr =  1.00E-02,  avg # of iterations = 14.0

     negative rho (up, down):  4.061E-03 0.000E+00

     total cpu time spent up to now is        9.9 secs

     total energy              =      58.00656385 Ry
     Harris-Foulkes estimate   =    -662.79514948 Ry
     estimated scf accuracy    <      23.01836560 Ry

     iteration # 26     ecut=    30.00 Ry     beta=0.70
     Davidson diagonalization with overlap
     ethr =  1.00E-02,  avg # of iterations =  8.0

     negative rho (up, down):  6.925E-04 0.000E+00

     total cpu time spent up to now is       10.0 secs

     total energy              =     -40.71645440 Ry
     Harris-Foulkes estimate   =     -43.39006495 Ry
     estimated scf accuracy    <      19.32300673 Ry

     iteration # 27     ecut=    30.00 Ry     beta=0.70
     Davidson diagonalization with overlap
     ethr =  1.00E-02,  avg # of iterations =  1.0

     negative rho (up, down):  4.477E-02 0.000E+00

     total cpu time spent up to now is       10.0 secs

     total energy              =     -38.86725187 Ry
     Harris-Foulkes estimate   =     -40.73041874 Ry
     estimated scf accuracy    <      15.94373735 Ry

     iteration # 28     ecut=    30.00 Ry     beta=0.70
     Davidson diagonalization with overlap
     ethr =  1.00E-02,  avg # of iterations =  8.0

     negative rho (up, down):  9.890E-02 0.000E+00

     total cpu time spent up to now is       10.1 secs

     total energy              =    -437.63349203 Ry
     Harris-Foulkes estimate   =   -3129.26320981 Ry
     estimated scf accuracy    <      45.47999504 Ry

     iteration # 29     ecut=    30.00 Ry     beta=0.70
     Davidson diagonalization with overlap
     ethr =  1.00E-02,  avg # of iterations =  6.0

     negative rho (up, down):  4.884E-03 0.000E+00

     total cpu time spent up to now is       10.1 secs

     total energy              =     243.97750649 Ry
     Harris-Foulkes estimate   =    -907.76402171 Ry
     estimated scf accuracy    <      51.57510964 Ry

     iteration # 30     ecut=    30.00 Ry     beta=0.70
     Davidson diagonalization with overlap
     ethr =  1.00E-02,  avg # of iterations =  9.0

     negative rho (up, down):  5.306E-03 0.000E+00

     total cpu time spent up to now is       10.2 secs

     total energy              =     -37.20390971 Ry
     Harris-Foulkes estimate   =     -38.04304498 Ry
     estimated scf accuracy    <      12.41064342 Ry

     iteration # 31     ecut=    30.00 Ry     beta=0.70
     Davidson diagonalization with overlap
     ethr =  1.00E-02,  avg # of iterations =  2.0

     negative rho (up, down):  6.886E-03 0.000E+00

     total cpu time spent up to now is       10.2 secs

     total energy              =     -36.26023786 Ry
     Harris-Foulkes estimate   =     -37.20622207 Ry
     estimated scf accuracy    <      11.36461263 Ry

     iteration # 32     ecut=    30.00 Ry     beta=0.70
     Davidson diagonalization with overlap
     ethr =  1.00E-02,  avg # of iterations =  1.0

     negative rho (up, down):  5.188E-03 0.000E+00

     total cpu time spent up to now is       10.2 secs

     total energy              =     -35.67116697 Ry
     Harris-Foulkes estimate   =     -36.25666522 Ry
     estimated scf accuracy    <      10.02643734 Ry

     iteration # 33     ecut=    30.00 Ry     beta=0.70
     Davidson diagonalization with overlap
     ethr =  1.00E-02,  avg # of iterations =  8.0

     negative rho (up, down):  3.362E-03 0.000E+00

     total cpu time spent up to now is       10.3 secs

     total energy              =      18.35802637 Ry
     Harris-Foulkes estimate   =     -65.81691858 Ry
     estimated scf accuracy    <      12.30213400 Ry

     iteration # 34     ecut=    30.00 Ry     beta=0.70
     Davidson diagonalization with overlap
     ethr =  1.00E-02,  avg # of iterations =  4.0

     negative rho (up, down):  4.414E-02 0.000E+00

     total cpu time spent up to now is       10.3 secs

     total energy              =      -4.99031571 Ry
     Harris-Foulkes estimate   =     -63.18097476 Ry
     estimated scf accuracy    <       7.81086833 Ry

     iteration # 35     ecut=    30.00 Ry     beta=0.70
     Davidson diagonalization with overlap
     ethr =  1.00E-02,  avg # of iterations =  7.0

     negative rho (up, down):  1.290E-03 0.000E+00

     total cpu time spent up to now is       10.4 secs

     total energy              =      31.50099452 Ry
     Harris-Foulkes estimate   =     -73.70470600 Ry
     estimated scf accuracy    <      22.18209631 Ry

     iteration # 36     ecut=    30.00 Ry     beta=0.70
     Davidson diagonalization with overlap
     ethr =  1.00E-02,  avg # of iterations =  6.0

     negative rho (up, down):  3.125E-02 0.000E+00

     total cpu time spent up to now is       10.4 secs

     total energy              =     -19.15555029 Ry
     Harris-Foulkes estimate   =     -42.66421418 Ry
     estimated scf accuracy    <       6.38562098 Ry

[...]

     total cpu time spent up to now is       11.3 secs

     total energy              =     -32.11118048 Ry
     Harris-Foulkes estimate   =     -32.12762170 Ry
     estimated scf accuracy    <       1.96788669 Ry

     iteration # 59     ecut=    30.00 Ry     beta=0.70
     Davidson diagonalization with overlap
     ethr =  1.00E-02,  avg # of iterations =  5.0

     negative rho (up, down):  1.280E-01 0.000E+00

     total cpu time spent up to now is       11.4 secs

     total energy              =     -27.79591527 Ry
     Harris-Foulkes estimate   =     -44.67347271 Ry
     estimated scf accuracy    <      11.34250973 Ry

     iteration # 60     ecut=    30.00 Ry     beta=0.70
     Davidson diagonalization with overlap
     ethr =  1.00E-02,  avg # of iterations =  7.0

     negative rho (up, down):  3.035E-02 0.000E+00

     total cpu time spent up to now is       11.4 secs

     total energy              =      33.20426729 Ry
     Harris-Foulkes estimate   =    -136.16473897 Ry
     estimated scf accuracy    <      30.31395948 Ry

     iteration # 61     ecut=    30.00 Ry     beta=0.70
     Davidson diagonalization with overlap
     ethr =  1.00E-02,  avg # of iterations =  5.0

     total cpu time spent up to now is       11.5 secs

     total energy              =     -13.46975987 Ry
     Harris-Foulkes estimate   =     -45.65579381 Ry
     estimated scf accuracy    <       7.75142864 Ry

     iteration # 62     ecut=    30.00 Ry     beta=0.70
     Davidson diagonalization with overlap
     ethr =  1.00E-02,  avg # of iterations =  4.0

     total cpu time spent up to now is       11.5 secs

     total energy              =     -32.30213101 Ry
     Harris-Foulkes estimate   =     -33.16631344 Ry
     estimated scf accuracy    <       5.59218617 Ry

     iteration # 63     ecut=    30.00 Ry     beta=0.70
     Davidson diagonalization with overlap
     ethr =  1.00E-02,  avg # of iterations =  1.0

     negative rho (up, down):  4.394E-04 0.000E+00

     total cpu time spent up to now is       11.5 secs

     total energy              =     -31.68513324 Ry
     Harris-Foulkes estimate   =     -32.31591648 Ry
     estimated scf accuracy    <       4.12513010 Ry

     iteration # 64     ecut=    30.00 Ry     beta=0.70
     Davidson diagonalization with overlap
     ethr =  1.00E-02,  avg # of iterations =  5.0

     negative rho (up, down):  1.039E-03 0.000E+00

     total cpu time spent up to now is       11.6 secs

     total energy              =     -31.78687270 Ry
     Harris-Foulkes estimate   =     -32.02213754 Ry
     estimated scf accuracy    <       1.76528583 Ry

     iteration # 65     ecut=    30.00 Ry     beta=0.70
     Davidson diagonalization with overlap
     ethr =  1.00E-02,  avg # of iterations =  1.0

     negative rho (up, down):  4.660E-04 0.000E+00

     total cpu time spent up to now is       11.6 secs

     total energy              =     -31.74634831 Ry
     Harris-Foulkes estimate   =     -31.99349888 Ry
     estimated scf accuracy    <       3.61034851 Ry

     iteration # 66     ecut=    30.00 Ry     beta=0.70
     Davidson diagonalization with overlap
     ethr =  1.00E-02,  avg # of iterations =  1.0

     negative rho (up, down):  2.787E-04 0.000E+00

     total cpu time spent up to now is       11.6 secs

     total energy              =     -31.84305017 Ry
     Harris-Foulkes estimate   =     -31.87667377 Ry
     estimated scf accuracy    <       1.54600512 Ry

     iteration # 67     ecut=    30.00 Ry     beta=0.70
     Davidson diagonalization with overlap
     ethr =  1.00E-02,  avg # of iterations =  1.0

     negative rho (up, down):  3.183E-03 0.000E+00

     total cpu time spent up to now is       11.7 secs

     total energy              =     -31.91425248 Ry
     Harris-Foulkes estimate   =     -31.84219738 Ry
     estimated scf accuracy    <       1.47664019 Ry

     iteration # 68     ecut=    30.00 Ry     beta=0.70
     Davidson diagonalization with overlap
     ethr =  1.00E-02,  avg # of iterations =  1.0

     negative rho (up, down):  5.340E-03 0.000E+00

     total cpu time spent up to now is       11.7 secs

     total energy              =     -30.61077191 Ry
     Harris-Foulkes estimate   =     -32.07123774 Ry
     estimated scf accuracy    <       4.88238033 Ry

     iteration # 69     ecut=    30.00 Ry     beta=0.70
     Davidson diagonalization with overlap
     ethr =  1.00E-02,  avg # of iterations =  2.0

     negative rho (up, down):  3.709E-01 0.000E+00

     total cpu time spent up to now is       11.8 secs

     total energy              =     -37.89039358 Ry
     Harris-Foulkes estimate   =     -32.95965106 Ry
     estimated scf accuracy    <       4.99135470 Ry

     iteration # 70     ecut=    30.00 Ry     beta=0.70
     Davidson diagonalization with overlap
     ethr =  1.00E-02,  avg # of iterations =  7.0

     negative rho (up, down):  1.188E-01 0.000E+00

     total cpu time spent up to now is       11.8 secs

     total energy              =     -11.95117462 Ry
     Harris-Foulkes estimate   =     -44.87961632 Ry
     estimated scf accuracy    <      13.99880390 Ry

     iteration # 71     ecut=    30.00 Ry     beta=0.70
     Davidson diagonalization with overlap
     ethr =  1.00E-02,  avg # of iterations =  6.0

     negative rho (up, down):  1.056E-01 0.000E+00

     total cpu time spent up to now is       11.9 secs

     total energy              =     -36.81222765 Ry
     Harris-Foulkes estimate   =     -36.05381984 Ry
     estimated scf accuracy    <       9.17931303 Ry

     iteration # 72     ecut=    30.00 Ry     beta=0.70
     Davidson diagonalization with overlap
     ethr =  1.00E-02,  avg # of iterations =  6.0

     negative rho (up, down):  8.461E-04 0.000E+00

     total cpu time spent up to now is       11.9 secs

     total energy              =      21.13335602 Ry
     Harris-Foulkes estimate   =     -86.28643958 Ry
     estimated scf accuracy    <      22.86259238 Ry

     iteration # 73     ecut=    30.00 Ry     beta=0.70
     Davidson diagonalization with overlap
     ethr =  1.00E-02,  avg # of iterations =  5.0

     negative rho (up, down):  4.298E-03 0.000E+00

     total cpu time spent up to now is       12.0 secs

     total energy              =     -34.17763373 Ry
     Harris-Foulkes estimate   =     -34.33960113 Ry
     estimated scf accuracy    <       6.88984987 Ry

     iteration # 74     ecut=    30.00 Ry     beta=0.70
     Davidson diagonalization with overlap
     ethr =  1.00E-02,  avg # of iterations =  1.0

     negative rho (up, down):  1.237E-03 0.000E+00

     total cpu time spent up to now is       12.0 secs

     total energy              =     -33.25474691 Ry
     Harris-Foulkes estimate   =     -34.17870704 Ry
     estimated scf accuracy    <       6.63110681 Ry

     iteration # 75     ecut=    30.00 Ry     beta=0.70
     Davidson diagonalization with overlap
     ethr =  1.00E-02,  avg # of iterations =  1.0

     negative rho (up, down):  1.167E-03 0.000E+00

     total cpu time spent up to now is       12.0 secs

     total energy              =     -32.25988766 Ry
     Harris-Foulkes estimate   =     -33.25911715 Ry
     estimated scf accuracy    <       5.42699418 Ry

     iteration # 76     ecut=    30.00 Ry     beta=0.70
     Davidson diagonalization with overlap
     ethr =  1.00E-02,  avg # of iterations =  4.0

     negative rho (up, down):  2.352E-02 0.000E+00

     total cpu time spent up to now is       12.1 secs

     total energy              =     -14.07281690 Ry
     Harris-Foulkes estimate   =     -36.56237185 Ry
     estimated scf accuracy    <       5.51703866 Ry

     iteration # 77     ecut=    30.00 Ry     beta=0.70
     Davidson diagonalization with overlap
     ethr =  1.00E-02,  avg # of iterations =  6.0

     negative rho (up, down):  2.668E-03 0.000E+00

     total cpu time spent up to now is       12.1 secs

     total energy              =     -33.41393049 Ry
     Harris-Foulkes estimate   =     -33.71086490 Ry
     estimated scf accuracy    <      16.00293388 Ry

     iteration # 78     ecut=    30.00 Ry     beta=0.70
     Davidson diagonalization with overlap
     ethr =  1.00E-02,  avg # of iterations =  1.0

     negative rho (up, down):  7.533E-02 0.000E+00

     total cpu time spent up to now is       12.1 secs

     total energy              =     -33.41377257 Ry
     Harris-Foulkes estimate   =     -33.43684232 Ry
     estimated scf accuracy    <      12.16937468 Ry

     iteration # 79     ecut=    30.00 Ry     beta=0.70
     Davidson diagonalization with overlap
     ethr =  1.00E-02,  avg # of iterations =  4.0

     negative rho (up, down):  1.016E-02 0.000E+00

     total cpu time spent up to now is       12.2 secs

     total energy              =     -28.69360783 Ry
     Harris-Foulkes estimate   =     -95.54911986 Ry
     estimated scf accuracy    <      19.31534706 Ry

     iteration # 80     ecut=    30.00 Ry     beta=0.70
     Davidson diagonalization with overlap
     ethr =  1.00E-02,  avg # of iterations =  4.0

     negative rho (up, down):  3.177E-02 0.000E+00

     total cpu time spent up to now is       12.2 secs

     total energy              =     -11.08610679 Ry
     Harris-Foulkes estimate   =     -51.15400010 Ry
     estimated scf accuracy    <       6.09910993 Ry

     iteration # 81     ecut=    30.00 Ry     beta=0.70
     Davidson diagonalization with overlap
     ethr =  1.00E-02,  avg # of iterations =  4.0

     negative rho (up, down):  2.749E-02 0.000E+00

     total cpu time spent up to now is       12.3 secs

     total energy              =     -31.71795955 Ry
     Harris-Foulkes estimate   =     -31.75304643 Ry
     estimated scf accuracy    <       3.23897002 Ry

     iteration # 82     ecut=    30.00 Ry     beta=0.70
     Davidson diagonalization with overlap
     ethr =  1.00E-02,  avg # of iterations =  1.0

     negative rho (up, down):  7.067E-03 0.000E+00

     total cpu time spent up to now is       12.3 secs

     total energy              =     -31.54174220 Ry
     Harris-Foulkes estimate   =     -31.71955398 Ry
     estimated scf accuracy    <       3.04147460 Ry

     iteration # 83     ecut=    30.00 Ry     beta=0.70
     Davidson diagonalization with overlap
     ethr =  1.00E-02,  avg # of iterations =  1.0

     negative rho (up, down):  3.733E-03 0.000E+00

     total cpu time spent up to now is       12.3 secs

     total energy              =     -31.70200242 Ry
     Harris-Foulkes estimate   =     -31.59052719 Ry
     estimated scf accuracy    <       0.63628280 Ry

     iteration # 84     ecut=    30.00 Ry     beta=0.70
     Davidson diagonalization with overlap
     ethr =  7.95E-03,  avg # of iterations =  3.0

     negative rho (up, down):  3.176E-03 0.000E+00

     total cpu time spent up to now is       12.4 secs

     total energy              =     -31.67210952 Ry
     Harris-Foulkes estimate   =     -32.38050811 Ry
     estimated scf accuracy    <       5.29412525 Ry

     iteration # 85     ecut=    30.00 Ry     beta=0.70
     Davidson diagonalization with overlap
     ethr =  7.95E-03,  avg # of iterations =  2.0

     negative rho (up, down):  6.938E-04 0.000E+00

     total cpu time spent up to now is       12.4 secs

     total energy              =     -30.77800399 Ry
     Harris-Foulkes estimate   =     -31.71145559 Ry
     estimated scf accuracy    <       4.60553677 Ry

     iteration # 86     ecut=    30.00 Ry     beta=0.70
     Davidson diagonalization with overlap
     ethr =  7.95E-03,  avg # of iterations =  2.0

     negative rho (up, down):  4.951E-02 0.000E+00

     total cpu time spent up to now is       12.5 secs

     total energy              =     -32.58251390 Ry
     Harris-Foulkes estimate   =     -32.11725663 Ry
     estimated scf accuracy    <       3.75976323 Ry

     iteration # 87     ecut=    30.00 Ry     beta=0.70
     Davidson diagonalization with overlap
     ethr =  7.95E-03,  avg # of iterations =  1.0

     negative rho (up, down):  1.051E-02 0.000E+00

     total cpu time spent up to now is       12.5 secs

     total energy              =     -32.39014071 Ry
     Harris-Foulkes estimate   =     -32.58474597 Ry
     estimated scf accuracy    <       4.40796829 Ry

     iteration # 88     ecut=    30.00 Ry     beta=0.70
     Davidson diagonalization with overlap
     ethr =  7.95E-03,  avg # of iterations =  1.0

     negative rho (up, down):  7.921E-03 0.000E+00

     total cpu time spent up to now is       12.5 secs

     total energy              =     -32.46456425 Ry
     Harris-Foulkes estimate   =     -32.39146136 Ry
     estimated scf accuracy    <       4.09650787 Ry

     iteration # 89     ecut=    30.00 Ry     beta=0.70
     Davidson diagonalization with overlap
     ethr =  7.95E-03,  avg # of iterations =  1.0

     negative rho (up, down):  1.266E-02 0.000E+00

     total cpu time spent up to now is       12.6 secs

     total energy              =     -32.71219287 Ry
     Harris-Foulkes estimate   =     -32.46479217 Ry
     estimated scf accuracy    <       4.20049802 Ry

     iteration # 90     ecut=    30.00 Ry     beta=0.70
     Davidson diagonalization with overlap
     ethr =  7.95E-03,  avg # of iterations =  1.0

     negative rho (up, down):  7.934E-03 0.000E+00

     total cpu time spent up to now is       12.6 secs

     total energy              =     -32.73093414 Ry
     Harris-Foulkes estimate   =     -32.71252054 Ry
     estimated scf accuracy    <       4.48344511 Ry

     iteration # 91     ecut=    30.00 Ry     beta=0.70
     Davidson diagonalization with overlap
     ethr =  7.95E-03,  avg # of iterations =  3.0

     negative rho (up, down):  5.321E-03 0.000E+00

     total cpu time spent up to now is       12.6 secs

     total energy              =     -24.90204577 Ry
     Harris-Foulkes estimate   =     -33.68835576 Ry
     estimated scf accuracy    <       4.77084344 Ry

     iteration # 92     ecut=    30.00 Ry     beta=0.70
     Davidson diagonalization with overlap
     ethr =  7.95E-03,  avg # of iterations =  4.0

     negative rho (up, down):  2.416E-02 0.000E+00

     total cpu time spent up to now is       12.7 secs

     total energy              =     -31.45780817 Ry
     Harris-Foulkes estimate   =     -32.40338795 Ry
     estimated scf accuracy    <       4.06729471 Ry

     iteration # 93     ecut=    30.00 Ry     beta=0.70
     Davidson diagonalization with overlap
     ethr =  7.95E-03,  avg # of iterations =  2.0

     negative rho (up, down):  1.723E-08 0.000E+00

     total cpu time spent up to now is       12.7 secs

     total energy              =     -31.00853771 Ry
     Harris-Foulkes estimate   =     -31.58179544 Ry
     estimated scf accuracy    <       1.32462531 Ry

     iteration # 94     ecut=    30.00 Ry     beta=0.70
     Davidson diagonalization with overlap
     ethr =  7.95E-03,  avg # of iterations =  2.0

     negative rho (up, down):  1.833E-02 0.000E+00

     total cpu time spent up to now is       12.8 secs

     total energy              =     -32.74266261 Ry
     Harris-Foulkes estimate   =     -32.14974242 Ry
     estimated scf accuracy    <       3.67414506 Ry

     iteration # 95     ecut=    30.00 Ry     beta=0.70
     Davidson diagonalization with overlap
     ethr =  7.95E-03,  avg # of iterations =  1.0

     negative rho (up, down):  8.169E-03 0.000E+00

     total cpu time spent up to now is       12.8 secs

     total energy              =     -32.96557226 Ry
     Harris-Foulkes estimate   =     -32.74418190 Ry
     estimated scf accuracy    <       4.29285412 Ry

     iteration # 96     ecut=    30.00 Ry     beta=0.70
     Davidson diagonalization with overlap
     ethr =  7.95E-03,  avg # of iterations =  1.0

     negative rho (up, down):  2.127E-03 0.000E+00

     total cpu time spent up to now is       12.8 secs

     total energy              =     -32.43403172 Ry
     Harris-Foulkes estimate   =     -32.96914731 Ry
     estimated scf accuracy    <       4.75207193 Ry

     iteration # 97     ecut=    30.00 Ry     beta=0.70
     Davidson diagonalization with overlap
     ethr =  7.95E-03,  avg # of iterations =  1.0

     negative rho (up, down):  1.233E-07 0.000E+00

     total cpu time spent up to now is       12.8 secs

     total energy              =     -31.52041202 Ry
     Harris-Foulkes estimate   =     -32.44819348 Ry
     estimated scf accuracy    <       2.33405461 Ry

     iteration # 98     ecut=    30.00 Ry     beta=0.70
     Davidson diagonalization with overlap
     ethr =  7.95E-03,  avg # of iterations =  2.0

     negative rho (up, down):  6.217E-06 0.000E+00

     total cpu time spent up to now is       12.9 secs

     total energy              =     -31.35268525 Ry
     Harris-Foulkes estimate   =     -31.61270954 Ry
     estimated scf accuracy    <       0.83733220 Ry

     iteration # 99     ecut=    30.00 Ry     beta=0.70
     Davidson diagonalization with overlap
     ethr =  7.95E-03,  avg # of iterations =  1.0

     negative rho (up, down):  6.321E-06 0.000E+00

     total cpu time spent up to now is       12.9 secs

     total energy              =     -31.84811804 Ry
     Harris-Foulkes estimate   =     -31.98246520 Ry
     estimated scf accuracy    <       1.87052093 Ry

     iteration #100     ecut=    30.00 Ry     beta=0.70
     Davidson diagonalization with overlap
     ethr =  7.95E-03,  avg # of iterations =  1.0

     negative rho (up, down):  2.012E-02 0.000E+00

     total cpu time spent up to now is       13.0 secs

     total energy              =     -33.25062715 Ry
     Harris-Foulkes estimate   =     -31.84942734 Ry
     estimated scf accuracy    <       1.40219733 Ry

     End of self-consistent calculation

     convergence NOT achieved after 100 iterations: stopping

     Writing output data file pwscf.save
 
     init_run     :      0.09s CPU      0.11s WALL (       1 calls)
     electrons    :      8.72s CPU     11.12s WALL (       6 calls)
     update_pot   :      0.59s CPU      0.96s WALL (       5 calls)
     forces       :      0.14s CPU      0.14s WALL (       5 calls)

     Called by init_run:
     wfcinit      :      0.01s CPU      0.02s WALL (       1 calls)
     potinit      :      0.02s CPU      0.03s WALL (       1 calls)

     Called by electrons:
     c_bands      :      3.52s CPU      3.75s WALL (     229 calls)
     sum_band     :      0.72s CPU      0.79s WALL (     229 calls)
     v_of_rho     :      1.68s CPU      1.79s WALL (     235 calls)
     mix_rho      :      1.93s CPU      3.12s WALL (     229 calls)

     Called by c_bands:
     init_us_2    :      0.02s CPU      0.03s WALL (     459 calls)
     cegterg      :      3.47s CPU      3.63s WALL (     229 calls)

     Called by sum_band:

     Called by *egterg:
     h_psi        :      2.90s CPU      2.99s WALL (    1090 calls)
     g_psi        :      0.03s CPU      0.03s WALL (     860 calls)
     cdiaghg      :      0.21s CPU      0.22s WALL (    1084 calls)

     Called by h_psi:
     h_psi:pot    :      2.88s CPU      2.97s WALL (    1090 calls)
     h_psi:calbec :      0.05s CPU      0.06s WALL (    1090 calls)
     vloc_psi     :      2.82s CPU      2.90s WALL (    1090 calls)
     add_vuspsi   :      0.01s CPU      0.01s WALL (    1090 calls)

     General routines
     calbec       :      0.08s CPU      0.10s WALL (    1114 calls)
     fft          :      1.04s CPU      1.10s WALL (    2595 calls)
     fftw         :      3.02s CPU      3.14s WALL (   13242 calls)
     davcio       :      0.24s CPU      0.99s WALL (    4059 calls)
 
     Parallel routines
     fft_scatter  :      1.54s CPU      1.65s WALL (   15837 calls)
 
     PWSCF        :     9.73s CPU        13.23s WALL

 
   This run was terminated on:   8: 8:14  14Feb2018            

=------------------------------------------------------------------------------=
   JOB DONE.
=------------------------------------------------------------------------------=
