
     Program PWSCF v.6.0 (svn rev. 13079) starts on 14Feb2018 at  8: 9:53 

     This program is part of the open-source Quantum ESPRESSO suite
     for quantum simulation of materials; please cite
         "P. Giannozzi et al., J. Phys.:Condens. Matter 21 395502 (2009);
          URL http://www.quantum-espresso.org", 
     in publications or presentations arising from this work. More details at
     http://www.quantum-espresso.org/quote

     Parallel version (MPI), running on    28 processors
     R & G space division:  proc/nbgrp/npool/nimage =      28
     Reading input from inputs/MD-H2O-2/291.in

     Current dimensions of program PWSCF are:
     Max number of different atomic species (ntypx) = 10
     Max number of k-points (npk) =  40000
     Max angular momentum in pseudopotentials (lmaxx) =  3

     Subspace diagonalization in iterative solution of the eigenvalue problem:
     a serial algorithm will be used

 
     Parallelization info
     --------------------
     sticks:   dense  smooth     PW     G-vecs:    dense   smooth      PW
     Min         136     136     33                 6338     6338     787
     Max         137     137     34                 6341     6341     792
     Sum        3809    3809    949               177509   177509   22119
 


     bravais-lattice index     =            1
     lattice parameter (alat)  =      20.0000  a.u.
     unit-cell volume          =    8000.0000 (a.u.)^3
     number of atoms/cell      =            3
     number of atomic types    =            2
     number of electrons       =         8.00
     number of Kohn-Sham states=            8
     kinetic-energy cutoff     =      30.0000  Ry
     charge density cutoff     =     120.0000  Ry
     convergence threshold     =      1.0E-08
     mixing beta               =       0.7000
     number of iterations used =            8  plain     mixing
     Exchange-correlation      = BLYP ( 1  3  1  3 0 0)
     nstep                     =         5000


     celldm(1)=  20.000000  celldm(2)=   0.000000  celldm(3)=   0.000000
     celldm(4)=   0.000000  celldm(5)=   0.000000  celldm(6)=   0.000000

     crystal axes: (cart. coord. in units of alat)
               a(1) = (   1.000000   0.000000   0.000000 )  
               a(2) = (   0.000000   1.000000   0.000000 )  
               a(3) = (   0.000000   0.000000   1.000000 )  

     reciprocal axes: (cart. coord. in units 2 pi/alat)
               b(1) = (  1.000000  0.000000  0.000000 )  
               b(2) = (  0.000000  1.000000  0.000000 )  
               b(3) = (  0.000000  0.000000  1.000000 )  


     PseudoPot. # 1 for  H read from file:
     ./H.blyp-hgh.UPF
     MD5 check sum: c576e69559cde411e611be972c763230
     Pseudo is Norm-conserving, Zval =  1.0
     Generated in analytical, separable form
     Using radial grid of  929 points,  0 beta functions with: 

     PseudoPot. # 2 for  O read from file:
     ./O.blyp-hgh.UPF
     MD5 check sum: d0b7156309aa9befef28faac7bc56342
     Pseudo is Norm-conserving, Zval =  6.0
     Generated in analytical, separable form
     Using radial grid of 1095 points,  1 beta functions with: 
                l(1) =   0

     atomic species   valence    mass     pseudopotential
        H              1.00     1.01000      H( 1.00)
        O              6.00    16.00000      O( 1.00)

     No symmetry found



   Cartesian axes

     site n.     atom                  positions (alat units)
         1           H   tau(   1) = (   0.8025837   0.8149645   0.0318865  )
         2           H   tau(   2) = (   0.3595411   0.7579042   0.1333304  )
         3           O   tau(   3) = (   0.7605411   0.8557843   0.9515632  )

     number of k points=     1  Marzari-Vanderbilt smearing, width (Ry)=  0.0250
                       cart. coord. in units 2pi/alat
        k(    1) = (   0.0000000   0.0000000   0.0000000), wk =   2.0000000

     Dense  grid:   177509 G-vectors     FFT dimensions: (  72,  72,  72)

     Estimated max dynamical RAM per process >       6.09Mb

     Estimated total allocated dynamical RAM >     170.64Mb

     Initial potential from superposition of free atoms
     Check: negative starting charge=   -0.346698

     starting charge    7.99998, renormalised to    8.00000

     negative rho (up, down):  3.467E-01 0.000E+00
     Starting wfc are    6 randomized atomic wfcs +    2 random wfc

     total cpu time spent up to now is        0.2 secs

     per-process dynamical memory:    18.8 Mb

     Self-consistent Calculation

     iteration #  1     ecut=    30.00 Ry     beta=0.70
     Davidson diagonalization with overlap
     ethr =  1.00E-02,  avg # of iterations =  9.0

     negative rho (up, down):  9.042E-02 0.000E+00

     total cpu time spent up to now is        0.3 secs

     total energy              =     -30.42023793 Ry
     Harris-Foulkes estimate   =     -32.23089504 Ry
     estimated scf accuracy    <       2.08935584 Ry

     iteration #  2     ecut=    30.00 Ry     beta=0.70
     Davidson diagonalization with overlap
     ethr =  1.00E-02,  avg # of iterations =  3.0

     negative rho (up, down):  6.586E-02 0.000E+00

     total cpu time spent up to now is        0.3 secs

     total energy              =     -32.26072869 Ry
     Harris-Foulkes estimate   =     -34.47249985 Ry
     estimated scf accuracy    <       5.41081790 Ry

     iteration #  3     ecut=    30.00 Ry     beta=0.70
     Davidson diagonalization with overlap
     ethr =  1.00E-02,  avg # of iterations =  2.0

     negative rho (up, down):  6.338E-02 0.000E+00

     total cpu time spent up to now is        0.3 secs

     total energy              =     -32.41165498 Ry
     Harris-Foulkes estimate   =     -32.49268419 Ry
     estimated scf accuracy    <       1.73991313 Ry

     iteration #  4     ecut=    30.00 Ry     beta=0.70
     Davidson diagonalization with overlap
     ethr =  1.00E-02,  avg # of iterations =  1.0

     negative rho (up, down):  1.235E-02 0.000E+00

     total cpu time spent up to now is        0.4 secs

     total energy              =     -31.32909311 Ry
     Harris-Foulkes estimate   =     -32.41199174 Ry
     estimated scf accuracy    <       1.62661728 Ry

     iteration #  5     ecut=    30.00 Ry     beta=0.70
     Davidson diagonalization with overlap
     ethr =  1.00E-02,  avg # of iterations =  3.0

     negative rho (up, down):  9.492E-03 0.000E+00

     total cpu time spent up to now is        0.4 secs

     total energy              =     -33.05882939 Ry
     Harris-Foulkes estimate   =     -33.11046434 Ry
     estimated scf accuracy    <       4.87837635 Ry

     iteration #  6     ecut=    30.00 Ry     beta=0.70
     Davidson diagonalization with overlap
     ethr =  1.00E-02,  avg # of iterations =  1.0

     negative rho (up, down):  9.102E-03 0.000E+00

     total cpu time spent up to now is        0.4 secs

     total energy              =     -32.79318761 Ry
     Harris-Foulkes estimate   =     -33.06687965 Ry
     estimated scf accuracy    <       3.86086127 Ry

     iteration #  7     ecut=    30.00 Ry     beta=0.70
     Davidson diagonalization with overlap
     ethr =  1.00E-02,  avg # of iterations =  1.0

     negative rho (up, down):  4.403E-03 0.000E+00

     total cpu time spent up to now is        0.5 secs

     total energy              =     -32.45776273 Ry
     Harris-Foulkes estimate   =     -32.81990234 Ry
     estimated scf accuracy    <       2.80865047 Ry

     iteration #  8     ecut=    30.00 Ry     beta=0.70
     Davidson diagonalization with overlap
     ethr =  1.00E-02,  avg # of iterations =  1.0

     negative rho (up, down):  2.383E-03 0.000E+00

     total cpu time spent up to now is        0.5 secs

     total energy              =     -32.13111591 Ry
     Harris-Foulkes estimate   =     -32.46713789 Ry
     estimated scf accuracy    <       2.09439474 Ry

     iteration #  9     ecut=    30.00 Ry     beta=0.70
     Davidson diagonalization with overlap
     ethr =  1.00E-02,  avg # of iterations =  1.0

     negative rho (up, down):  9.935E-07 0.000E+00

     total cpu time spent up to now is        0.5 secs

     total energy              =     -31.84142915 Ry
     Harris-Foulkes estimate   =     -32.14047832 Ry
     estimated scf accuracy    <       1.48559089 Ry

     iteration # 10     ecut=    30.00 Ry     beta=0.70
     Davidson diagonalization with overlap
     ethr =  1.00E-02,  avg # of iterations =  1.0

     negative rho (up, down):  3.768E-03 0.000E+00

     total cpu time spent up to now is        0.6 secs

     total energy              =     -31.89516906 Ry
     Harris-Foulkes estimate   =     -32.00905909 Ry
     estimated scf accuracy    <       0.91850874 Ry

     iteration # 11     ecut=    30.00 Ry     beta=0.70
     Davidson diagonalization with overlap
     ethr =  1.00E-02,  avg # of iterations =  1.0

     negative rho (up, down):  7.517E-03 0.000E+00

     total cpu time spent up to now is        0.6 secs

     total energy              =     -32.02317393 Ry
     Harris-Foulkes estimate   =     -31.97511152 Ry
     estimated scf accuracy    <       1.50426257 Ry

     iteration # 12     ecut=    30.00 Ry     beta=0.70
     Davidson diagonalization with overlap
     ethr =  1.00E-02,  avg # of iterations =  1.0

     negative rho (up, down):  1.298E-02 0.000E+00

     total cpu time spent up to now is        0.6 secs

     total energy              =     -31.95292472 Ry
     Harris-Foulkes estimate   =     -32.02113983 Ry
     estimated scf accuracy    <       1.26421350 Ry

     iteration # 13     ecut=    30.00 Ry     beta=0.70
     Davidson diagonalization with overlap
     ethr =  1.00E-02,  avg # of iterations =  1.0

     negative rho (up, down):  1.639E-02 0.000E+00

     total cpu time spent up to now is        0.7 secs

     total energy              =     -31.94851183 Ry
     Harris-Foulkes estimate   =     -31.95237578 Ry
     estimated scf accuracy    <       0.42892174 Ry

     iteration # 14     ecut=    30.00 Ry     beta=0.70
     Davidson diagonalization with overlap
     ethr =  5.36E-03,  avg # of iterations =  1.0

     negative rho (up, down):  1.600E-02 0.000E+00

     total cpu time spent up to now is        0.7 secs

     total energy              =     -31.95076761 Ry
     Harris-Foulkes estimate   =     -31.94918163 Ry
     estimated scf accuracy    <       0.18534762 Ry

     iteration # 15     ecut=    30.00 Ry     beta=0.70
     Davidson diagonalization with overlap
     ethr =  2.32E-03,  avg # of iterations =  1.0

     negative rho (up, down):  5.610E-04 0.000E+00

     total cpu time spent up to now is        0.7 secs

     total energy              =     -31.92000082 Ry
     Harris-Foulkes estimate   =     -31.95102728 Ry
     estimated scf accuracy    <       0.32622163 Ry

     iteration # 16     ecut=    30.00 Ry     beta=0.70
     Davidson diagonalization with overlap
     ethr =  2.32E-03,  avg # of iterations =  1.0

     negative rho (up, down):  4.130E-04 0.000E+00

     total cpu time spent up to now is        0.8 secs

     total energy              =     -31.93952470 Ry
     Harris-Foulkes estimate   =     -31.96959990 Ry
     estimated scf accuracy    <       0.80929522 Ry

     iteration # 17     ecut=    30.00 Ry     beta=0.70
     Davidson diagonalization with overlap
     ethr =  2.32E-03,  avg # of iterations =  1.0

     negative rho (up, down):  1.617E-04 0.000E+00

     total cpu time spent up to now is        0.8 secs

     total energy              =     -31.94656433 Ry
     Harris-Foulkes estimate   =     -31.94746214 Ry
     estimated scf accuracy    <       0.06133244 Ry

     iteration # 18     ecut=    30.00 Ry     beta=0.70
     Davidson diagonalization with overlap
     ethr =  7.67E-04,  avg # of iterations =  1.0

     negative rho (up, down):  2.846E-04 0.000E+00

     total cpu time spent up to now is        0.8 secs

     total energy              =     -31.94741817 Ry
     Harris-Foulkes estimate   =     -31.94679257 Ry
     estimated scf accuracy    <       0.01491160 Ry

     iteration # 19     ecut=    30.00 Ry     beta=0.70
     Davidson diagonalization with overlap
     ethr =  1.86E-04,  avg # of iterations =  1.0

     negative rho (up, down):  1.962E-06 0.000E+00

     total cpu time spent up to now is        0.9 secs

     total energy              =     -31.94604073 Ry
     Harris-Foulkes estimate   =     -31.94787055 Ry
     estimated scf accuracy    <       0.08821582 Ry

     iteration # 20     ecut=    30.00 Ry     beta=0.70
     Davidson diagonalization with overlap
     ethr =  1.86E-04,  avg # of iterations =  1.0

     negative rho (up, down):  2.958E-06 0.000E+00

     total cpu time spent up to now is        0.9 secs

     total energy              =     -31.94638962 Ry
     Harris-Foulkes estimate   =     -31.94667511 Ry
     estimated scf accuracy    <       0.00708637 Ry

     iteration # 21     ecut=    30.00 Ry     beta=0.70
     Davidson diagonalization with overlap
     ethr =  8.86E-05,  avg # of iterations =  1.0

     negative rho (up, down):  3.230E-08 0.000E+00

     total cpu time spent up to now is        0.9 secs

     total energy              =     -31.94652112 Ry
     Harris-Foulkes estimate   =     -31.94660155 Ry
     estimated scf accuracy    <       0.00180754 Ry

     iteration # 22     ecut=    30.00 Ry     beta=0.70
     Davidson diagonalization with overlap
     ethr =  2.26E-05,  avg # of iterations = 11.0

     negative rho (up, down):  1.016E-08 0.000E+00

     total cpu time spent up to now is        1.0 secs

     total energy              =     -31.94657250 Ry
     Harris-Foulkes estimate   =     -31.94658936 Ry
     estimated scf accuracy    <       0.00085551 Ry

     iteration # 23     ecut=    30.00 Ry     beta=0.70
     Davidson diagonalization with overlap
     ethr =  1.07E-05,  avg # of iterations =  1.0

     total cpu time spent up to now is        1.0 secs

     total energy              =     -31.94657852 Ry
     Harris-Foulkes estimate   =     -31.94657870 Ry
     estimated scf accuracy    <       0.00005890 Ry

     iteration # 24     ecut=    30.00 Ry     beta=0.70
     Davidson diagonalization with overlap
     ethr =  7.36E-07,  avg # of iterations = 10.0

     total cpu time spent up to now is        1.0 secs

     total energy              =     -31.94657697 Ry
     Harris-Foulkes estimate   =     -31.94657854 Ry
     estimated scf accuracy    <       0.00004323 Ry

     iteration # 25     ecut=    30.00 Ry     beta=0.70
     Davidson diagonalization with overlap
     ethr =  5.40E-07,  avg # of iterations =  1.0

     total cpu time spent up to now is        1.1 secs

     total energy              =     -31.94657794 Ry
     Harris-Foulkes estimate   =     -31.94657813 Ry
     estimated scf accuracy    <       0.00000781 Ry

     iteration # 26     ecut=    30.00 Ry     beta=0.70
     Davidson diagonalization with overlap
     ethr =  9.76E-08,  avg # of iterations =  1.0

     total cpu time spent up to now is        1.1 secs

     End of self-consistent calculation

          k = 0.0000 0.0000 0.0000 ( 22119 PWs)   bands (ev):

   -24.7921 -10.6400  -7.0557  -7.0491  -6.9031  -0.6961   0.3599   0.7554

     the Fermi energy is    -6.8787 ev

!    total energy              =     -31.94657804 Ry
     Harris-Foulkes estimate   =     -31.94657805 Ry
     estimated scf accuracy    <          1.8E-09 Ry

     convergence has been achieved in  26 iterations

     Forces acting on atoms (Ry/au):

     atom    1 type  1   force =     0.00732323   -0.00646550    0.01336130
     atom    2 type  1   force =     0.00087951    0.00033507   -0.00006969
     atom    3 type  2   force =    -0.00820274    0.00613042   -0.01329162

     Total force =     0.023588     Total SCF correction =     0.000013

     Molecular Dynamics Calculation

     Starting temperature  =  1000.00 K

     temperature is controlled by Andersen thermostat
     Collision frequency = 1.0000/timestep
     mass H                =     1.01
     mass O                =    16.00
     Time step             =   100.00 a.u.,  4.8378 femto-seconds

     Entering Dynamics:    iteration =     1
                           time      =   0.0048 pico-seconds


     Andersen thermostat:    3 collisions

ATOMIC_POSITIONS (bohr)
H       16.445748891  15.981157618   0.159699669
H        7.379784472  15.205077953   2.892885813
O       15.174017830  17.132801613  19.047155878


     kinetic energy (Ekin) =     0.02875018 Ry
     temperature           =  1513.09608752 K 
     Ekin + Etot (const)   =   -31.91782787 Ry

     Linear momentum :    0.0000000000    0.0000000000    0.0000000000

     Writing output data file pwscf.save
     Check: negative starting charge=   -0.346698
     NEW-OLD atomic charge density approx. for the potential
     Check: negative starting charge=   -0.347264

     negative rho (up, down):  9.013E-02 0.000E+00

     total cpu time spent up to now is        1.6 secs

     per-process dynamical memory:    20.4 Mb

     Self-consistent Calculation

     iteration #  1     ecut=    30.00 Ry     beta=0.70
     Davidson diagonalization with overlap
     ethr =  1.00E-06,  avg # of iterations = 19.0

     negative rho (up, down):  2.088E-02 0.000E+00

     total cpu time spent up to now is        1.7 secs

     total energy              =     -31.89708311 Ry
     Harris-Foulkes estimate   =     -31.87717761 Ry
     estimated scf accuracy    <       0.04344315 Ry

     iteration #  2     ecut=    30.00 Ry     beta=0.70
     Davidson diagonalization with overlap
     ethr =  5.43E-04,  avg # of iterations =  3.0

     negative rho (up, down):  1.853E-02 0.000E+00

     total cpu time spent up to now is        1.8 secs

     total energy              =     -31.92766065 Ry
     Harris-Foulkes estimate   =     -32.14352561 Ry
     estimated scf accuracy    <       1.25973530 Ry

     iteration #  3     ecut=    30.00 Ry     beta=0.70
     Davidson diagonalization with overlap
     ethr =  5.43E-04,  avg # of iterations =  2.0

     negative rho (up, down):  1.673E-02 0.000E+00

     total cpu time spent up to now is        1.8 secs

     total energy              =     -31.91342671 Ry
     Harris-Foulkes estimate   =     -31.93875507 Ry
     estimated scf accuracy    <       0.51398266 Ry

     iteration #  4     ecut=    30.00 Ry     beta=0.70
     Davidson diagonalization with overlap
     ethr =  5.43E-04,  avg # of iterations =  1.0

     negative rho (up, down):  3.723E-03 0.000E+00

     total cpu time spent up to now is        1.8 secs

     total energy              =     -31.94099162 Ry
     Harris-Foulkes estimate   =     -31.93403178 Ry
     estimated scf accuracy    <       0.26861422 Ry

     iteration #  5     ecut=    30.00 Ry     beta=0.70
     Davidson diagonalization with overlap
     ethr =  5.43E-04,  avg # of iterations =  1.0

     negative rho (up, down):  2.218E-04 0.000E+00

     total cpu time spent up to now is        1.9 secs

     total energy              =     -31.94604955 Ry
     Harris-Foulkes estimate   =     -31.94391141 Ry
     estimated scf accuracy    <       0.00708430 Ry

     iteration #  6     ecut=    30.00 Ry     beta=0.70
     Davidson diagonalization with overlap
     ethr =  8.86E-05,  avg # of iterations =  5.0

     total cpu time spent up to now is        1.9 secs

     total energy              =     -31.94569662 Ry
     Harris-Foulkes estimate   =     -31.94622013 Ry
     estimated scf accuracy    <       0.00828498 Ry

     iteration #  7     ecut=    30.00 Ry     beta=0.70
     Davidson diagonalization with overlap
     ethr =  8.86E-05,  avg # of iterations =  1.0

     negative rho (up, down):  4.278E-08 0.000E+00

     total cpu time spent up to now is        1.9 secs

     total energy              =     -31.94577208 Ry
     Harris-Foulkes estimate   =     -31.94638164 Ry
     estimated scf accuracy    <       0.01791904 Ry

     iteration #  8     ecut=    30.00 Ry     beta=0.70
     Davidson diagonalization with overlap
     ethr =  8.86E-05,  avg # of iterations =  1.0

     total cpu time spent up to now is        2.0 secs

     total energy              =     -31.94613722 Ry
     Harris-Foulkes estimate   =     -31.94614603 Ry
     estimated scf accuracy    <       0.00111736 Ry

     iteration #  9     ecut=    30.00 Ry     beta=0.70
     Davidson diagonalization with overlap
     ethr =  1.40E-05,  avg # of iterations = 11.0

     total cpu time spent up to now is        2.0 secs

     total energy              =     -31.94612688 Ry
     Harris-Foulkes estimate   =     -31.94613836 Ry
     estimated scf accuracy    <       0.00061064 Ry

     iteration # 10     ecut=    30.00 Ry     beta=0.70
     Davidson diagonalization with overlap
     ethr =  7.63E-06,  avg # of iterations =  1.0

     total cpu time spent up to now is        2.0 secs

     total energy              =     -31.94612887 Ry
     Harris-Foulkes estimate   =     -31.94613055 Ry
     estimated scf accuracy    <       0.00006534 Ry

     iteration # 11     ecut=    30.00 Ry     beta=0.70
     Davidson diagonalization with overlap
     ethr =  8.17E-07,  avg # of iterations =  1.0

     total cpu time spent up to now is        2.1 secs

     total energy              =     -31.94612901 Ry
     Harris-Foulkes estimate   =     -31.94612941 Ry
     estimated scf accuracy    <       0.00000296 Ry

     iteration # 12     ecut=    30.00 Ry     beta=0.70
     Davidson diagonalization with overlap
     ethr =  3.70E-08,  avg # of iterations =  1.0

     total cpu time spent up to now is        2.1 secs

     total energy              =     -31.94612901 Ry
     Harris-Foulkes estimate   =     -31.94612905 Ry
     estimated scf accuracy    <       0.00000002 Ry

     iteration # 13     ecut=    30.00 Ry     beta=0.70
     Davidson diagonalization with overlap
     ethr =  2.27E-10,  avg # of iterations =  1.0

     total cpu time spent up to now is        2.1 secs

     End of self-consistent calculation

          k = 0.0000 0.0000 0.0000 ( 22119 PWs)   bands (ev):

   -24.6459 -10.5488  -7.0352  -7.0273  -6.8804  -0.7649   0.3237   0.7588

     the Fermi energy is    -6.8570 ev

!    total energy              =     -31.94612899 Ry
     Harris-Foulkes estimate   =     -31.94612901 Ry
     estimated scf accuracy    <          4.1E-10 Ry

     convergence has been achieved in  13 iterations

     Forces acting on atoms (Ry/au):

     atom    1 type  1   force =    -0.02031412    0.01892903   -0.01811882
     atom    2 type  1   force =     0.00077974    0.00034978   -0.00006931
     atom    3 type  2   force =     0.01953439   -0.01927881    0.01818813

     Total force =     0.046734     Total SCF correction =     0.000034

     Entering Dynamics:    iteration =     2
                           time      =   0.0097 pico-seconds


     Andersen thermostat:    3 collisions

ATOMIC_POSITIONS (bohr)
H       16.574129076  16.709810314   0.152001256
H        7.838428866  15.326243928   3.008962580
O       15.136961903  17.079156810  19.040314494


     kinetic energy (Ekin) =     0.03616523 Ry
     temperature           =  1903.34363507 K 
     Ekin + Etot (const)   =   -31.90996377 Ry
     Message from routine dynamics:
     Total linear momentum <> 0

     Linear momentum :   -0.2969350391   -0.0929330363   -0.0572427301

     Writing output data file pwscf.save

     first order wave-functions extrapolation
     Check: negative starting charge=   -0.347264
     first order charge density extrapolation
     Check: negative starting charge=   -0.347245

     negative rho (up, down):  1.964E-01 0.000E+00

     total cpu time spent up to now is        2.5 secs

     per-process dynamical memory:    20.4 Mb

     Self-consistent Calculation

     iteration #  1     ecut=    30.00 Ry     beta=0.70
     Davidson diagonalization with overlap
     c_bands:  1 eigenvalues not converged
     ethr =  1.00E-06,  avg # of iterations = 20.0

     negative rho (up, down):  4.451E-02 0.000E+00

     total cpu time spent up to now is        2.7 secs

     total energy              =     -31.37399162 Ry
     Harris-Foulkes estimate   =     -31.92250371 Ry
     estimated scf accuracy    <       0.67961511 Ry

     iteration #  2     ecut=    30.00 Ry     beta=0.70
     Davidson diagonalization with overlap
     ethr =  8.50E-03,  avg # of iterations =  2.0

     negative rho (up, down):  3.548E-03 0.000E+00

     total cpu time spent up to now is        2.7 secs

     total energy              =     -31.19419369 Ry
     Harris-Foulkes estimate   =     -33.52289383 Ry
     estimated scf accuracy    <       9.46134615 Ry

     iteration #  3     ecut=    30.00 Ry     beta=0.70
     Davidson diagonalization with overlap
     ethr =  8.50E-03,  avg # of iterations =  2.0

     negative rho (up, down):  8.101E-03 0.000E+00

     total cpu time spent up to now is        2.7 secs

     total energy              =     -32.01096247 Ry
     Harris-Foulkes estimate   =     -32.17346663 Ry
     estimated scf accuracy    <       1.59897761 Ry

     iteration #  4     ecut=    30.00 Ry     beta=0.70
     Davidson diagonalization with overlap
     ethr =  8.50E-03,  avg # of iterations =  1.0

     negative rho (up, down):  9.311E-02 0.000E+00

     total cpu time spent up to now is        2.8 secs

     total energy              =     -31.76192236 Ry
     Harris-Foulkes estimate   =     -32.01677967 Ry
     estimated scf accuracy    <       1.30772984 Ry

     iteration #  5     ecut=    30.00 Ry     beta=0.70
     Davidson diagonalization with overlap
     ethr =  8.50E-03,  avg # of iterations =  1.0

     negative rho (up, down):  3.878E-02 0.000E+00

     total cpu time spent up to now is        2.8 secs

     total energy              =     -31.97025452 Ry
     Harris-Foulkes estimate   =     -31.98232106 Ry
     estimated scf accuracy    <       0.95375250 Ry

     iteration #  6     ecut=    30.00 Ry     beta=0.70
     Davidson diagonalization with overlap
     ethr =  8.50E-03,  avg # of iterations =  1.0

     negative rho (up, down):  4.213E-06 0.000E+00

     total cpu time spent up to now is        2.8 secs

     total energy              =     -31.87615395 Ry
     Harris-Foulkes estimate   =     -31.97063688 Ry
     estimated scf accuracy    <       0.88693076 Ry

     iteration #  7     ecut=    30.00 Ry     beta=0.70
     Davidson diagonalization with overlap
     ethr =  8.50E-03,  avg # of iterations =  1.0

     negative rho (up, down):  9.178E-07 0.000E+00

     total cpu time spent up to now is        2.9 secs

     total energy              =     -31.91934619 Ry
     Harris-Foulkes estimate   =     -31.97492829 Ry
     estimated scf accuracy    <       1.55100592 Ry

     iteration #  8     ecut=    30.00 Ry     beta=0.70
     Davidson diagonalization with overlap
     ethr =  8.50E-03,  avg # of iterations =  1.0

     total cpu time spent up to now is        2.9 secs

     total energy              =     -31.93598110 Ry
     Harris-Foulkes estimate   =     -31.93533537 Ry
     estimated scf accuracy    <       0.02533566 Ry

     iteration #  9     ecut=    30.00 Ry     beta=0.70
     Davidson diagonalization with overlap
     ethr =  3.17E-04,  avg # of iterations =  1.0

     total cpu time spent up to now is        2.9 secs

     total energy              =     -31.93497871 Ry
     Harris-Foulkes estimate   =     -31.93635098 Ry
     estimated scf accuracy    <       0.10388913 Ry

     iteration # 10     ecut=    30.00 Ry     beta=0.70
     Davidson diagonalization with overlap
     ethr =  3.17E-04,  avg # of iterations =  1.0

     total cpu time spent up to now is        2.9 secs

     total energy              =     -31.93583158 Ry
     Harris-Foulkes estimate   =     -31.93535857 Ry
     estimated scf accuracy    <       0.02298678 Ry

     iteration # 11     ecut=    30.00 Ry     beta=0.70
     Davidson diagonalization with overlap
     ethr =  2.87E-04,  avg # of iterations =  1.0

     negative rho (up, down):  7.614E-07 0.000E+00

     total cpu time spent up to now is        3.0 secs

     total energy              =     -31.93184654 Ry
     Harris-Foulkes estimate   =     -31.93603869 Ry
     estimated scf accuracy    <       0.07750471 Ry

     iteration # 12     ecut=    30.00 Ry     beta=0.70
     Davidson diagonalization with overlap
     ethr =  2.87E-04,  avg # of iterations =  1.0

     negative rho (up, down):  4.257E-08 0.000E+00

     total cpu time spent up to now is        3.0 secs

     total energy              =     -31.93581955 Ry
     Harris-Foulkes estimate   =     -31.93627482 Ry
     estimated scf accuracy    <       0.08106751 Ry

     iteration # 13     ecut=    30.00 Ry     beta=0.70
     Davidson diagonalization with overlap
     ethr =  2.87E-04,  avg # of iterations =  1.0

     negative rho (up, down):  1.011E-07 0.000E+00

     total cpu time spent up to now is        3.0 secs

     total energy              =     -31.93446106 Ry
     Harris-Foulkes estimate   =     -31.93586078 Ry
     estimated scf accuracy    <       0.05404946 Ry

     iteration # 14     ecut=    30.00 Ry     beta=0.70
     Davidson diagonalization with overlap
     ethr =  2.87E-04,  avg # of iterations =  1.0

     total cpu time spent up to now is        3.1 secs

     total energy              =     -31.93506377 Ry
     Harris-Foulkes estimate   =     -31.93508387 Ry
     estimated scf accuracy    <       0.00038883 Ry

     iteration # 15     ecut=    30.00 Ry     beta=0.70
     Davidson diagonalization with overlap
     ethr =  4.86E-06,  avg # of iterations = 10.0

     total cpu time spent up to now is        3.1 secs

     total energy              =     -31.93507449 Ry
     Harris-Foulkes estimate   =     -31.93508503 Ry
     estimated scf accuracy    <       0.00040821 Ry

     iteration # 16     ecut=    30.00 Ry     beta=0.70
     Davidson diagonalization with overlap
     ethr =  4.86E-06,  avg # of iterations =  1.0

     total cpu time spent up to now is        3.2 secs

     total energy              =     -31.93508003 Ry
     Harris-Foulkes estimate   =     -31.93507985 Ry
     estimated scf accuracy    <       0.00000004 Ry

     iteration # 17     ecut=    30.00 Ry     beta=0.70
     Davidson diagonalization with overlap
     ethr =  5.35E-10,  avg # of iterations =  2.0

     total cpu time spent up to now is        3.2 secs

     total energy              =     -31.93508004 Ry
     Harris-Foulkes estimate   =     -31.93508004 Ry
     estimated scf accuracy    <       0.00000012 Ry

     iteration # 18     ecut=    30.00 Ry     beta=0.70
     Davidson diagonalization with overlap
     ethr =  5.35E-10,  avg # of iterations =  1.0

     total cpu time spent up to now is        3.2 secs

     End of self-consistent calculation

          k = 0.0000 0.0000 0.0000 ( 22119 PWs)   bands (ev):

   -25.1560 -10.8050  -7.0784  -7.0686  -6.9176  -0.5674   0.4362   0.7782

     the Fermi energy is    -6.8975 ev

!    total energy              =     -31.93508011 Ry
     Harris-Foulkes estimate   =     -31.93508004 Ry
     estimated scf accuracy    <          8.9E-09 Ry

     convergence has been achieved in  18 iterations

     Forces acting on atoms (Ry/au):

     atom    1 type  1   force =     0.13270512   -0.03422232    0.10291671
     atom    2 type  1   force =     0.00071973    0.00002734   -0.00025817
     atom    3 type  2   force =    -0.13342485    0.03419498   -0.10265853

     Total force =     0.242661     Total SCF correction =     0.000287

     Entering Dynamics:    iteration =     3
                           time      =   0.0145 pico-seconds


     Andersen thermostat:    3 collisions

ATOMIC_POSITIONS (bohr)
H       18.110488945  16.460498723   1.562127803
H        7.317193899  15.588541911   2.897624892
O       15.072882144  17.078337044  18.958328447


     kinetic energy (Ekin) =     0.08410633 Ry
     temperature           =  4426.44118232 K 
     Ekin + Etot (const)   =   -31.85097378 Ry
     Message from routine dynamics:
     Total linear momentum <> 0

     Linear momentum :    0.1540878217    0.0266160715   -0.3260274393

     Writing output data file pwscf.save

     second order wave-functions extrapolation
     Check: negative starting charge=   -0.347245
     second order charge density extrapolation
     Check: negative starting charge=   -0.341666

     negative rho (up, down):  2.533E-01 0.000E+00

     total cpu time spent up to now is        3.6 secs

     per-process dynamical memory:    20.4 Mb

     Self-consistent Calculation

     iteration #  1     ecut=    30.00 Ry     beta=0.70
     Davidson diagonalization with overlap
     ethr =  1.00E-06,  avg # of iterations = 18.0

     negative rho (up, down):  6.148E-02 0.000E+00

     total cpu time spent up to now is        3.7 secs

     total energy              =     -30.19350558 Ry
     Harris-Foulkes estimate   =     -31.73410054 Ry
     estimated scf accuracy    <       1.84921964 Ry

     iteration #  2     ecut=    30.00 Ry     beta=0.70
     Davidson diagonalization with overlap
     ethr =  1.00E-02,  avg # of iterations =  2.0

     negative rho (up, down):  4.716E-02 0.000E+00

     total cpu time spent up to now is        3.8 secs

     total energy              =     -31.94476466 Ry
     Harris-Foulkes estimate   =     -34.76242670 Ry
     estimated scf accuracy    <       7.84159683 Ry

     iteration #  3     ecut=    30.00 Ry     beta=0.70
     Davidson diagonalization with overlap
     ethr =  1.00E-02,  avg # of iterations =  2.0

     negative rho (up, down):  3.994E-02 0.000E+00

     total cpu time spent up to now is        3.8 secs

     total energy              =     -31.79285172 Ry
     Harris-Foulkes estimate   =     -32.20404204 Ry
     estimated scf accuracy    <       2.58856070 Ry

     iteration #  4     ecut=    30.00 Ry     beta=0.70
     Davidson diagonalization with overlap
     ethr =  1.00E-02,  avg # of iterations =  2.0

     negative rho (up, down):  3.825E-02 0.000E+00

     total cpu time spent up to now is        3.8 secs

     total energy              =     -31.79948059 Ry
     Harris-Foulkes estimate   =     -31.81789004 Ry
     estimated scf accuracy    <       1.40560759 Ry

     iteration #  5     ecut=    30.00 Ry     beta=0.70
     Davidson diagonalization with overlap
     ethr =  1.00E-02,  avg # of iterations =  1.0

     negative rho (up, down):  5.202E-03 0.000E+00

     total cpu time spent up to now is        3.8 secs

     total energy              =     -30.96904299 Ry
     Harris-Foulkes estimate   =     -31.80276828 Ry
     estimated scf accuracy    <       1.59445509 Ry

     iteration #  6     ecut=    30.00 Ry     beta=0.70
     Davidson diagonalization with overlap
     ethr =  1.00E-02,  avg # of iterations =  2.0

     negative rho (up, down):  4.005E-03 0.000E+00

     total cpu time spent up to now is        3.9 secs

     total energy              =     -32.39260825 Ry
     Harris-Foulkes estimate   =     -32.98350738 Ry
     estimated scf accuracy    <       5.88524288 Ry

     iteration #  7     ecut=    30.00 Ry     beta=0.70
     Davidson diagonalization with overlap
     ethr =  1.00E-02,  avg # of iterations =  1.0

     negative rho (up, down):  2.939E-03 0.000E+00

     total cpu time spent up to now is        3.9 secs

     total energy              =     -32.19699201 Ry
     Harris-Foulkes estimate   =     -32.44872055 Ry
     estimated scf accuracy    <       3.46805186 Ry

     iteration #  8     ecut=    30.00 Ry     beta=0.70
     Davidson diagonalization with overlap
     ethr =  1.00E-02,  avg # of iterations =  1.0

     negative rho (up, down):  1.002E-03 0.000E+00

     total cpu time spent up to now is        3.9 secs

     total energy              =     -31.61854464 Ry
     Harris-Foulkes estimate   =     -32.20306351 Ry
     estimated scf accuracy    <       2.76066039 Ry

     iteration #  9     ecut=    30.00 Ry     beta=0.70
     Davidson diagonalization with overlap
     ethr =  1.00E-02,  avg # of iterations =  1.0

     negative rho (up, down):  9.706E-04 0.000E+00

     total cpu time spent up to now is        4.0 secs

     total energy              =     -31.56878747 Ry
     Harris-Foulkes estimate   =     -31.65604375 Ry
     estimated scf accuracy    <       1.46391324 Ry

     iteration # 10     ecut=    30.00 Ry     beta=0.70
     Davidson diagonalization with overlap
     ethr =  1.00E-02,  avg # of iterations =  1.0

     negative rho (up, down):  2.589E-04 0.000E+00

     total cpu time spent up to now is        4.0 secs

     total energy              =     -31.59257920 Ry
     Harris-Foulkes estimate   =     -31.65281148 Ry
     estimated scf accuracy    <       0.79724153 Ry

     iteration # 11     ecut=    30.00 Ry     beta=0.70
     Davidson diagonalization with overlap
     ethr =  9.97E-03,  avg # of iterations =  1.0

     negative rho (up, down):  1.485E-05 0.000E+00

     total cpu time spent up to now is        4.1 secs

     total energy              =     -31.70770873 Ry
     Harris-Foulkes estimate   =     -31.65394595 Ry
     estimated scf accuracy    <       1.22321963 Ry

     iteration # 12     ecut=    30.00 Ry     beta=0.70
     Davidson diagonalization with overlap
     ethr =  9.97E-03,  avg # of iterations =  1.0

     negative rho (up, down):  3.758E-07 0.000E+00

     total cpu time spent up to now is        4.1 secs

     total energy              =     -31.69226543 Ry
     Harris-Foulkes estimate   =     -31.71002964 Ry
     estimated scf accuracy    <       1.27183319 Ry

     iteration # 13     ecut=    30.00 Ry     beta=0.70
     Davidson diagonalization with overlap
     ethr =  9.97E-03,  avg # of iterations =  1.0

     negative rho (up, down):  3.522E-08 0.000E+00

     total cpu time spent up to now is        4.1 secs

     total energy              =     -31.66282265 Ry
     Harris-Foulkes estimate   =     -31.69211886 Ry
     estimated scf accuracy    <       1.31924847 Ry

     iteration # 14     ecut=    30.00 Ry     beta=0.70
     Davidson diagonalization with overlap
     ethr =  9.97E-03,  avg # of iterations =  1.0

     negative rho (up, down):  7.148E-07 0.000E+00

     total cpu time spent up to now is        4.2 secs

     total energy              =     -31.64732179 Ry
     Harris-Foulkes estimate   =     -31.66100087 Ry
     estimated scf accuracy    <       1.51571347 Ry

     iteration # 15     ecut=    30.00 Ry     beta=0.70
     Davidson diagonalization with overlap
     ethr =  9.97E-03,  avg # of iterations =  1.0

     negative rho (up, down):  1.348E-04 0.000E+00

     total cpu time spent up to now is        4.2 secs

     total energy              =     -31.71672890 Ry
     Harris-Foulkes estimate   =     -31.64817634 Ry
     estimated scf accuracy    <       1.07392059 Ry

     iteration # 16     ecut=    30.00 Ry     beta=0.70
     Davidson diagonalization with overlap
     ethr =  9.97E-03,  avg # of iterations =  1.0

     negative rho (up, down):  2.012E-04 0.000E+00

     total cpu time spent up to now is        4.2 secs

     total energy              =     -31.76014172 Ry
     Harris-Foulkes estimate   =     -31.72365010 Ry
     estimated scf accuracy    <       1.29722932 Ry

     iteration # 17     ecut=    30.00 Ry     beta=0.70
     Davidson diagonalization with overlap
     ethr =  9.97E-03,  avg # of iterations =  1.0

     negative rho (up, down):  3.854E-04 0.000E+00

     total cpu time spent up to now is        4.3 secs

     total energy              =     -31.66143494 Ry
     Harris-Foulkes estimate   =     -31.76030538 Ry
     estimated scf accuracy    <       1.37000256 Ry

     iteration # 18     ecut=    30.00 Ry     beta=0.70
     Davidson diagonalization with overlap
     ethr =  9.97E-03,  avg # of iterations =  1.0

     negative rho (up, down):  1.722E-04 0.000E+00

     total cpu time spent up to now is        4.3 secs

     total energy              =     -31.66984847 Ry
     Harris-Foulkes estimate   =     -31.65913920 Ry
     estimated scf accuracy    <       1.48229263 Ry

     iteration # 19     ecut=    30.00 Ry     beta=0.70
     Davidson diagonalization with overlap
     ethr =  9.97E-03,  avg # of iterations =  1.0

     negative rho (up, down):  1.108E-04 0.000E+00

     total cpu time spent up to now is        4.3 secs

     total energy              =     -31.62057252 Ry
     Harris-Foulkes estimate   =     -31.67005073 Ry
     estimated scf accuracy    <       1.55193189 Ry

     iteration # 20     ecut=    30.00 Ry     beta=0.70
     Davidson diagonalization with overlap
     ethr =  9.97E-03,  avg # of iterations =  1.0

     negative rho (up, down):  4.936E-07 0.000E+00

     total cpu time spent up to now is        4.4 secs

     total energy              =     -31.62520315 Ry
     Harris-Foulkes estimate   =     -31.63350627 Ry
     estimated scf accuracy    <       0.06931549 Ry

     iteration # 21     ecut=    30.00 Ry     beta=0.70
     Davidson diagonalization with overlap
     ethr =  8.66E-04,  avg # of iterations =  1.0

     negative rho (up, down):  1.930E-06 0.000E+00

     total cpu time spent up to now is        4.4 secs

     total energy              =     -31.64287342 Ry
     Harris-Foulkes estimate   =     -31.64379134 Ry
     estimated scf accuracy    <       0.57017103 Ry

     iteration # 22     ecut=    30.00 Ry     beta=0.70
     Davidson diagonalization with overlap
     ethr =  8.66E-04,  avg # of iterations =  1.0

     negative rho (up, down):  6.077E-07 0.000E+00

     total cpu time spent up to now is        4.4 secs

     total energy              =     -31.63811457 Ry
     Harris-Foulkes estimate   =     -31.64288853 Ry
     estimated scf accuracy    <       0.53722130 Ry

     iteration # 23     ecut=    30.00 Ry     beta=0.70
     Davidson diagonalization with overlap
     ethr =  8.66E-04,  avg # of iterations =  1.0

     negative rho (up, down):  1.107E-06 0.000E+00

     total cpu time spent up to now is        4.5 secs

     total energy              =     -31.62929245 Ry
     Harris-Foulkes estimate   =     -31.63853596 Ry
     estimated scf accuracy    <       0.35078967 Ry

     iteration # 24     ecut=    30.00 Ry     beta=0.70
     Davidson diagonalization with overlap
     ethr =  8.66E-04,  avg # of iterations =  1.0

     negative rho (up, down):  1.754E-07 0.000E+00

     total cpu time spent up to now is        4.5 secs

     total energy              =     -31.63272283 Ry
     Harris-Foulkes estimate   =     -31.63278114 Ry
     estimated scf accuracy    <       0.01137124 Ry

     iteration # 25     ecut=    30.00 Ry     beta=0.70
     Davidson diagonalization with overlap
     ethr =  1.42E-04,  avg # of iterations =  1.0

     total cpu time spent up to now is        4.5 secs

     total energy              =     -31.63255222 Ry
     Harris-Foulkes estimate   =     -31.63272873 Ry
     estimated scf accuracy    <       0.00753176 Ry

     iteration # 26     ecut=    30.00 Ry     beta=0.70
     Davidson diagonalization with overlap
     ethr =  9.41E-05,  avg # of iterations =  1.0

     total cpu time spent up to now is        4.6 secs

     total energy              =     -31.63262295 Ry
     Harris-Foulkes estimate   =     -31.63262792 Ry
     estimated scf accuracy    <       0.00011693 Ry

     iteration # 27     ecut=    30.00 Ry     beta=0.70
     Davidson diagonalization with overlap
     ethr =  1.46E-06,  avg # of iterations = 12.0

     total cpu time spent up to now is        4.6 secs

     total energy              =     -31.63262495 Ry
     Harris-Foulkes estimate   =     -31.63262637 Ry
     estimated scf accuracy    <       0.00002706 Ry

     iteration # 28     ecut=    30.00 Ry     beta=0.70
     Davidson diagonalization with overlap
     ethr =  3.38E-07,  avg # of iterations =  1.0

     total cpu time spent up to now is        4.6 secs

     total energy              =     -31.63262498 Ry
     Harris-Foulkes estimate   =     -31.63262602 Ry
     estimated scf accuracy    <       0.00001439 Ry

     iteration # 29     ecut=    30.00 Ry     beta=0.70
     Davidson diagonalization with overlap
     ethr =  1.80E-07,  avg # of iterations =  1.0

     total cpu time spent up to now is        4.7 secs

     total energy              =     -31.63262549 Ry
     Harris-Foulkes estimate   =     -31.63262628 Ry
     estimated scf accuracy    <       0.00003893 Ry

     iteration # 30     ecut=    30.00 Ry     beta=0.70
     Davidson diagonalization with overlap
     ethr =  1.80E-07,  avg # of iterations =  1.0

     total cpu time spent up to now is        4.7 secs

     total energy              =     -31.63262557 Ry
     Harris-Foulkes estimate   =     -31.63262571 Ry
     estimated scf accuracy    <       0.00000438 Ry

     iteration # 31     ecut=    30.00 Ry     beta=0.70
     Davidson diagonalization with overlap
     ethr =  5.47E-08,  avg # of iterations =  1.0

     total cpu time spent up to now is        4.8 secs

     total energy              =     -31.63262560 Ry
     Harris-Foulkes estimate   =     -31.63262560 Ry
     estimated scf accuracy    <       0.00000029 Ry

     iteration # 32     ecut=    30.00 Ry     beta=0.70
     Davidson diagonalization with overlap
     ethr =  3.61E-09,  avg # of iterations =  1.0

     total cpu time spent up to now is        4.8 secs

     End of self-consistent calculation

          k = 0.0000 0.0000 0.0000 ( 22119 PWs)   bands (ev):

   -23.6057  -8.1679  -6.9362  -6.9288  -6.7868  -5.6808  -0.1087   0.6227

     the Fermi energy is    -6.7600 ev

!    total energy              =     -31.63262560 Ry
     Harris-Foulkes estimate   =     -31.63262560 Ry
     estimated scf accuracy    <          1.7E-09 Ry

     convergence has been achieved in  32 iterations

     Forces acting on atoms (Ry/au):

     atom    1 type  1   force =    -0.07878771    0.01561364   -0.06728589
     atom    2 type  1   force =     0.00034225    0.00005831   -0.00044478
     atom    3 type  2   force =     0.07844546   -0.01567195    0.06773067

     Total force =     0.148208     Total SCF correction =     0.000013

     Entering Dynamics:    iteration =     4
                           time      =   0.0194 pico-seconds


     Andersen thermostat:    3 collisions

ATOMIC_POSITIONS (bohr)
H       17.377412573  16.605522415   0.418294552
H        7.641324166  15.881620631   2.888580345
O       15.098696867  17.050681829  19.031103858


     kinetic energy (Ekin) =     0.04974662 Ry
     temperature           =  2618.12008533 K 
     Ekin + Etot (const)   =   -31.58287898 Ry
     Message from routine dynamics:
     Total linear momentum <> 0

     Linear momentum :   -0.0999765104   -0.3345986380   -0.6434463835

     Writing output data file pwscf.save

     second order wave-functions extrapolation
     Check: negative starting charge=   -0.341666
     second order charge density extrapolation
     Check: negative starting charge=   -0.345160

     negative rho (up, down):  7.484E-02 0.000E+00

     total cpu time spent up to now is        5.1 secs

     per-process dynamical memory:    20.4 Mb

     Self-consistent Calculation

     iteration #  1     ecut=    30.00 Ry     beta=0.70
     Davidson diagonalization with overlap
     c_bands:  1 eigenvalues not converged
     ethr =  1.00E-06,  avg # of iterations = 20.0

     negative rho (up, down):  1.675E-02 0.000E+00

     total cpu time spent up to now is        5.3 secs

     total energy              =     -30.86486262 Ry
     Harris-Foulkes estimate   =     -31.82427489 Ry
     estimated scf accuracy    <       1.20579963 Ry

     iteration #  2     ecut=    30.00 Ry     beta=0.70
     Davidson diagonalization with overlap
     ethr =  1.00E-02,  avg # of iterations =  2.0

     negative rho (up, down):  1.274E-02 0.000E+00

     total cpu time spent up to now is        5.3 secs

     total energy              =     -32.09346879 Ry
     Harris-Foulkes estimate   =     -33.90798564 Ry
     estimated scf accuracy    <       5.03336043 Ry

     iteration #  3     ecut=    30.00 Ry     beta=0.70
     Davidson diagonalization with overlap
     ethr =  1.00E-02,  avg # of iterations =  2.0

     negative rho (up, down):  1.091E-02 0.000E+00

     total cpu time spent up to now is        5.3 secs

     total energy              =     -32.08109749 Ry
     Harris-Foulkes estimate   =     -32.32438186 Ry
     estimated scf accuracy    <       1.56922172 Ry

     iteration #  4     ecut=    30.00 Ry     beta=0.70
     Davidson diagonalization with overlap
     ethr =  1.00E-02,  avg # of iterations =  1.0

     negative rho (up, down):  9.512E-03 0.000E+00

     total cpu time spent up to now is        5.4 secs

     total energy              =     -31.89871924 Ry
     Harris-Foulkes estimate   =     -32.07420474 Ry
     estimated scf accuracy    <       1.26565828 Ry

     iteration #  5     ecut=    30.00 Ry     beta=0.70
     Davidson diagonalization with overlap
     ethr =  1.00E-02,  avg # of iterations =  1.0

     negative rho (up, down):  7.563E-03 0.000E+00

     total cpu time spent up to now is        5.4 secs

     total energy              =     -31.71841336 Ry
     Harris-Foulkes estimate   =     -31.90090738 Ry
     estimated scf accuracy    <       0.97143322 Ry

     iteration #  6     ecut=    30.00 Ry     beta=0.70
     Davidson diagonalization with overlap
     ethr =  1.00E-02,  avg # of iterations =  1.0

     negative rho (up, down):  1.093E-03 0.000E+00

     total cpu time spent up to now is        5.4 secs

     total energy              =     -32.01125206 Ry
     Harris-Foulkes estimate   =     -31.94706593 Ry
     estimated scf accuracy    <       1.28878681 Ry

     iteration #  7     ecut=    30.00 Ry     beta=0.70
     Davidson diagonalization with overlap
     ethr =  1.00E-02,  avg # of iterations =  1.0

     negative rho (up, down):  6.975E-04 0.000E+00

     total cpu time spent up to now is        5.5 secs

     total energy              =     -31.97463108 Ry
     Harris-Foulkes estimate   =     -32.01290192 Ry
     estimated scf accuracy    <       1.41033244 Ry

     iteration #  8     ecut=    30.00 Ry     beta=0.70
     Davidson diagonalization with overlap
     ethr =  1.00E-02,  avg # of iterations =  1.0

     negative rho (up, down):  1.101E-04 0.000E+00

     total cpu time spent up to now is        5.5 secs

     total energy              =     -31.72297425 Ry
     Harris-Foulkes estimate   =     -31.97473147 Ry
     estimated scf accuracy    <       1.35708177 Ry

     iteration #  9     ecut=    30.00 Ry     beta=0.70
     Davidson diagonalization with overlap
     ethr =  1.00E-02,  avg # of iterations =  1.0

     negative rho (up, down):  7.364E-07 0.000E+00

     total cpu time spent up to now is        5.5 secs

     total energy              =     -31.85224363 Ry
     Harris-Foulkes estimate   =     -31.92041594 Ry
     estimated scf accuracy    <       0.97744897 Ry

     iteration # 10     ecut=    30.00 Ry     beta=0.70
     Davidson diagonalization with overlap
     ethr =  1.00E-02,  avg # of iterations =  1.0

     negative rho (up, down):  3.860E-06 0.000E+00

     total cpu time spent up to now is        5.6 secs

     total energy              =     -31.82799292 Ry
     Harris-Foulkes estimate   =     -31.85387986 Ry
     estimated scf accuracy    <       0.62238896 Ry

     iteration # 11     ecut=    30.00 Ry     beta=0.70
     Davidson diagonalization with overlap
     ethr =  7.78E-03,  avg # of iterations =  1.0

     negative rho (up, down):  4.427E-06 0.000E+00

     total cpu time spent up to now is        5.6 secs

     total energy              =     -31.84130412 Ry
     Harris-Foulkes estimate   =     -31.84086429 Ry
     estimated scf accuracy    <       0.02179529 Ry

     iteration # 12     ecut=    30.00 Ry     beta=0.70
     Davidson diagonalization with overlap
     ethr =  2.72E-04,  avg # of iterations =  1.0

     negative rho (up, down):  4.793E-06 0.000E+00

     total cpu time spent up to now is        5.6 secs

     total energy              =     -31.84222183 Ry
     Harris-Foulkes estimate   =     -31.84148675 Ry
     estimated scf accuracy    <       0.07001625 Ry

     iteration # 13     ecut=    30.00 Ry     beta=0.70
     Davidson diagonalization with overlap
     ethr =  2.72E-04,  avg # of iterations =  1.0

     negative rho (up, down):  2.211E-06 0.000E+00

     total cpu time spent up to now is        5.7 secs

     total energy              =     -31.85063315 Ry
     Harris-Foulkes estimate   =     -31.84237605 Ry
     estimated scf accuracy    <       0.14002242 Ry

     iteration # 14     ecut=    30.00 Ry     beta=0.70
     Davidson diagonalization with overlap
     ethr =  2.72E-04,  avg # of iterations =  1.0

     negative rho (up, down):  9.906E-07 0.000E+00

     total cpu time spent up to now is        5.7 secs

     total energy              =     -31.84383821 Ry
     Harris-Foulkes estimate   =     -31.85900394 Ry
     estimated scf accuracy    <       1.19372726 Ry

     iteration # 15     ecut=    30.00 Ry     beta=0.70
     Davidson diagonalization with overlap
     ethr =  2.72E-04,  avg # of iterations =  1.0

     negative rho (up, down):  2.216E-05 0.000E+00

     total cpu time spent up to now is        5.7 secs

     total energy              =     -31.85454513 Ry
     Harris-Foulkes estimate   =     -31.84648593 Ry
     estimated scf accuracy    <       0.45204628 Ry

     iteration # 16     ecut=    30.00 Ry     beta=0.70
     Davidson diagonalization with overlap
     ethr =  2.72E-04,  avg # of iterations =  1.0

     negative rho (up, down):  2.697E-05 0.000E+00

     total cpu time spent up to now is        5.8 secs

     total energy              =     -31.81175182 Ry
     Harris-Foulkes estimate   =     -31.85690081 Ry
     estimated scf accuracy    <       1.09579433 Ry

     iteration # 17     ecut=    30.00 Ry     beta=0.70
     Davidson diagonalization with overlap
     ethr =  2.72E-04,  avg # of iterations =  1.0

     negative rho (up, down):  9.726E-06 0.000E+00

     total cpu time spent up to now is        5.8 secs

     total energy              =     -31.84455885 Ry
     Harris-Foulkes estimate   =     -31.84409162 Ry
     estimated scf accuracy    <       0.21814297 Ry

     iteration # 18     ecut=    30.00 Ry     beta=0.70
     Davidson diagonalization with overlap
     ethr =  2.72E-04,  avg # of iterations =  1.0

     negative rho (up, down):  1.037E-05 0.000E+00

     total cpu time spent up to now is        5.8 secs

     total energy              =     -31.84346220 Ry
     Harris-Foulkes estimate   =     -31.84457666 Ry
     estimated scf accuracy    <       0.24466568 Ry

     iteration # 19     ecut=    30.00 Ry     beta=0.70
     Davidson diagonalization with overlap
     ethr =  2.72E-04,  avg # of iterations =  1.0

     negative rho (up, down):  9.558E-07 0.000E+00

     total cpu time spent up to now is        5.9 secs

     total energy              =     -31.84151121 Ry
     Harris-Foulkes estimate   =     -31.84353003 Ry
     estimated scf accuracy    <       0.18689017 Ry

     iteration # 20     ecut=    30.00 Ry     beta=0.70
     Davidson diagonalization with overlap
     ethr =  2.72E-04,  avg # of iterations =  1.0

     negative rho (up, down):  3.758E-07 0.000E+00

     total cpu time spent up to now is        5.9 secs

     total energy              =     -31.84057327 Ry
     Harris-Foulkes estimate   =     -31.84181850 Ry
     estimated scf accuracy    <       0.08732275 Ry

     iteration # 21     ecut=    30.00 Ry     beta=0.70
     Davidson diagonalization with overlap
     ethr =  2.72E-04,  avg # of iterations =  1.0

     negative rho (up, down):  1.236E-07 0.000E+00

     total cpu time spent up to now is        5.9 secs

     total energy              =     -31.84088403 Ry
     Harris-Foulkes estimate   =     -31.84086397 Ry
     estimated scf accuracy    <       0.02380289 Ry

     iteration # 22     ecut=    30.00 Ry     beta=0.70
     Davidson diagonalization with overlap
     ethr =  2.72E-04,  avg # of iterations =  1.0

     negative rho (up, down):  2.034E-07 0.000E+00

     total cpu time spent up to now is        6.0 secs

     total energy              =     -31.84087133 Ry
     Harris-Foulkes estimate   =     -31.84088474 Ry
     estimated scf accuracy    <       0.02517161 Ry

     iteration # 23     ecut=    30.00 Ry     beta=0.70
     Davidson diagonalization with overlap
     ethr =  2.72E-04,  avg # of iterations =  1.0

     negative rho (up, down):  4.686E-07 0.000E+00

     total cpu time spent up to now is        6.0 secs

     total energy              =     -31.84111210 Ry
     Harris-Foulkes estimate   =     -31.84087155 Ry
     estimated scf accuracy    <       0.02447872 Ry

     iteration # 24     ecut=    30.00 Ry     beta=0.70
     Davidson diagonalization with overlap
     ethr =  2.72E-04,  avg # of iterations =  1.0

     negative rho (up, down):  1.252E-06 0.000E+00

     total cpu time spent up to now is        6.0 secs

     total energy              =     -31.84099338 Ry
     Harris-Foulkes estimate   =     -31.84115562 Ry
     estimated scf accuracy    <       0.04462784 Ry

     iteration # 25     ecut=    30.00 Ry     beta=0.70
     Davidson diagonalization with overlap
     ethr =  2.72E-04,  avg # of iterations =  1.0

     total cpu time spent up to now is        6.1 secs

     total energy              =     -31.83961964 Ry
     Harris-Foulkes estimate   =     -31.84100366 Ry
     estimated scf accuracy    <       0.03450122 Ry

     iteration # 26     ecut=    30.00 Ry     beta=0.70
     Davidson diagonalization with overlap
     ethr =  2.72E-04,  avg # of iterations =  1.0

     total cpu time spent up to now is        6.1 secs

     total energy              =     -31.84041165 Ry
     Harris-Foulkes estimate   =     -31.84063592 Ry
     estimated scf accuracy    <       0.00841035 Ry

     iteration # 27     ecut=    30.00 Ry     beta=0.70
     Davidson diagonalization with overlap
     ethr =  1.05E-04,  avg # of iterations =  1.0

     total cpu time spent up to now is        6.1 secs

     total energy              =     -31.84052326 Ry
     Harris-Foulkes estimate   =     -31.84052318 Ry
     estimated scf accuracy    <       0.00000103 Ry

     iteration # 28     ecut=    30.00 Ry     beta=0.70
     Davidson diagonalization with overlap
     ethr =  1.29E-08,  avg # of iterations = 14.0

     total cpu time spent up to now is        6.2 secs

     total energy              =     -31.84052401 Ry
     Harris-Foulkes estimate   =     -31.84052351 Ry
     estimated scf accuracy    <       0.00000326 Ry

     iteration # 29     ecut=    30.00 Ry     beta=0.70
     Davidson diagonalization with overlap
     ethr =  1.29E-08,  avg # of iterations =  1.0

     total cpu time spent up to now is        6.2 secs

     total energy              =     -31.84052453 Ry
     Harris-Foulkes estimate   =     -31.84052403 Ry
     estimated scf accuracy    <       0.00000056 Ry

     iteration # 30     ecut=    30.00 Ry     beta=0.70
     Davidson diagonalization with overlap
     ethr =  6.98E-09,  avg # of iterations =  1.0

     total cpu time spent up to now is        6.2 secs

     End of self-consistent calculation

          k = 0.0000 0.0000 0.0000 ( 22119 PWs)   bands (ev):

   -23.7917  -9.4998  -6.9405  -6.9310  -6.7857  -2.5829  -0.0001   0.7306

     the Fermi energy is    -6.7617 ev

!    total energy              =     -31.84052455 Ry
     Harris-Foulkes estimate   =     -31.84052455 Ry
     estimated scf accuracy    <          2.0E-10 Ry

     convergence has been achieved in  30 iterations

     Forces acting on atoms (Ry/au):

     atom    1 type  1   force =    -0.15505752    0.03023141   -0.09437458
     atom    2 type  1   force =     0.00052928   -0.00018348   -0.00012197
     atom    3 type  2   force =     0.15452825   -0.03004793    0.09449655

     Total force =     0.259952     Total SCF correction =     0.000013

     Entering Dynamics:    iteration =     5
                           time      =   0.0242 pico-seconds


     Andersen thermostat:    3 collisions

ATOMIC_POSITIONS (bohr)
H       15.902611045  16.797118572  -0.601288375
H        7.568218397  15.733811420   2.766202192
O       15.196408515  17.047917778  19.103190152


     kinetic energy (Ekin) =     0.03549980 Ry
     temperature           =  1868.32304362 K 
     Ekin + Etot (const)   =   -31.80502474 Ry
     Message from routine dynamics:
     Total linear momentum <> 0

     Linear momentum :    0.2141520488   -0.0369022007    0.0645558002

     Writing output data file pwscf.save

     second order wave-functions extrapolation
     Check: negative starting charge=   -0.345160
     second order charge density extrapolation
     Check: negative starting charge=   -0.348436

     negative rho (up, down):  2.521E-01 0.000E+00

     total cpu time spent up to now is        6.6 secs

     per-process dynamical memory:    20.4 Mb

     Self-consistent Calculation

     iteration #  1     ecut=    30.00 Ry     beta=0.70
     Davidson diagonalization with overlap
     ethr =  1.00E-06,  avg # of iterations = 11.0

     negative rho (up, down):  4.436E-02 0.000E+00

     total cpu time spent up to now is        6.8 secs

     total energy              =      -2.27777572 Ry
     Harris-Foulkes estimate   =     -33.19759561 Ry
     estimated scf accuracy    <      11.53714339 Ry

     iteration #  2     ecut=    30.00 Ry     beta=0.70
     Davidson diagonalization with overlap
     ethr =  1.00E-02,  avg # of iterations =  4.0

     negative rho (up, down):  2.745E-02 0.000E+00

     total cpu time spent up to now is        6.9 secs

     total energy              =     -29.49123128 Ry
     Harris-Foulkes estimate   =     -34.63130900 Ry
     estimated scf accuracy    <       9.95359962 Ry

     iteration #  3     ecut=    30.00 Ry     beta=0.70
     Davidson diagonalization with overlap
     ethr =  1.00E-02,  avg # of iterations =  2.0

     negative rho (up, down):  2.200E-02 0.000E+00

     total cpu time spent up to now is        6.9 secs

     total energy              =     -29.47561873 Ry
     Harris-Foulkes estimate   =     -30.72613400 Ry
     estimated scf accuracy    <       4.59783037 Ry

     iteration #  4     ecut=    30.00 Ry     beta=0.70
     Davidson diagonalization with overlap
     ethr =  1.00E-02,  avg # of iterations =  1.0

     negative rho (up, down):  1.317E-02 0.000E+00

     total cpu time spent up to now is        6.9 secs

     total energy              =     -28.87362591 Ry
     Harris-Foulkes estimate   =     -29.87585487 Ry
     estimated scf accuracy    <       3.04270966 Ry

     iteration #  5     ecut=    30.00 Ry     beta=0.70
     Davidson diagonalization with overlap
     ethr =  1.00E-02,  avg # of iterations =  1.0

     negative rho (up, down):  1.122E-02 0.000E+00

     total cpu time spent up to now is        7.0 secs

     total energy              =     -28.84710368 Ry
     Harris-Foulkes estimate   =     -29.03316208 Ry
     estimated scf accuracy    <       2.12782869 Ry

     iteration #  6     ecut=    30.00 Ry     beta=0.70
     Davidson diagonalization with overlap
     ethr =  1.00E-02,  avg # of iterations =  1.0

     negative rho (up, down):  2.695E-03 0.000E+00

     total cpu time spent up to now is        7.0 secs

     total energy              =     -28.57681751 Ry
     Harris-Foulkes estimate   =     -28.86494717 Ry
     estimated scf accuracy    <       0.53241670 Ry

     iteration #  7     ecut=    30.00 Ry     beta=0.70
     Davidson diagonalization with overlap
     ethr =  6.66E-03,  avg # of iterations =  1.0

     negative rho (up, down):  1.129E-03 0.000E+00

     total cpu time spent up to now is        7.0 secs

     total energy              =     -28.58137331 Ry
     Harris-Foulkes estimate   =     -28.59095591 Ry
     estimated scf accuracy    <       0.05685322 Ry

     iteration #  8     ecut=    30.00 Ry     beta=0.70
     Davidson diagonalization with overlap
     ethr =  7.11E-04,  avg # of iterations =  1.0

     negative rho (up, down):  6.104E-04 0.000E+00

     total cpu time spent up to now is        7.1 secs

     total energy              =     -28.55485647 Ry
     Harris-Foulkes estimate   =     -28.59226686 Ry
     estimated scf accuracy    <       0.75842769 Ry

     iteration #  9     ecut=    30.00 Ry     beta=0.70
     Davidson diagonalization with overlap
     ethr =  7.11E-04,  avg # of iterations =  1.0

     negative rho (up, down):  2.891E-04 0.000E+00

     total cpu time spent up to now is        7.1 secs

     total energy              =     -28.58284918 Ry
     Harris-Foulkes estimate   =     -28.59015227 Ry
     estimated scf accuracy    <       0.42783834 Ry

     iteration # 10     ecut=    30.00 Ry     beta=0.70
     Davidson diagonalization with overlap
     ethr =  7.11E-04,  avg # of iterations =  1.0

     total cpu time spent up to now is        7.1 secs

     total energy              =     -28.58949770 Ry
     Harris-Foulkes estimate   =     -28.58512449 Ry
     estimated scf accuracy    <       0.08456225 Ry

     iteration # 11     ecut=    30.00 Ry     beta=0.70
     Davidson diagonalization with overlap
     ethr =  7.11E-04,  avg # of iterations =  1.0

     total cpu time spent up to now is        7.2 secs

     total energy              =     -28.58719983 Ry
     Harris-Foulkes estimate   =     -28.58990783 Ry
     estimated scf accuracy    <       0.16012762 Ry

     iteration # 12     ecut=    30.00 Ry     beta=0.70
     Davidson diagonalization with overlap
     ethr =  7.11E-04,  avg # of iterations =  1.0

     total cpu time spent up to now is        7.2 secs

     total energy              =     -28.58675307 Ry
     Harris-Foulkes estimate   =     -28.58792202 Ry
     estimated scf accuracy    <       0.03278319 Ry

     iteration # 13     ecut=    30.00 Ry     beta=0.70
     Davidson diagonalization with overlap
     ethr =  4.10E-04,  avg # of iterations =  1.0

     total cpu time spent up to now is        7.2 secs

     total energy              =     -28.58741082 Ry
     Harris-Foulkes estimate   =     -28.58751818 Ry
     estimated scf accuracy    <       0.00357303 Ry

     iteration # 14     ecut=    30.00 Ry     beta=0.70
     Davidson diagonalization with overlap
     ethr =  4.47E-05,  avg # of iterations = 13.0

     total cpu time spent up to now is        7.3 secs

     total energy              =     -28.58747708 Ry
     Harris-Foulkes estimate   =     -28.58747403 Ry
     estimated scf accuracy    <       0.00009188 Ry

     iteration # 15     ecut=    30.00 Ry     beta=0.70
     Davidson diagonalization with overlap
     ethr =  1.15E-06,  avg # of iterations = 16.0

     total cpu time spent up to now is        7.3 secs

     total energy              =     -28.58747525 Ry
     Harris-Foulkes estimate   =     -28.58747721 Ry
     estimated scf accuracy    <       0.00011845 Ry

     iteration # 16     ecut=    30.00 Ry     beta=0.70
     Davidson diagonalization with overlap
     ethr =  1.15E-06,  avg # of iterations =  1.0

     total cpu time spent up to now is        7.4 secs

     total energy              =     -28.58747569 Ry
     Harris-Foulkes estimate   =     -28.58747589 Ry
     estimated scf accuracy    <       0.00001585 Ry

     iteration # 17     ecut=    30.00 Ry     beta=0.70
     Davidson diagonalization with overlap
     ethr =  1.98E-07,  avg # of iterations =  1.0

     total cpu time spent up to now is        7.4 secs

     total energy              =     -28.58747578 Ry
     Harris-Foulkes estimate   =     -28.58747579 Ry
     estimated scf accuracy    <       0.00000178 Ry

     iteration # 18     ecut=    30.00 Ry     beta=0.70
     Davidson diagonalization with overlap
     ethr =  2.23E-08,  avg # of iterations =  1.0

     total cpu time spent up to now is        7.4 secs

     total energy              =     -28.58747580 Ry
     Harris-Foulkes estimate   =     -28.58747579 Ry
     estimated scf accuracy    <       0.00000024 Ry

     iteration # 19     ecut=    30.00 Ry     beta=0.70
     Davidson diagonalization with overlap
     ethr =  2.97E-09,  avg # of iterations =  1.0

     total cpu time spent up to now is        7.5 secs

     total energy              =     -28.58747581 Ry
     Harris-Foulkes estimate   =     -28.58747580 Ry
     estimated scf accuracy    <       0.00000010 Ry

     iteration # 20     ecut=    30.00 Ry     beta=0.70
     Davidson diagonalization with overlap
     ethr =  1.31E-09,  avg # of iterations =  1.0

     total cpu time spent up to now is        7.5 secs

     total energy              =     -28.58747581 Ry
     Harris-Foulkes estimate   =     -28.58747581 Ry
     estimated scf accuracy    <       0.00000001 Ry

     iteration # 21     ecut=    30.00 Ry     beta=0.70
     Davidson diagonalization with overlap
     ethr =  1.56E-10,  avg # of iterations =  1.0

     total cpu time spent up to now is        7.5 secs

     End of self-consistent calculation

          k = 0.0000 0.0000 0.0000 ( 22119 PWs)   bands (ev):

   -31.0825 -11.9004  -7.4670  -7.4611  -7.2969  -0.3088   0.6721   0.7781

     the Fermi energy is    -7.2842 ev

!    total energy              =     -28.58747581 Ry
     Harris-Foulkes estimate   =     -28.58747581 Ry
     estimated scf accuracy    <          7.6E-12 Ry

     convergence has been achieved in  21 iterations

     Forces acting on atoms (Ry/au):

     atom    1 type  1   force =    11.78571614   -4.18588320    4.93198106
     atom    2 type  1   force =     0.00116227    0.00008842   -0.00019519
     atom    3 type  2   force =   -11.78687841    4.18579478   -4.93178587

     Total force =    19.013760     Total SCF correction =     0.000002

     Entering Dynamics:    iteration =     6
                           time      =   0.0290 pico-seconds


     Andersen thermostat:    3 collisions

ATOMIC_POSITIONS (bohr)
H      143.517336203 -28.368504334  52.584025153
H        7.534499511  15.422368825   3.343823223
O        7.142857494  19.918657538  15.709404908


     kinetic energy (Ekin) =   256.79166375 Ry
     temperature           = ************** K 
     Ekin + Etot (const)   =   228.20418794 Ry
     Message from routine dynamics:
     Total linear momentum <> 0

     Linear momentum :    0.0891660385   -0.1500833387   -0.0858017473

     Writing output data file pwscf.save

     second order wave-functions extrapolation
     Check: negative starting charge=   -0.348436
     second order charge density extrapolation
     Check: negative starting charge=   -0.346359

     negative rho (up, down):  8.066E+01 0.000E+00

     total cpu time spent up to now is        8.0 secs

     per-process dynamical memory:    20.4 Mb

     Self-consistent Calculation

     iteration #  1     ecut=    30.00 Ry     beta=0.70
     Davidson diagonalization with overlap
     c_bands:  2 eigenvalues not converged
     ethr =  1.00E-06,  avg # of iterations = 20.0

     negative rho (up, down):  2.283E+01 0.000E+00

     total cpu time spent up to now is        8.1 secs

     total energy              =    -162.49328221 Ry
     Harris-Foulkes estimate   =  -53726.18884343 Ry
     estimated scf accuracy    <    2107.90661251 Ry

     iteration #  2     ecut=    30.00 Ry     beta=0.70
     Davidson diagonalization with overlap
     ethr =  1.00E-02,  avg # of iterations = 14.0

     negative rho (up, down):  6.463E-01 0.000E+00

     total cpu time spent up to now is        8.2 secs

     total energy              =     129.94680103 Ry
     Harris-Foulkes estimate   =   -4708.26262128 Ry
     estimated scf accuracy    <     218.94606549 Ry

     iteration #  3     ecut=    30.00 Ry     beta=0.70
     Davidson diagonalization with overlap
     ethr =  1.00E-02,  avg # of iterations = 12.0

     negative rho (up, down):  1.160E-01 0.000E+00

     total cpu time spent up to now is        8.3 secs

     total energy              =     146.75620004 Ry
     Harris-Foulkes estimate   =   -4013.03795481 Ry
     estimated scf accuracy    <      47.29434845 Ry

     iteration #  4     ecut=    30.00 Ry     beta=0.70
     Davidson diagonalization with overlap
     ethr =  1.00E-02,  avg # of iterations = 13.0

     negative rho (up, down):  3.698E-02 0.000E+00

     total cpu time spent up to now is        8.3 secs

     total energy              =      71.00780787 Ry
     Harris-Foulkes estimate   =    -266.03208781 Ry
     estimated scf accuracy    <      34.52444448 Ry

     iteration #  5     ecut=    30.00 Ry     beta=0.70
     Davidson diagonalization with overlap
     ethr =  1.00E-02,  avg # of iterations = 11.0

     negative rho (up, down):  6.522E-02 0.000E+00

     total cpu time spent up to now is        8.4 secs

     total energy              =     -78.11492349 Ry
     Harris-Foulkes estimate   =     -85.83873465 Ry
     estimated scf accuracy    <      73.07597735 Ry

     iteration #  6     ecut=    30.00 Ry     beta=0.70
     Davidson diagonalization with overlap
     ethr =  1.00E-02,  avg # of iterations =  5.0

     negative rho (up, down):  2.452E-03 0.000E+00

     total cpu time spent up to now is        8.4 secs

     total energy              =      32.20384828 Ry
     Harris-Foulkes estimate   =    -315.62545527 Ry
     estimated scf accuracy    <      21.81022108 Ry

     iteration #  7     ecut=    30.00 Ry     beta=0.70
     Davidson diagonalization with overlap
     ethr =  1.00E-02,  avg # of iterations =  7.0

     negative rho (up, down):  4.960E-02 0.000E+00

     total cpu time spent up to now is        8.5 secs

     total energy              =     -30.54765795 Ry
     Harris-Foulkes estimate   =    -141.25437539 Ry
     estimated scf accuracy    <      36.61784207 Ry

     iteration #  8     ecut=    30.00 Ry     beta=0.70
     Davidson diagonalization with overlap
     ethr =  1.00E-02,  avg # of iterations =  4.0

     negative rho (up, down):  1.585E-01 0.000E+00

     total cpu time spent up to now is        8.5 secs

     total energy              =     -64.10052862 Ry
     Harris-Foulkes estimate   =    -120.49211277 Ry
     estimated scf accuracy    <      68.37244286 Ry

     iteration #  9     ecut=    30.00 Ry     beta=0.70
     Davidson diagonalization with overlap
     ethr =  1.00E-02,  avg # of iterations = 12.0

     negative rho (up, down):  1.209E-01 0.000E+00

     total cpu time spent up to now is        8.6 secs

     total energy              =     -15.95362148 Ry
     Harris-Foulkes estimate   =    -100.97298502 Ry
     estimated scf accuracy    <      34.87804089 Ry

     iteration # 10     ecut=    30.00 Ry     beta=0.70
     Davidson diagonalization with overlap
     ethr =  1.00E-02,  avg # of iterations =  9.0

     negative rho (up, down):  3.097E-01 0.000E+00

     total cpu time spent up to now is        8.6 secs

     total energy              =       0.67934324 Ry
     Harris-Foulkes estimate   =    -122.86728128 Ry
     estimated scf accuracy    <      32.63675590 Ry

     iteration # 11     ecut=    30.00 Ry     beta=0.70
     Davidson diagonalization with overlap
     ethr =  1.00E-02,  avg # of iterations =  7.0

     negative rho (up, down):  6.062E-01 0.000E+00

     total cpu time spent up to now is        8.7 secs

     total energy              =      33.70056822 Ry
     Harris-Foulkes estimate   =    -628.92917016 Ry
     estimated scf accuracy    <      34.35800200 Ry

     iteration # 12     ecut=    30.00 Ry     beta=0.70
     Davidson diagonalization with overlap
     ethr =  1.00E-02,  avg # of iterations =  9.0

     negative rho (up, down):  4.394E-01 0.000E+00

     total cpu time spent up to now is        8.8 secs

     total energy              =     -76.71382597 Ry
     Harris-Foulkes estimate   =    -588.25845679 Ry
     estimated scf accuracy    <      27.40381944 Ry

     iteration # 13     ecut=    30.00 Ry     beta=0.70
     Davidson diagonalization with overlap
     ethr =  1.00E-02,  avg # of iterations =  6.0

     negative rho (up, down):  7.687E-03 0.000E+00

     total cpu time spent up to now is        8.8 secs

     total energy              =     138.55977161 Ry
     Harris-Foulkes estimate   =   -4080.24309356 Ry
     estimated scf accuracy    <      43.04654084 Ry

     iteration # 14     ecut=    30.00 Ry     beta=0.70
     Davidson diagonalization with overlap
     ethr =  1.00E-02,  avg # of iterations = 10.0

     negative rho (up, down):  8.594E-02 0.000E+00

     total cpu time spent up to now is        8.9 secs

     total energy              =    -332.09806178 Ry
     Harris-Foulkes estimate   =     -65.13472831 Ry
     estimated scf accuracy    <      44.66415328 Ry

     iteration # 15     ecut=    30.00 Ry     beta=0.70
     Davidson diagonalization with overlap
     ethr =  1.00E-02,  avg # of iterations =  4.0

     negative rho (up, down):  1.261E-01 0.000E+00

     total cpu time spent up to now is        8.9 secs

     total energy              =       0.69718222 Ry
     Harris-Foulkes estimate   =   -1738.55659986 Ry
     estimated scf accuracy    <      52.22841075 Ry

     iteration # 16     ecut=    30.00 Ry     beta=0.70
     Davidson diagonalization with overlap
     ethr =  1.00E-02,  avg # of iterations =  6.0

     negative rho (up, down):  4.054E-01 0.000E+00

     total cpu time spent up to now is        9.0 secs

     total energy              =      49.40187916 Ry
     Harris-Foulkes estimate   =   -1718.62235690 Ry
     estimated scf accuracy    <      27.90139040 Ry

     iteration # 17     ecut=    30.00 Ry     beta=0.70
     Davidson diagonalization with overlap
     ethr =  1.00E-02,  avg # of iterations = 10.0

     negative rho (up, down):  5.705E-01 0.000E+00

     total cpu time spent up to now is        9.0 secs

     total energy              =      70.77792886 Ry
     Harris-Foulkes estimate   =   -6665.64519003 Ry
     estimated scf accuracy    <      24.19740643 Ry

     iteration # 18     ecut=    30.00 Ry     beta=0.70
     Davidson diagonalization with overlap
     ethr =  1.00E-02,  avg # of iterations =  8.0

     negative rho (up, down):  7.531E-01 0.000E+00

     total cpu time spent up to now is        9.1 secs

     total energy              =    -536.34817373 Ry
     Harris-Foulkes estimate   =    -859.53611920 Ry
     estimated scf accuracy    <      26.19691081 Ry

     iteration # 19     ecut=    30.00 Ry     beta=0.70
     Davidson diagonalization with overlap
     ethr =  1.00E-02,  avg # of iterations = 12.0

     negative rho (up, down):  1.549E-02 0.000E+00

     total cpu time spent up to now is        9.2 secs

     total energy              =      74.37539208 Ry
     Harris-Foulkes estimate   =  -25892.87929195 Ry
     estimated scf accuracy    <      37.57028348 Ry

     iteration # 20     ecut=    30.00 Ry     beta=0.70
     Davidson diagonalization with overlap
     ethr =  1.00E-02,  avg # of iterations = 13.0

     negative rho (up, down):  6.506E-02 0.000E+00

     total cpu time spent up to now is        9.2 secs

     total energy              =      66.54778319 Ry
     Harris-Foulkes estimate   =    -588.00439816 Ry
     estimated scf accuracy    <      26.53286415 Ry

     iteration # 21     ecut=    30.00 Ry     beta=0.70
     Davidson diagonalization with overlap
     ethr =  1.00E-02,  avg # of iterations =  7.0

     negative rho (up, down):  1.836E-01 0.000E+00

     total cpu time spent up to now is        9.3 secs

     total energy              =      -2.87750096 Ry
     Harris-Foulkes estimate   =    -502.34088187 Ry
     estimated scf accuracy    <      36.56638747 Ry

     iteration # 22     ecut=    30.00 Ry     beta=0.70
     Davidson diagonalization with overlap
[...]
     Harris-Foulkes estimate   =     -48.44196648 Ry
     estimated scf accuracy    <      29.02723577 Ry

     iteration # 59     ecut=    30.00 Ry     beta=0.70
     Davidson diagonalization with overlap
     ethr =  1.00E-02,  avg # of iterations =  7.0

     negative rho (up, down):  9.594E-02 0.000E+00

     total cpu time spent up to now is       11.4 secs

     total energy              =     -70.29651873 Ry
     Harris-Foulkes estimate   =    -404.38256241 Ry
     estimated scf accuracy    <      20.03099090 Ry

     iteration # 60     ecut=    30.00 Ry     beta=0.70
     Davidson diagonalization with overlap
     ethr =  1.00E-02,  avg # of iterations =  5.0

     negative rho (up, down):  1.023E-01 0.000E+00

     total cpu time spent up to now is       11.4 secs

     total energy              =      12.90315598 Ry
     Harris-Foulkes estimate   =    -753.05188690 Ry
     estimated scf accuracy    <      19.00142518 Ry

     iteration # 61     ecut=    30.00 Ry     beta=0.70
     Davidson diagonalization with overlap
     ethr =  1.00E-02,  avg # of iterations =  6.0

     negative rho (up, down):  1.179E-01 0.000E+00

     total cpu time spent up to now is       11.5 secs

     total energy              =      -7.82334734 Ry
     Harris-Foulkes estimate   =    -148.71777894 Ry
     estimated scf accuracy    <      20.02970211 Ry

     iteration # 62     ecut=    30.00 Ry     beta=0.70
     Davidson diagonalization with overlap
     ethr =  1.00E-02,  avg # of iterations =  6.0

     negative rho (up, down):  7.265E-01 0.000E+00

     total cpu time spent up to now is       11.5 secs

     total energy              =     -76.44014098 Ry
     Harris-Foulkes estimate   =     -47.94072635 Ry
     estimated scf accuracy    <      28.43036912 Ry

     iteration # 63     ecut=    30.00 Ry     beta=0.70
     Davidson diagonalization with overlap
     ethr =  1.00E-02,  avg # of iterations =  9.0

     negative rho (up, down):  4.014E-01 0.000E+00

     total cpu time spent up to now is       11.6 secs

     total energy              =      72.31207740 Ry
     Harris-Foulkes estimate   =   -1221.10276314 Ry
     estimated scf accuracy    <      18.81456478 Ry

     iteration # 64     ecut=    30.00 Ry     beta=0.70
     Davidson diagonalization with overlap
     ethr =  1.00E-02,  avg # of iterations =  6.0

     negative rho (up, down):  2.513E-01 0.000E+00

     total cpu time spent up to now is       11.6 secs

     total energy              =      67.10767596 Ry
     Harris-Foulkes estimate   =   -1383.62847860 Ry
     estimated scf accuracy    <      25.99329319 Ry

     iteration # 65     ecut=    30.00 Ry     beta=0.70
     Davidson diagonalization with overlap
     ethr =  1.00E-02,  avg # of iterations =  8.0

     negative rho (up, down):  1.775E-01 0.000E+00

     total cpu time spent up to now is       11.7 secs

     total energy              =      59.60011545 Ry
     Harris-Foulkes estimate   =    -607.93994618 Ry
     estimated scf accuracy    <      23.00726254 Ry

     iteration # 66     ecut=    30.00 Ry     beta=0.70
     Davidson diagonalization with overlap
     ethr =  1.00E-02,  avg # of iterations = 10.0

     negative rho (up, down):  3.446E-01 0.000E+00

     total cpu time spent up to now is       11.8 secs

     total energy              =     -47.90025912 Ry
     Harris-Foulkes estimate   =     -45.66907148 Ry
     estimated scf accuracy    <      12.19441961 Ry

     iteration # 67     ecut=    30.00 Ry     beta=0.70
     Davidson diagonalization with overlap
     ethr =  1.00E-02,  avg # of iterations =  6.0

     negative rho (up, down):  3.663E-01 0.000E+00

     total cpu time spent up to now is       11.8 secs

     total energy              =      12.05134171 Ry
     Harris-Foulkes estimate   =    -155.95955454 Ry
     estimated scf accuracy    <      16.88239863 Ry

     iteration # 68     ecut=    30.00 Ry     beta=0.70
     Davidson diagonalization with overlap
     ethr =  1.00E-02,  avg # of iterations =  6.0

     negative rho (up, down):  1.732E-01 0.000E+00

     total cpu time spent up to now is       11.9 secs

     total energy              =     111.97118696 Ry
     Harris-Foulkes estimate   =   -1175.44097198 Ry
     estimated scf accuracy    <      24.24421749 Ry

     iteration # 69     ecut=    30.00 Ry     beta=0.70
     Davidson diagonalization with overlap
     ethr =  1.00E-02,  avg # of iterations = 10.0

     negative rho (up, down):  5.557E-02 0.000E+00

     total cpu time spent up to now is       11.9 secs

     total energy              =     -39.28522659 Ry
     Harris-Foulkes estimate   =     -42.09489250 Ry
     estimated scf accuracy    <      18.91430253 Ry

     iteration # 70     ecut=    30.00 Ry     beta=0.70
     Davidson diagonalization with overlap
     ethr =  1.00E-02,  avg # of iterations =  9.0

     negative rho (up, down):  5.004E-02 0.000E+00

     total cpu time spent up to now is       12.0 secs

     total energy              =      83.79694870 Ry
     Harris-Foulkes estimate   =    -200.99786254 Ry
     estimated scf accuracy    <      27.81164919 Ry

     iteration # 71     ecut=    30.00 Ry     beta=0.70
     Davidson diagonalization with overlap
     ethr =  1.00E-02,  avg # of iterations =  8.0

     negative rho (up, down):  9.637E-02 0.000E+00

     total cpu time spent up to now is       12.1 secs

     total energy              =      16.06513329 Ry
     Harris-Foulkes estimate   =   -4424.86168238 Ry
     estimated scf accuracy    <      38.23056800 Ry

     iteration # 72     ecut=    30.00 Ry     beta=0.70
     Davidson diagonalization with overlap
     ethr =  1.00E-02,  avg # of iterations = 10.0

     negative rho (up, down):  2.057E-01 0.000E+00

     total cpu time spent up to now is       12.1 secs

     total energy              =  201805.49216391 Ry
     Harris-Foulkes estimate   =    -842.81685533 Ry
     estimated scf accuracy    <      25.21663252 Ry

     iteration # 73     ecut=    30.00 Ry     beta=0.70
     Davidson diagonalization with overlap
     ethr =  1.00E-02,  avg # of iterations =  7.0

     negative rho (up, down):  2.669E-01 0.000E+00

     total cpu time spent up to now is       12.2 secs

     total energy              =      23.40619602 Ry
     Harris-Foulkes estimate   =    -399.81980463 Ry
     estimated scf accuracy    <      15.59207012 Ry

     iteration # 74     ecut=    30.00 Ry     beta=0.70
     Davidson diagonalization with overlap
     ethr =  1.00E-02,  avg # of iterations =  4.0

     negative rho (up, down):  3.191E-01 0.000E+00

     total cpu time spent up to now is       12.2 secs

     total energy              =     -25.80285145 Ry
     Harris-Foulkes estimate   =    -141.76065651 Ry
     estimated scf accuracy    <      11.16740691 Ry

     iteration # 75     ecut=    30.00 Ry     beta=0.70
     Davidson diagonalization with overlap
     ethr =  1.00E-02,  avg # of iterations =  5.0

     negative rho (up, down):  2.873E-01 0.000E+00

     total cpu time spent up to now is       12.3 secs

     total energy              =     -17.90108530 Ry
     Harris-Foulkes estimate   =    -197.96484638 Ry
     estimated scf accuracy    <      13.71417226 Ry

     iteration # 76     ecut=    30.00 Ry     beta=0.70
     Davidson diagonalization with overlap
     ethr =  1.00E-02,  avg # of iterations =  7.0

     negative rho (up, down):  1.794E-03 0.000E+00

     total cpu time spent up to now is       12.3 secs

     total energy              =       2.40794610 Ry
     Harris-Foulkes estimate   =    -447.42008275 Ry
     estimated scf accuracy    <      10.40205856 Ry

     iteration # 77     ecut=    30.00 Ry     beta=0.70
     Davidson diagonalization with overlap
     ethr =  1.00E-02,  avg # of iterations =  4.0

     negative rho (up, down):  3.946E-02 0.000E+00

     total cpu time spent up to now is       12.4 secs

     total energy              =     -37.98456914 Ry
     Harris-Foulkes estimate   =     -39.48452293 Ry
     estimated scf accuracy    <      15.51984072 Ry

     iteration # 78     ecut=    30.00 Ry     beta=0.70
     Davidson diagonalization with overlap
     ethr =  1.00E-02,  avg # of iterations =  8.0

     negative rho (up, down):  5.832E-02 0.000E+00

     total cpu time spent up to now is       12.4 secs

     total energy              =      63.48971133 Ry
     Harris-Foulkes estimate   =    -218.24535600 Ry
     estimated scf accuracy    <      24.66354974 Ry

     iteration # 79     ecut=    30.00 Ry     beta=0.70
     Davidson diagonalization with overlap
     ethr =  1.00E-02,  avg # of iterations =  9.0

     negative rho (up, down):  1.646E-01 0.000E+00

     total cpu time spent up to now is       12.5 secs

     total energy              =    -282.53433551 Ry
     Harris-Foulkes estimate   =    -168.81254621 Ry
     estimated scf accuracy    <      13.02298936 Ry

     iteration # 80     ecut=    30.00 Ry     beta=0.70
     Davidson diagonalization with overlap
     ethr =  1.00E-02,  avg # of iterations = 10.0

     negative rho (up, down):  1.811E-01 0.000E+00

     total cpu time spent up to now is       12.5 secs

     total energy              =     109.19811781 Ry
     Harris-Foulkes estimate   =   -1573.59165537 Ry
     estimated scf accuracy    <      45.90189497 Ry

     iteration # 81     ecut=    30.00 Ry     beta=0.70
     Davidson diagonalization with overlap
     ethr =  1.00E-02,  avg # of iterations =  9.0

     negative rho (up, down):  1.166E-02 0.000E+00

     total cpu time spent up to now is       12.6 secs

     total energy              =     106.64281560 Ry
     Harris-Foulkes estimate   =    -273.57708221 Ry
     estimated scf accuracy    <      37.10833407 Ry

     iteration # 82     ecut=    30.00 Ry     beta=0.70
     Davidson diagonalization with overlap
     ethr =  1.00E-02,  avg # of iterations =  9.0

     negative rho (up, down):  4.420E-02 0.000E+00

     total cpu time spent up to now is       12.6 secs

     total energy              =      -5.44545434 Ry
     Harris-Foulkes estimate   =     -84.98471132 Ry
     estimated scf accuracy    <       8.03463227 Ry

     iteration # 83     ecut=    30.00 Ry     beta=0.70
     Davidson diagonalization with overlap
     ethr =  1.00E-02,  avg # of iterations =  4.0

     negative rho (up, down):  9.998E-02 0.000E+00

     total cpu time spent up to now is       12.7 secs

     total energy              =       5.80611821 Ry
     Harris-Foulkes estimate   =    -195.55975851 Ry
     estimated scf accuracy    <       7.96458176 Ry

     iteration # 84     ecut=    30.00 Ry     beta=0.70
     Davidson diagonalization with overlap
     ethr =  1.00E-02,  avg # of iterations =  5.0

     negative rho (up, down):  2.031E-02 0.000E+00

     total cpu time spent up to now is       12.7 secs

     total energy              =      38.27408327 Ry
     Harris-Foulkes estimate   =    -314.76545038 Ry
     estimated scf accuracy    <      10.38141057 Ry

     iteration # 85     ecut=    30.00 Ry     beta=0.70
     Davidson diagonalization with overlap
     ethr =  1.00E-02,  avg # of iterations =  9.0

     negative rho (up, down):  1.146E-01 0.000E+00

     total cpu time spent up to now is       12.8 secs

     total energy              =      -3.21255007 Ry
     Harris-Foulkes estimate   =     -64.38402435 Ry
     estimated scf accuracy    <      16.61289716 Ry

     iteration # 86     ecut=    30.00 Ry     beta=0.70
     Davidson diagonalization with overlap
     ethr =  1.00E-02,  avg # of iterations =  7.0

     negative rho (up, down):  9.797E-02 0.000E+00

     total cpu time spent up to now is       12.8 secs

     total energy              =     -17.21372649 Ry
     Harris-Foulkes estimate   =    -168.66788638 Ry
     estimated scf accuracy    <      26.37340977 Ry

     iteration # 87     ecut=    30.00 Ry     beta=0.70
     Davidson diagonalization with overlap
     ethr =  1.00E-02,  avg # of iterations =  4.0

     negative rho (up, down):  3.497E-01 0.000E+00

     total cpu time spent up to now is       12.9 secs

     total energy              =       3.49973468 Ry
     Harris-Foulkes estimate   =    -378.19868848 Ry
     estimated scf accuracy    <      20.44137110 Ry

     iteration # 88     ecut=    30.00 Ry     beta=0.70
     Davidson diagonalization with overlap
     ethr =  1.00E-02,  avg # of iterations =  9.0

     negative rho (up, down):  4.030E-01 0.000E+00

     total cpu time spent up to now is       12.9 secs

     total energy              =     -40.24641690 Ry
     Harris-Foulkes estimate   =   -1780.25775144 Ry
     estimated scf accuracy    <      39.54974436 Ry

     iteration # 89     ecut=    30.00 Ry     beta=0.70
     Davidson diagonalization with overlap
     ethr =  1.00E-02,  avg # of iterations =  9.0

     negative rho (up, down):  1.395E-01 0.000E+00

     total cpu time spent up to now is       13.0 secs

     total energy              =     176.79210772 Ry
     Harris-Foulkes estimate   =   -2038.21675660 Ry
     estimated scf accuracy    <      40.47609020 Ry

     iteration # 90     ecut=    30.00 Ry     beta=0.70
     Davidson diagonalization with overlap
     ethr =  1.00E-02,  avg # of iterations = 12.0

     negative rho (up, down):  1.674E-01 0.000E+00

     total cpu time spent up to now is       13.0 secs

     total energy              =      66.59516302 Ry
     Harris-Foulkes estimate   =    -363.63139897 Ry
     estimated scf accuracy    <      35.02683089 Ry

     iteration # 91     ecut=    30.00 Ry     beta=0.70
     Davidson diagonalization with overlap
     ethr =  1.00E-02,  avg # of iterations =  9.0

     negative rho (up, down):  3.668E-01 0.000E+00

     total cpu time spent up to now is       13.1 secs

     total energy              =     -93.57996347 Ry
     Harris-Foulkes estimate   =   -2122.37971365 Ry
     estimated scf accuracy    <      48.48942953 Ry

     iteration # 92     ecut=    30.00 Ry     beta=0.70
     Davidson diagonalization with overlap
     ethr =  1.00E-02,  avg # of iterations =  8.0

     negative rho (up, down):  3.653E-01 0.000E+00

     total cpu time spent up to now is       13.2 secs

     total energy              =    -150.87800415 Ry
     Harris-Foulkes estimate   =   -3097.31786870 Ry
     estimated scf accuracy    <      41.75711998 Ry

     iteration # 93     ecut=    30.00 Ry     beta=0.70
     Davidson diagonalization with overlap
     ethr =  1.00E-02,  avg # of iterations = 14.0

     negative rho (up, down):  3.515E-01 0.000E+00

     total cpu time spent up to now is       13.2 secs

     total energy              =   21393.17821701 Ry
     Harris-Foulkes estimate   =    -922.67335928 Ry
     estimated scf accuracy    <      43.18019091 Ry

     iteration # 94     ecut=    30.00 Ry     beta=0.70
     Davidson diagonalization with overlap
     ethr =  1.00E-02,  avg # of iterations =  8.0

     negative rho (up, down):  1.479E+00 0.000E+00

     total cpu time spent up to now is       13.3 secs

     total energy              =  -24516.12218726 Ry
     Harris-Foulkes estimate   =   -1182.31256536 Ry
     estimated scf accuracy    <      38.45307344 Ry

     iteration # 95     ecut=    30.00 Ry     beta=0.70
     Davidson diagonalization with overlap
     ethr =  1.00E-02,  avg # of iterations =  5.0

     negative rho (up, down):  9.659E-01 0.000E+00

     total cpu time spent up to now is       13.3 secs

     total energy              =     -60.31861869 Ry
     Harris-Foulkes estimate   =  -60880.38585373 Ry
     estimated scf accuracy    <      28.40062806 Ry

     iteration # 96     ecut=    30.00 Ry     beta=0.70
     Davidson diagonalization with overlap
     ethr =  1.00E-02,  avg # of iterations =  8.0

     negative rho (up, down):  6.817E-01 0.000E+00

     total cpu time spent up to now is       13.4 secs

     total energy              =      81.46258318 Ry
     Harris-Foulkes estimate   =   -1370.39134524 Ry
     estimated scf accuracy    <      24.90443790 Ry

     iteration # 97     ecut=    30.00 Ry     beta=0.70
     Davidson diagonalization with overlap
     ethr =  1.00E-02,  avg # of iterations =  7.0

     negative rho (up, down):  4.282E-01 0.000E+00

     total cpu time spent up to now is       13.4 secs

     total energy              =      80.07070520 Ry
     Harris-Foulkes estimate   =   -1822.17546280 Ry
     estimated scf accuracy    <      19.05039352 Ry

     iteration # 98     ecut=    30.00 Ry     beta=0.70
     Davidson diagonalization with overlap
     ethr =  1.00E-02,  avg # of iterations = 10.0

     negative rho (up, down):  4.269E-01 0.000E+00

     total cpu time spent up to now is       13.5 secs

     total energy              =   -5411.49171184 Ry
     Harris-Foulkes estimate   =   -1177.03052993 Ry
     estimated scf accuracy    <      17.85240430 Ry

     iteration # 99     ecut=    30.00 Ry     beta=0.70
     Davidson diagonalization with overlap
     ethr =  1.00E-02,  avg # of iterations =  5.0

     negative rho (up, down):  3.388E-01 0.000E+00

     total cpu time spent up to now is       13.6 secs

     total energy              =      93.69396707 Ry
     Harris-Foulkes estimate   =  -45114.56041542 Ry
     estimated scf accuracy    <      15.90734398 Ry

     iteration #100     ecut=    30.00 Ry     beta=0.70
     Davidson diagonalization with overlap
     ethr =  1.00E-02,  avg # of iterations =  8.0

     negative rho (up, down):  1.684E-02 0.000E+00

     total cpu time spent up to now is       13.6 secs

     total energy              =      28.71867419 Ry
     Harris-Foulkes estimate   =    -435.69050076 Ry
     estimated scf accuracy    <      30.03752473 Ry

     End of self-consistent calculation

     convergence NOT achieved after 100 iterations: stopping

     Writing output data file pwscf.save
 
     init_run     :      0.09s CPU      0.10s WALL (       1 calls)
     electrons    :      9.26s CPU     11.59s WALL (       7 calls)
     update_pot   :      0.70s CPU      1.03s WALL (       6 calls)
     forces       :      0.16s CPU      0.17s WALL (       6 calls)

     Called by init_run:
     wfcinit      :      0.01s CPU      0.02s WALL (       1 calls)
     potinit      :      0.02s CPU      0.03s WALL (       1 calls)

     Called by electrons:
     c_bands      :      4.65s CPU      4.91s WALL (     240 calls)
     sum_band     :      0.72s CPU      0.78s WALL (     240 calls)
     v_of_rho     :      1.79s CPU      1.89s WALL (     247 calls)
     mix_rho      :      1.56s CPU      2.78s WALL (     240 calls)

     Called by c_bands:
     init_us_2    :      0.02s CPU      0.03s WALL (     481 calls)
     cegterg      :      4.60s CPU      4.78s WALL (     240 calls)

     Called by sum_band:

     Called by *egterg:
     h_psi        :      3.77s CPU      3.89s WALL (    1368 calls)
     g_psi        :      0.04s CPU      0.04s WALL (    1127 calls)
     cdiaghg      :      0.35s CPU      0.38s WALL (    1361 calls)

     Called by h_psi:
     h_psi:pot    :      3.74s CPU      3.87s WALL (    1368 calls)
     h_psi:calbec :      0.06s CPU      0.07s WALL (    1368 calls)
     vloc_psi     :      3.67s CPU      3.77s WALL (    1368 calls)
     add_vuspsi   :      0.01s CPU      0.01s WALL (    1368 calls)

     General routines
     calbec       :      0.09s CPU      0.12s WALL (    1397 calls)
     fft          :      1.10s CPU      1.16s WALL (    2729 calls)
     fftw         :      3.78s CPU      3.92s WALL (   16716 calls)
     davcio       :      0.24s CPU      1.02s WALL (    4190 calls)
 
     Parallel routines
     fft_scatter  :      1.79s CPU      1.90s WALL (   19445 calls)
 
     PWSCF        :    10.45s CPU        13.71s WALL

 
   This run was terminated on:   8:10: 7  14Feb2018            

=------------------------------------------------------------------------------=
   JOB DONE.
=------------------------------------------------------------------------------=
