
     Program PWSCF v.6.0 (svn rev. 13079) starts on 14Feb2018 at  7:10:43 

     This program is part of the open-source Quantum ESPRESSO suite
     for quantum simulation of materials; please cite
         "P. Giannozzi et al., J. Phys.:Condens. Matter 21 395502 (2009);
          URL http://www.quantum-espresso.org", 
     in publications or presentations arising from this work. More details at
     http://www.quantum-espresso.org/quote

     Parallel version (MPI), running on    28 processors
     R & G space division:  proc/nbgrp/npool/nimage =      28
     Reading input from inputs/MD-H2O-2/31.in

     Current dimensions of program PWSCF are:
     Max number of different atomic species (ntypx) = 10
     Max number of k-points (npk) =  40000
     Max angular momentum in pseudopotentials (lmaxx) =  3

     Subspace diagonalization in iterative solution of the eigenvalue problem:
     a serial algorithm will be used

 
     Parallelization info
     --------------------
     sticks:   dense  smooth     PW     G-vecs:    dense   smooth      PW
     Min         136     136     33                 6338     6338     787
     Max         137     137     34                 6341     6341     792
     Sum        3809    3809    949               177509   177509   22119
 


     bravais-lattice index     =            1
     lattice parameter (alat)  =      20.0000  a.u.
     unit-cell volume          =    8000.0000 (a.u.)^3
     number of atoms/cell      =            3
     number of atomic types    =            2
     number of electrons       =         8.00
     number of Kohn-Sham states=            8
     kinetic-energy cutoff     =      30.0000  Ry
     charge density cutoff     =     120.0000  Ry
     convergence threshold     =      1.0E-08
     mixing beta               =       0.7000
     number of iterations used =            8  plain     mixing
     Exchange-correlation      = BLYP ( 1  3  1  3 0 0)
     nstep                     =         5000


     celldm(1)=  20.000000  celldm(2)=   0.000000  celldm(3)=   0.000000
     celldm(4)=   0.000000  celldm(5)=   0.000000  celldm(6)=   0.000000

     crystal axes: (cart. coord. in units of alat)
               a(1) = (   1.000000   0.000000   0.000000 )  
               a(2) = (   0.000000   1.000000   0.000000 )  
               a(3) = (   0.000000   0.000000   1.000000 )  

     reciprocal axes: (cart. coord. in units 2 pi/alat)
               b(1) = (  1.000000  0.000000  0.000000 )  
               b(2) = (  0.000000  1.000000  0.000000 )  
               b(3) = (  0.000000  0.000000  1.000000 )  


     PseudoPot. # 1 for  H read from file:
     ./H.blyp-hgh.UPF
     MD5 check sum: c576e69559cde411e611be972c763230
     Pseudo is Norm-conserving, Zval =  1.0
     Generated in analytical, separable form
     Using radial grid of  929 points,  0 beta functions with: 

     PseudoPot. # 2 for  O read from file:
     ./O.blyp-hgh.UPF
     MD5 check sum: d0b7156309aa9befef28faac7bc56342
     Pseudo is Norm-conserving, Zval =  6.0
     Generated in analytical, separable form
     Using radial grid of 1095 points,  1 beta functions with: 
                l(1) =   0

     atomic species   valence    mass     pseudopotential
        H              1.00     1.01000      H( 1.00)
        O              6.00    16.00000      O( 1.00)

     No symmetry found



   Cartesian axes

     site n.     atom                  positions (alat units)
         1           H   tau(   1) = (   0.0285863   0.4973306   0.7101255  )
         2           H   tau(   2) = (   0.7772916   0.3008580   0.2906262  )
         3           O   tau(   3) = (   0.6994359   0.3456055   0.2479804  )

     number of k points=     1  Marzari-Vanderbilt smearing, width (Ry)=  0.0250
                       cart. coord. in units 2pi/alat
        k(    1) = (   0.0000000   0.0000000   0.0000000), wk =   2.0000000

     Dense  grid:   177509 G-vectors     FFT dimensions: (  72,  72,  72)

     Estimated max dynamical RAM per process >       6.09Mb

     Estimated total allocated dynamical RAM >     170.64Mb

     Initial potential from superposition of free atoms
     Check: negative starting charge=   -0.348998

     starting charge    7.99998, renormalised to    8.00000

     negative rho (up, down):  3.490E-01 0.000E+00
     Starting wfc are    6 randomized atomic wfcs +    2 random wfc

     total cpu time spent up to now is        0.2 secs

     per-process dynamical memory:    18.8 Mb

     Self-consistent Calculation

     iteration #  1     ecut=    30.00 Ry     beta=0.70
     Davidson diagonalization with overlap
     ethr =  1.00E-02,  avg # of iterations =  6.0

     negative rho (up, down):  9.125E-02 0.000E+00

     total cpu time spent up to now is        0.3 secs

     total energy              =     -30.34326854 Ry
     Harris-Foulkes estimate   =     -32.23790033 Ry
     estimated scf accuracy    <       2.17805216 Ry

     iteration #  2     ecut=    30.00 Ry     beta=0.70
     Davidson diagonalization with overlap
     ethr =  1.00E-02,  avg # of iterations =  3.0

     negative rho (up, down):  6.638E-02 0.000E+00

     total cpu time spent up to now is        0.3 secs

     total energy              =     -32.29715961 Ry
     Harris-Foulkes estimate   =     -34.59653651 Ry
     estimated scf accuracy    <       5.59603330 Ry

     iteration #  3     ecut=    30.00 Ry     beta=0.70
     Davidson diagonalization with overlap
     ethr =  1.00E-02,  avg # of iterations =  2.0

     negative rho (up, down):  6.378E-02 0.000E+00

     total cpu time spent up to now is        0.4 secs

     total energy              =     -32.44350257 Ry
     Harris-Foulkes estimate   =     -32.53212691 Ry
     estimated scf accuracy    <       1.82135650 Ry

     iteration #  4     ecut=    30.00 Ry     beta=0.70
     Davidson diagonalization with overlap
     ethr =  1.00E-02,  avg # of iterations =  1.0

     negative rho (up, down):  1.192E-02 0.000E+00

     total cpu time spent up to now is        0.4 secs

     total energy              =     -31.29611590 Ry
     Harris-Foulkes estimate   =     -32.44382357 Ry
     estimated scf accuracy    <       1.69870871 Ry

     iteration #  5     ecut=    30.00 Ry     beta=0.70
     Davidson diagonalization with overlap
     ethr =  1.00E-02,  avg # of iterations =  4.0

     negative rho (up, down):  2.529E-02 0.000E+00

     total cpu time spent up to now is        0.4 secs

     total energy              =     -33.39954472 Ry
     Harris-Foulkes estimate   =     -33.22461979 Ry
     estimated scf accuracy    <       8.13608081 Ry

     iteration #  6     ecut=    30.00 Ry     beta=0.70
     Davidson diagonalization with overlap
     ethr =  1.00E-02,  avg # of iterations =  1.0

     negative rho (up, down):  1.784E-02 0.000E+00

     total cpu time spent up to now is        0.4 secs

     total energy              =     -33.13947385 Ry
     Harris-Foulkes estimate   =     -33.40938197 Ry
     estimated scf accuracy    <       9.40317201 Ry

     iteration #  7     ecut=    30.00 Ry     beta=0.70
     Davidson diagonalization with overlap
     ethr =  1.00E-02,  avg # of iterations =  1.0

     negative rho (up, down):  1.931E-02 0.000E+00

     total cpu time spent up to now is        0.5 secs

     total energy              =     -32.78628955 Ry
     Harris-Foulkes estimate   =     -33.15304925 Ry
     estimated scf accuracy    <       6.44194868 Ry

     iteration #  8     ecut=    30.00 Ry     beta=0.70
     Davidson diagonalization with overlap
     ethr =  1.00E-02,  avg # of iterations =  1.0

     negative rho (up, down):  5.232E-02 0.000E+00

     total cpu time spent up to now is        0.5 secs

     total energy              =     -32.77491136 Ry
     Harris-Foulkes estimate   =     -32.87388394 Ry
     estimated scf accuracy    <       2.89975210 Ry

     iteration #  9     ecut=    30.00 Ry     beta=0.70
     Davidson diagonalization with overlap
     ethr =  1.00E-02,  avg # of iterations =  1.0

     negative rho (up, down):  7.594E-02 0.000E+00

     total cpu time spent up to now is        0.5 secs

     total energy              =     -32.68991199 Ry
     Harris-Foulkes estimate   =     -32.77590929 Ry
     estimated scf accuracy    <       2.72297162 Ry

     iteration # 10     ecut=    30.00 Ry     beta=0.70
     Davidson diagonalization with overlap
     ethr =  1.00E-02,  avg # of iterations =  1.0

     negative rho (up, down):  1.370E-01 0.000E+00

     total cpu time spent up to now is        0.6 secs

     total energy              =     -32.42121640 Ry
     Harris-Foulkes estimate   =     -32.69061251 Ry
     estimated scf accuracy    <       2.55463112 Ry

     iteration # 11     ecut=    30.00 Ry     beta=0.70
     Davidson diagonalization with overlap
     ethr =  1.00E-02,  avg # of iterations =  1.0

     negative rho (up, down):  1.797E-01 0.000E+00

     total cpu time spent up to now is        0.6 secs

     total energy              =     -32.07955763 Ry
     Harris-Foulkes estimate   =     -32.42573188 Ry
     estimated scf accuracy    <       2.06089076 Ry

     iteration # 12     ecut=    30.00 Ry     beta=0.70
     Davidson diagonalization with overlap
     ethr =  1.00E-02,  avg # of iterations =  1.0

     negative rho (up, down):  2.358E-01 0.000E+00

     total cpu time spent up to now is        0.6 secs

     total energy              =     -31.85522672 Ry
     Harris-Foulkes estimate   =     -32.08907944 Ry
     estimated scf accuracy    <       1.45169132 Ry

     iteration # 13     ecut=    30.00 Ry     beta=0.70
     Davidson diagonalization with overlap
     ethr =  1.00E-02,  avg # of iterations =  1.0

     negative rho (up, down):  4.074E-01 0.000E+00

     total cpu time spent up to now is        0.7 secs

     total energy              =     -31.76790865 Ry
     Harris-Foulkes estimate   =     -31.98530940 Ry
     estimated scf accuracy    <       0.89354241 Ry

     iteration # 14     ecut=    30.00 Ry     beta=0.70
     Davidson diagonalization with overlap
     ethr =  1.00E-02,  avg # of iterations =  1.0

     negative rho (up, down):  1.454E-01 0.000E+00

     total cpu time spent up to now is        0.7 secs

     total energy              =     -31.89371468 Ry
     Harris-Foulkes estimate   =     -32.18985561 Ry
     estimated scf accuracy    <       1.59800552 Ry

     iteration # 15     ecut=    30.00 Ry     beta=0.70
     Davidson diagonalization with overlap
     ethr =  1.00E-02,  avg # of iterations =  1.0

     negative rho (up, down):  9.088E-02 0.000E+00

     total cpu time spent up to now is        0.7 secs

     total energy              =     -31.95119922 Ry
     Harris-Foulkes estimate   =     -31.95026933 Ry
     estimated scf accuracy    <       0.48488407 Ry

     iteration # 16     ecut=    30.00 Ry     beta=0.70
     Davidson diagonalization with overlap
     ethr =  6.06E-03,  avg # of iterations =  1.0

     negative rho (up, down):  1.113E-02 0.000E+00

     total cpu time spent up to now is        0.8 secs

     total energy              =     -31.94616970 Ry
     Harris-Foulkes estimate   =     -31.95314552 Ry
     estimated scf accuracy    <       0.34095667 Ry

     iteration # 17     ecut=    30.00 Ry     beta=0.70
     Davidson diagonalization with overlap
     ethr =  4.26E-03,  avg # of iterations =  1.0

     negative rho (up, down):  1.213E-03 0.000E+00

     total cpu time spent up to now is        0.8 secs

     total energy              =     -31.94702430 Ry
     Harris-Foulkes estimate   =     -31.94756613 Ry
     estimated scf accuracy    <       0.10850487 Ry

     iteration # 18     ecut=    30.00 Ry     beta=0.70
     Davidson diagonalization with overlap
     ethr =  1.36E-03,  avg # of iterations =  1.0

     negative rho (up, down):  5.903E-05 0.000E+00

     total cpu time spent up to now is        0.8 secs

     total energy              =     -31.94194799 Ry
     Harris-Foulkes estimate   =     -31.94710842 Ry
     estimated scf accuracy    <       0.07877269 Ry

     iteration # 19     ecut=    30.00 Ry     beta=0.70
     Davidson diagonalization with overlap
     ethr =  9.85E-04,  avg # of iterations =  1.0

     negative rho (up, down):  3.067E-05 0.000E+00

     total cpu time spent up to now is        0.9 secs

     total energy              =     -31.93848869 Ry
     Harris-Foulkes estimate   =     -31.94850501 Ry
     estimated scf accuracy    <       0.19962503 Ry

     iteration # 20     ecut=    30.00 Ry     beta=0.70
     Davidson diagonalization with overlap
     ethr =  9.85E-04,  avg # of iterations =  1.0

     negative rho (up, down):  5.183E-06 0.000E+00

     total cpu time spent up to now is        0.9 secs

     total energy              =     -31.94529607 Ry
     Harris-Foulkes estimate   =     -31.94852098 Ry
     estimated scf accuracy    <       0.16885984 Ry

     iteration # 21     ecut=    30.00 Ry     beta=0.70
     Davidson diagonalization with overlap
     ethr =  9.85E-04,  avg # of iterations =  1.0

     negative rho (up, down):  4.241E-06 0.000E+00

     total cpu time spent up to now is        0.9 secs

     total energy              =     -31.94619978 Ry
     Harris-Foulkes estimate   =     -31.94631260 Ry
     estimated scf accuracy    <       0.02011256 Ry

     iteration # 22     ecut=    30.00 Ry     beta=0.70
     Davidson diagonalization with overlap
     ethr =  2.51E-04,  avg # of iterations =  5.0

     negative rho (up, down):  2.442E-06 0.000E+00

     total cpu time spent up to now is        1.0 secs

     total energy              =     -31.94601799 Ry
     Harris-Foulkes estimate   =     -31.94621212 Ry
     estimated scf accuracy    <       0.01253885 Ry

     iteration # 23     ecut=    30.00 Ry     beta=0.70
     Davidson diagonalization with overlap
     ethr =  1.57E-04,  avg # of iterations =  1.0

     negative rho (up, down):  1.312E-07 0.000E+00

     total cpu time spent up to now is        1.0 secs

     total energy              =     -31.94601602 Ry
     Harris-Foulkes estimate   =     -31.94607449 Ry
     estimated scf accuracy    <       0.00211942 Ry

     iteration # 24     ecut=    30.00 Ry     beta=0.70
     Davidson diagonalization with overlap
     ethr =  2.65E-05,  avg # of iterations =  1.0

     total cpu time spent up to now is        1.0 secs

     total energy              =     -31.94604709 Ry
     Harris-Foulkes estimate   =     -31.94604756 Ry
     estimated scf accuracy    <       0.00001333 Ry

     iteration # 25     ecut=    30.00 Ry     beta=0.70
     Davidson diagonalization with overlap
     ethr =  1.67E-07,  avg # of iterations =  9.0

     total cpu time spent up to now is        1.1 secs

     total energy              =     -31.94604727 Ry
     Harris-Foulkes estimate   =     -31.94604726 Ry
     estimated scf accuracy    <       0.00000018 Ry

     iteration # 26     ecut=    30.00 Ry     beta=0.70
     Davidson diagonalization with overlap
     ethr =  2.28E-09,  avg # of iterations =  1.0

     total cpu time spent up to now is        1.1 secs

     total energy              =     -31.94604726 Ry
     Harris-Foulkes estimate   =     -31.94604728 Ry
     estimated scf accuracy    <       0.00000002 Ry

     iteration # 27     ecut=    30.00 Ry     beta=0.70
     Davidson diagonalization with overlap
     ethr =  2.82E-10,  avg # of iterations =  1.0

     total cpu time spent up to now is        1.1 secs

     total energy              =     -31.94604726 Ry
     Harris-Foulkes estimate   =     -31.94604726 Ry
     estimated scf accuracy    <       0.00000003 Ry

     iteration # 28     ecut=    30.00 Ry     beta=0.70
     Davidson diagonalization with overlap
     ethr =  2.82E-10,  avg # of iterations =  1.0

     total cpu time spent up to now is        1.2 secs

     End of self-consistent calculation

          k = 0.0000 0.0000 0.0000 ( 22119 PWs)   bands (ev):

   -24.7983 -10.6438  -7.0525  -7.0523  -6.9130  -0.7063   0.3331   0.8041

     the Fermi energy is    -6.8820 ev

!    total energy              =     -31.94604725 Ry
     Harris-Foulkes estimate   =     -31.94604726 Ry
     estimated scf accuracy    <          9.7E-09 Ry

     convergence has been achieved in  28 iterations

     Forces acting on atoms (Ry/au):

     atom    1 type  1   force =    -0.00023698    0.00033821    0.00030333
     atom    2 type  1   force =     0.01309236   -0.00749860    0.00729689
     atom    3 type  2   force =    -0.01285539    0.00716038   -0.00760022

     Total force =     0.023568     Total SCF correction =     0.000023

     Molecular Dynamics Calculation

     Starting temperature  =  1000.00 K

     temperature is controlled by Andersen thermostat
     Collision frequency = 1.0000/timestep
     mass H                =     1.01
     mass O                =    16.00
     Time step             =   100.00 a.u.,  4.8378 femto-seconds

     Entering Dynamics:    iteration =     1
                           time      =   0.0048 pico-seconds


     Andersen thermostat:    3 collisions

ATOMIC_POSITIONS (bohr)
H        0.522784954  10.108379873  14.571466250
H       15.356806273   6.321816683   5.937691949
O       14.003739653   6.882666950   4.928415473


     kinetic energy (Ekin) =     0.01804692 Ry
     temperature           =   949.79309590 K 
     Ekin + Etot (const)   =   -31.92800033 Ry

     Linear momentum :    0.0000000000   -0.0000000000   -0.0000000000

     Writing output data file pwscf.save
     Check: negative starting charge=   -0.348998
     NEW-OLD atomic charge density approx. for the potential
     Check: negative starting charge=   -0.349998

     negative rho (up, down):  9.651E-02 0.000E+00

     total cpu time spent up to now is        1.5 secs

     per-process dynamical memory:    20.4 Mb

     Self-consistent Calculation

     iteration #  1     ecut=    30.00 Ry     beta=0.70
     Davidson diagonalization with overlap
     c_bands:  2 eigenvalues not converged
     ethr =  1.00E-06,  avg # of iterations = 20.0

     negative rho (up, down):  2.467E-02 0.000E+00

     total cpu time spent up to now is        1.6 secs

     total energy              =     -31.33035722 Ry
     Harris-Foulkes estimate   =     -31.86373397 Ry
     estimated scf accuracy    <       0.74847361 Ry

     iteration #  2     ecut=    30.00 Ry     beta=0.70
     Davidson diagonalization with overlap
     ethr =  9.36E-03,  avg # of iterations =  3.0

     negative rho (up, down):  2.812E-04 0.000E+00

     total cpu time spent up to now is        1.7 secs

     total energy              =     -31.21084665 Ry
     Harris-Foulkes estimate   =     -33.75809780 Ry
     estimated scf accuracy    <      10.15235412 Ry

     iteration #  3     ecut=    30.00 Ry     beta=0.70
     Davidson diagonalization with overlap
     ethr =  9.36E-03,  avg # of iterations =  4.0

     negative rho (up, down):  9.854E-04 0.000E+00

     total cpu time spent up to now is        1.7 secs

     total energy              =     -32.02599594 Ry
     Harris-Foulkes estimate   =     -32.16008279 Ry
     estimated scf accuracy    <       1.79638791 Ry

     iteration #  4     ecut=    30.00 Ry     beta=0.70
     Davidson diagonalization with overlap
     ethr =  9.36E-03,  avg # of iterations =  1.0

     negative rho (up, down):  1.053E-02 0.000E+00

     total cpu time spent up to now is        1.7 secs

     total energy              =     -31.84250341 Ry
     Harris-Foulkes estimate   =     -32.02866932 Ry
     estimated scf accuracy    <       1.54299682 Ry

     iteration #  5     ecut=    30.00 Ry     beta=0.70
     Davidson diagonalization with overlap
     ethr =  9.36E-03,  avg # of iterations =  1.0

     negative rho (up, down):  1.231E-01 0.000E+00

     total cpu time spent up to now is        1.8 secs

     total energy              =     -31.51031852 Ry
     Harris-Foulkes estimate   =     -31.84213988 Ry
     estimated scf accuracy    <       1.42104393 Ry

     iteration #  6     ecut=    30.00 Ry     beta=0.70
     Davidson diagonalization with overlap
     ethr =  9.36E-03,  avg # of iterations =  5.0

     negative rho (up, down):  1.165E-01 0.000E+00

     total cpu time spent up to now is        1.8 secs

     total energy              =     -32.22885976 Ry
     Harris-Foulkes estimate   =     -32.18653416 Ry
     estimated scf accuracy    <       1.32108023 Ry

     iteration #  7     ecut=    30.00 Ry     beta=0.70
     Davidson diagonalization with overlap
     ethr =  9.36E-03,  avg # of iterations =  1.0

     negative rho (up, down):  4.009E-02 0.000E+00

     total cpu time spent up to now is        1.8 secs

     total energy              =     -32.07415172 Ry
     Harris-Foulkes estimate   =     -32.22943632 Ry
     estimated scf accuracy    <       1.34234299 Ry

     iteration #  8     ecut=    30.00 Ry     beta=0.70
     Davidson diagonalization with overlap
     ethr =  9.36E-03,  avg # of iterations =  1.0

     negative rho (up, down):  2.985E-02 0.000E+00

     total cpu time spent up to now is        1.9 secs

     total energy              =     -32.04456262 Ry
     Harris-Foulkes estimate   =     -32.07083087 Ry
     estimated scf accuracy    <       1.11345202 Ry

     iteration #  9     ecut=    30.00 Ry     beta=0.70
     Davidson diagonalization with overlap
     ethr =  9.36E-03,  avg # of iterations =  1.0

     negative rho (up, down):  3.000E-02 0.000E+00

     total cpu time spent up to now is        1.9 secs

     total energy              =     -32.04422186 Ry
     Harris-Foulkes estimate   =     -32.04461138 Ry
     estimated scf accuracy    <       1.07441138 Ry

     iteration # 10     ecut=    30.00 Ry     beta=0.70
     Davidson diagonalization with overlap
     ethr =  9.36E-03,  avg # of iterations =  1.0

     negative rho (up, down):  3.268E-02 0.000E+00

     total cpu time spent up to now is        1.9 secs

     total energy              =     -32.04711753 Ry
     Harris-Foulkes estimate   =     -32.04422711 Ry
     estimated scf accuracy    <       1.07253388 Ry

     iteration # 11     ecut=    30.00 Ry     beta=0.70
     Davidson diagonalization with overlap
     ethr =  9.36E-03,  avg # of iterations =  1.0

     negative rho (up, down):  5.156E-04 0.000E+00

     total cpu time spent up to now is        2.0 secs

     total energy              =     -31.99693255 Ry
     Harris-Foulkes estimate   =     -32.04711826 Ry
     estimated scf accuracy    <       1.07680867 Ry

     iteration # 12     ecut=    30.00 Ry     beta=0.70
     Davidson diagonalization with overlap
     ethr =  9.36E-03,  avg # of iterations =  1.0

     negative rho (up, down):  3.950E-04 0.000E+00

     total cpu time spent up to now is        2.0 secs

     total energy              =     -31.95606935 Ry
     Harris-Foulkes estimate   =     -31.99713194 Ry
     estimated scf accuracy    <       0.99261854 Ry

     iteration # 13     ecut=    30.00 Ry     beta=0.70
     Davidson diagonalization with overlap
     ethr =  9.36E-03,  avg # of iterations =  1.0

     negative rho (up, down):  2.003E-04 0.000E+00

     total cpu time spent up to now is        2.0 secs

     total energy              =     -31.94532173 Ry
     Harris-Foulkes estimate   =     -31.95812624 Ry
     estimated scf accuracy    <       0.61038021 Ry

     iteration # 14     ecut=    30.00 Ry     beta=0.70
     Davidson diagonalization with overlap
     ethr =  7.63E-03,  avg # of iterations =  1.0

     negative rho (up, down):  4.434E-04 0.000E+00

     total cpu time spent up to now is        2.1 secs

     total energy              =     -31.88128540 Ry
     Harris-Foulkes estimate   =     -31.94784765 Ry
     estimated scf accuracy    <       0.25322221 Ry

     iteration # 15     ecut=    30.00 Ry     beta=0.70
     Davidson diagonalization with overlap
     ethr =  3.17E-03,  avg # of iterations =  4.0

     negative rho (up, down):  1.548E-03 0.000E+00

     total cpu time spent up to now is        2.1 secs

     total energy              =     -31.96169360 Ry
     Harris-Foulkes estimate   =     -33.16292803 Ry
     estimated scf accuracy    <       3.55990659 Ry

     iteration # 16     ecut=    30.00 Ry     beta=0.70
     Davidson diagonalization with overlap
     ethr =  3.17E-03,  avg # of iterations =  3.0

     negative rho (up, down):  2.534E-04 0.000E+00

     total cpu time spent up to now is        2.2 secs

     total energy              =     -32.55612040 Ry
     Harris-Foulkes estimate   =     -32.04318973 Ry
     estimated scf accuracy    <       1.52351387 Ry

     iteration # 17     ecut=    30.00 Ry     beta=0.70
     Davidson diagonalization with overlap
     ethr =  3.17E-03,  avg # of iterations =  2.0

     negative rho (up, down):  8.758E-04 0.000E+00

     total cpu time spent up to now is        2.2 secs

     total energy              =     -32.02548861 Ry
     Harris-Foulkes estimate   =     -32.59979520 Ry
     estimated scf accuracy    <       2.30303269 Ry

     iteration # 18     ecut=    30.00 Ry     beta=0.70
     Davidson diagonalization with overlap
     ethr =  3.17E-03,  avg # of iterations =  2.0

     negative rho (up, down):  4.197E-04 0.000E+00

     total cpu time spent up to now is        2.2 secs

     total energy              =     -32.01941126 Ry
     Harris-Foulkes estimate   =     -32.05771316 Ry
     estimated scf accuracy    <       1.48449880 Ry

     iteration # 19     ecut=    30.00 Ry     beta=0.70
     Davidson diagonalization with overlap
     ethr =  3.17E-03,  avg # of iterations =  1.0

     negative rho (up, down):  3.379E-04 0.000E+00

     total cpu time spent up to now is        2.3 secs

     total energy              =     -32.01711915 Ry
     Harris-Foulkes estimate   =     -32.01979933 Ry
     estimated scf accuracy    <       1.43183879 Ry

     iteration # 20     ecut=    30.00 Ry     beta=0.70
     Davidson diagonalization with overlap
     ethr =  3.17E-03,  avg # of iterations =  1.0

     negative rho (up, down):  2.948E-05 0.000E+00

     total cpu time spent up to now is        2.3 secs

     total energy              =     -32.00255842 Ry
     Harris-Foulkes estimate   =     -32.01715823 Ry
     estimated scf accuracy    <       1.42435132 Ry

     iteration # 21     ecut=    30.00 Ry     beta=0.70
     Davidson diagonalization with overlap
     ethr =  3.17E-03,  avg # of iterations =  1.0

     negative rho (up, down):  1.848E-06 0.000E+00

     total cpu time spent up to now is        2.3 secs

     total energy              =     -31.98305634 Ry
     Harris-Foulkes estimate   =     -32.00258893 Ry
     estimated scf accuracy    <       1.40900897 Ry

     iteration # 22     ecut=    30.00 Ry     beta=0.70
     Davidson diagonalization with overlap
     ethr =  3.17E-03,  avg # of iterations =  1.0

     negative rho (up, down):  1.180E-03 0.000E+00

     total cpu time spent up to now is        2.4 secs

     total energy              =     -31.74711833 Ry
     Harris-Foulkes estimate   =     -31.98295339 Ry
     estimated scf accuracy    <       1.46216155 Ry

     iteration # 23     ecut=    30.00 Ry     beta=0.70
     Davidson diagonalization with overlap
     ethr =  3.17E-03,  avg # of iterations =  1.0

     negative rho (up, down):  9.675E-04 0.000E+00

     total cpu time spent up to now is        2.4 secs

     total energy              =     -32.08195313 Ry
     Harris-Foulkes estimate   =     -32.05295946 Ry
     estimated scf accuracy    <       1.08228991 Ry

     iteration # 24     ecut=    30.00 Ry     beta=0.70
     Davidson diagonalization with overlap
     ethr =  3.17E-03,  avg # of iterations =  1.0

     negative rho (up, down):  1.490E-04 0.000E+00

     total cpu time spent up to now is        2.4 secs

     total energy              =     -32.04152422 Ry
     Harris-Foulkes estimate   =     -32.08247309 Ry
     estimated scf accuracy    <       1.11593152 Ry

     iteration # 25     ecut=    30.00 Ry     beta=0.70
     Davidson diagonalization with overlap
     ethr =  3.17E-03,  avg # of iterations =  1.0

     negative rho (up, down):  1.056E-05 0.000E+00

     total cpu time spent up to now is        2.5 secs

     total energy              =     -31.96736645 Ry
     Harris-Foulkes estimate   =     -32.04305896 Ry
     estimated scf accuracy    <       1.06405277 Ry

     iteration # 26     ecut=    30.00 Ry     beta=0.70
     Davidson diagonalization with overlap
     ethr =  3.17E-03,  avg # of iterations =  1.0

     negative rho (up, down):  1.070E-05 0.000E+00

     total cpu time spent up to now is        2.5 secs

     total energy              =     -31.96756643 Ry
     Harris-Foulkes estimate   =     -31.96775669 Ry
     estimated scf accuracy    <       0.94991286 Ry

     iteration # 27     ecut=    30.00 Ry     beta=0.70
     Davidson diagonalization with overlap
     ethr =  3.17E-03,  avg # of iterations =  1.0

     negative rho (up, down):  1.856E-05 0.000E+00

     total cpu time spent up to now is        2.6 secs

     total energy              =     -31.96628614 Ry
     Harris-Foulkes estimate   =     -31.96757886 Ry
     estimated scf accuracy    <       0.94897374 Ry

     iteration # 28     ecut=    30.00 Ry     beta=0.70
     Davidson diagonalization with overlap
     ethr =  3.17E-03,  avg # of iterations =  1.0

     negative rho (up, down):  7.603E-06 0.000E+00

     total cpu time spent up to now is        2.6 secs

     total energy              =     -31.91352973 Ry
     Harris-Foulkes estimate   =     -31.96628860 Ry
     estimated scf accuracy    <       0.94711505 Ry

     iteration # 29     ecut=    30.00 Ry     beta=0.70
     Davidson diagonalization with overlap
     ethr =  3.17E-03,  avg # of iterations =  1.0

     negative rho (up, down):  2.091E-06 0.000E+00

     total cpu time spent up to now is        2.6 secs

     total energy              =     -31.90690731 Ry
     Harris-Foulkes estimate   =     -31.91993619 Ry
     estimated scf accuracy    <       0.18182354 Ry

     iteration # 30     ecut=    30.00 Ry     beta=0.70
     Davidson diagonalization with overlap
     ethr =  2.27E-03,  avg # of iterations =  1.0

     negative rho (up, down):  2.413E-07 0.000E+00

     total cpu time spent up to now is        2.7 secs

     total energy              =     -31.90506788 Ry
     Harris-Foulkes estimate   =     -31.92452086 Ry
     estimated scf accuracy    <       0.57089909 Ry

     iteration # 31     ecut=    30.00 Ry     beta=0.70
     Davidson diagonalization with overlap
     ethr =  2.27E-03,  avg # of iterations =  1.0

     negative rho (up, down):  1.879E-07 0.000E+00

     total cpu time spent up to now is        2.7 secs

     total energy              =     -31.91657260 Ry
     Harris-Foulkes estimate   =     -31.91808020 Ry
     estimated scf accuracy    <       0.06379451 Ry

     iteration # 32     ecut=    30.00 Ry     beta=0.70
     Davidson diagonalization with overlap
     ethr =  7.97E-04,  avg # of iterations =  1.0

     negative rho (up, down):  1.377E-07 0.000E+00

     total cpu time spent up to now is        2.7 secs

     total energy              =     -31.91700372 Ry
     Harris-Foulkes estimate   =     -31.91722219 Ry
     estimated scf accuracy    <       0.00100270 Ry

     iteration # 33     ecut=    30.00 Ry     beta=0.70
     Davidson diagonalization with overlap
     ethr =  1.25E-05,  avg # of iterations =  1.0

     negative rho (up, down):  1.790E-07 0.000E+00

     total cpu time spent up to now is        2.7 secs

     total energy              =     -31.91802166 Ry
     Harris-Foulkes estimate   =     -31.91829926 Ry
     estimated scf accuracy    <       0.08660389 Ry

     iteration # 34     ecut=    30.00 Ry     beta=0.70
     Davidson diagonalization with overlap
     ethr =  1.25E-05,  avg # of iterations =  1.0

     negative rho (up, down):  1.161E-07 0.000E+00

     total cpu time spent up to now is        2.8 secs

     total energy              =     -31.91697541 Ry
     Harris-Foulkes estimate   =     -31.91803959 Ry
     estimated scf accuracy    <       0.06563859 Ry

     iteration # 35     ecut=    30.00 Ry     beta=0.70
     Davidson diagonalization with overlap
     ethr =  1.25E-05,  avg # of iterations =  1.0

     total cpu time spent up to now is        2.8 secs

     total energy              =     -31.91707173 Ry
     Harris-Foulkes estimate   =     -31.91731553 Ry
     estimated scf accuracy    <       0.00816041 Ry

     iteration # 36     ecut=    30.00 Ry     beta=0.70
     Davidson diagonalization with overlap
     ethr =  1.25E-05,  avg # of iterations =  1.0

     total cpu time spent up to now is        2.9 secs

     total energy              =     -31.91718414 Ry
     Harris-Foulkes estimate   =     -31.91719723 Ry
     estimated scf accuracy    <       0.00004671 Ry

     iteration # 37     ecut=    30.00 Ry     beta=0.70
     Davidson diagonalization with overlap
     ethr =  5.84E-07,  avg # of iterations = 16.0

     total cpu time spent up to now is        2.9 secs

     total energy              =     -31.91710102 Ry
     Harris-Foulkes estimate   =     -31.91729446 Ry
     estimated scf accuracy    <       0.00755012 Ry

     iteration # 38     ecut=    30.00 Ry     beta=0.70
     Davidson diagonalization with overlap
     ethr =  5.84E-07,  avg # of iterations =  1.0

     total cpu time spent up to now is        2.9 secs

     total energy              =     -31.91719717 Ry
     Harris-Foulkes estimate   =     -31.91719741 Ry
     estimated scf accuracy    <       0.00000020 Ry

     iteration # 39     ecut=    30.00 Ry     beta=0.70
     Davidson diagonalization with overlap
     ethr =  2.47E-09,  avg # of iterations =  2.0

     total cpu time spent up to now is        3.0 secs

     total energy              =     -31.91719714 Ry
     Harris-Foulkes estimate   =     -31.91719720 Ry
     estimated scf accuracy    <       0.00000006 Ry

     iteration # 40     ecut=    30.00 Ry     beta=0.70
     Davidson diagonalization with overlap
     ethr =  7.67E-10,  avg # of iterations =  1.0

     total cpu time spent up to now is        3.0 secs

     total energy              =     -31.91719715 Ry
     Harris-Foulkes estimate   =     -31.91719715 Ry
     estimated scf accuracy    <       0.00000023 Ry

     iteration # 41     ecut=    30.00 Ry     beta=0.70
     Davidson diagonalization with overlap
     ethr =  7.67E-10,  avg # of iterations =  1.0

     total cpu time spent up to now is        3.0 secs

     End of self-consistent calculation

          k = 0.0000 0.0000 0.0000 ( 22119 PWs)   bands (ev):

   -25.4423 -10.9117  -7.1146  -7.1141  -6.9728  -0.5398   0.4346   0.7959

     the Fermi energy is    -6.9432 ev

!    total energy              =     -31.91719710 Ry
     Harris-Foulkes estimate   =     -31.91719715 Ry
     estimated scf accuracy    <          3.2E-09 Ry

     convergence has been achieved in  41 iterations

     Forces acting on atoms (Ry/au):

     atom    1 type  1   force =    -0.00001956    0.00032007    0.00034519
     atom    2 type  1   force =     0.21290289   -0.08757821    0.15891811
     atom    3 type  2   force =    -0.21288333    0.08725814   -0.15926330

     Total force =     0.395665     Total SCF correction =     0.000137

     Entering Dynamics:    iteration =     2
                           time      =   0.0097 pico-seconds


     Andersen thermostat:    3 collisions

ATOMIC_POSITIONS (bohr)
H        0.504828330  10.014524215  14.847117190
H       17.257348762   5.424592712   7.353989619
O       13.884901420   6.945228852   4.821611217


     kinetic energy (Ekin) =     0.05866539 Ry
     temperature           =  3087.50701906 K 
     Ekin + Etot (const)   =   -31.85853172 Ry
     Message from routine dynamics:
     Total linear momentum <> 0

     Linear momentum :   -0.3738988069   -0.1595574682   -0.2431728889

     Writing output data file pwscf.save

     first order wave-functions extrapolation
     Check: negative starting charge=   -0.349998
     first order charge density extrapolation
     Check: negative starting charge=   -0.343488

     negative rho (up, down):  3.705E-01 0.000E+00

     total cpu time spent up to now is        3.4 secs

     per-process dynamical memory:    20.4 Mb

     Self-consistent Calculation

     iteration #  1     ecut=    30.00 Ry     beta=0.70
     Davidson diagonalization with overlap
     c_bands:  1 eigenvalues not converged
     ethr =  1.00E-06,  avg # of iterations = 20.0

     negative rho (up, down):  9.429E-02 0.000E+00

     total cpu time spent up to now is        3.5 secs

     total energy              =      -9.42498220 Ry
     Harris-Foulkes estimate   =     -37.30336936 Ry
     estimated scf accuracy    <      11.23030578 Ry

     iteration #  2     ecut=    30.00 Ry     beta=0.70
     Davidson diagonalization with overlap
     ethr =  1.00E-02,  avg # of iterations =  5.0

     negative rho (up, down):  6.472E-02 0.000E+00

     total cpu time spent up to now is        3.6 secs

     total energy              =     -32.96234457 Ry
     Harris-Foulkes estimate   =     -41.27916857 Ry
     estimated scf accuracy    <      18.37550748 Ry

     iteration #  3     ecut=    30.00 Ry     beta=0.70
     Davidson diagonalization with overlap
     ethr =  1.00E-02,  avg # of iterations =  4.0

     negative rho (up, down):  4.334E-02 0.000E+00

     total cpu time spent up to now is        3.6 secs

     total energy              =     -31.43590995 Ry
     Harris-Foulkes estimate   =     -33.54009775 Ry
     estimated scf accuracy    <       5.92317079 Ry

     iteration #  4     ecut=    30.00 Ry     beta=0.70
     Davidson diagonalization with overlap
     ethr =  1.00E-02,  avg # of iterations =  3.0

     negative rho (up, down):  3.823E-02 0.000E+00

     total cpu time spent up to now is        3.6 secs

     total energy              =     -31.28401907 Ry
     Harris-Foulkes estimate   =     -32.26533187 Ry
     estimated scf accuracy    <       4.12542763 Ry

     iteration #  5     ecut=    30.00 Ry     beta=0.70
     Davidson diagonalization with overlap
     ethr =  1.00E-02,  avg # of iterations =  1.0

     negative rho (up, down):  1.746E-02 0.000E+00

     total cpu time spent up to now is        3.7 secs

     total energy              =     -31.55824587 Ry
     Harris-Foulkes estimate   =     -32.36491171 Ry
     estimated scf accuracy    <       3.84958812 Ry

     iteration #  6     ecut=    30.00 Ry     beta=0.70
     Davidson diagonalization with overlap
     ethr =  1.00E-02,  avg # of iterations =  1.0

     negative rho (up, down):  1.497E-02 0.000E+00

     total cpu time spent up to now is        3.7 secs

     total energy              =     -31.59382338 Ry
     Harris-Foulkes estimate   =     -31.62721912 Ry
     estimated scf accuracy    <       0.34422195 Ry

     iteration #  7     ecut=    30.00 Ry     beta=0.70
     Davidson diagonalization with overlap
     ethr =  4.30E-03,  avg # of iterations =  1.0

     negative rho (up, down):  1.491E-02 0.000E+00

     total cpu time spent up to now is        3.7 secs

     total energy              =     -31.60315777 Ry
     Harris-Foulkes estimate   =     -31.61320985 Ry
     estimated scf accuracy    <       0.67417938 Ry

     iteration #  8     ecut=    30.00 Ry     beta=0.70
     Davidson diagonalization with overlap
     ethr =  4.30E-03,  avg # of iterations =  1.0

     negative rho (up, down):  1.490E-02 0.000E+00

     total cpu time spent up to now is        3.8 secs

     total energy              =     -31.59849599 Ry
     Harris-Foulkes estimate   =     -31.60670072 Ry
     estimated scf accuracy    <       0.16819606 Ry

     iteration #  9     ecut=    30.00 Ry     beta=0.70
     Davidson diagonalization with overlap
     ethr =  2.10E-03,  avg # of iterations =  1.0

     negative rho (up, down):  1.151E-02 0.000E+00

     total cpu time spent up to now is        3.8 secs

     total energy              =     -31.58914746 Ry
     Harris-Foulkes estimate   =     -31.64071202 Ry
     estimated scf accuracy    <       1.36925059 Ry

     iteration # 10     ecut=    30.00 Ry     beta=0.70
     Davidson diagonalization with overlap
     ethr =  2.10E-03,  avg # of iterations =  1.0

     negative rho (up, down):  2.896E-05 0.000E+00

     total cpu time spent up to now is        3.8 secs

     total energy              =     -31.53914431 Ry
     Harris-Foulkes estimate   =     -31.59902926 Ry
     estimated scf accuracy    <       0.23300068 Ry

     iteration # 11     ecut=    30.00 Ry     beta=0.70
     Davidson diagonalization with overlap
     ethr =  2.10E-03,  avg # of iterations =  1.0

     negative rho (up, down):  1.479E-05 0.000E+00

     total cpu time spent up to now is        3.9 secs

     total energy              =     -31.74271583 Ry
     Harris-Foulkes estimate   =     -31.75865661 Ry
     estimated scf accuracy    <       2.26468961 Ry

     iteration # 12     ecut=    30.00 Ry     beta=0.70
     Davidson diagonalization with overlap
     ethr =  2.10E-03,  avg # of iterations =  1.0

     negative rho (up, down):  1.734E-05 0.000E+00

     total cpu time spent up to now is        3.9 secs

     total energy              =     -31.71614022 Ry
     Harris-Foulkes estimate   =     -31.74330296 Ry
     estimated scf accuracy    <       2.14705913 Ry

     iteration # 13     ecut=    30.00 Ry     beta=0.70
     Davidson diagonalization with overlap
     ethr =  2.10E-03,  avg # of iterations =  1.0

     negative rho (up, down):  1.632E-05 0.000E+00

     total cpu time spent up to now is        3.9 secs

     total energy              =     -31.70104886 Ry
     Harris-Foulkes estimate   =     -31.71670212 Ry
     estimated scf accuracy    <       1.95737628 Ry

     iteration # 14     ecut=    30.00 Ry     beta=0.70
     Davidson diagonalization with overlap
     ethr =  2.10E-03,  avg # of iterations =  1.0

     negative rho (up, down):  8.708E-05 0.000E+00

     total cpu time spent up to now is        4.0 secs

     total energy              =     -31.52732387 Ry
     Harris-Foulkes estimate   =     -31.70120017 Ry
     estimated scf accuracy    <       1.85867744 Ry

     iteration # 15     ecut=    30.00 Ry     beta=0.70
     Davidson diagonalization with overlap
     ethr =  2.10E-03,  avg # of iterations =  1.0

     negative rho (up, down):  1.005E-06 0.000E+00

     total cpu time spent up to now is        4.0 secs

     total energy              =     -31.57360217 Ry
     Harris-Foulkes estimate   =     -31.60787286 Ry
     estimated scf accuracy    <       0.82989853 Ry

     iteration # 16     ecut=    30.00 Ry     beta=0.70
     Davidson diagonalization with overlap
     ethr =  2.10E-03,  avg # of iterations =  1.0

     total cpu time spent up to now is        4.0 secs

     total energy              =     -31.59052462 Ry
     Harris-Foulkes estimate   =     -31.59103560 Ry
     estimated scf accuracy    <       0.05011497 Ry

     iteration # 17     ecut=    30.00 Ry     beta=0.70
     Davidson diagonalization with overlap
     ethr =  6.26E-04,  avg # of iterations =  1.0

     negative rho (up, down):  1.439E-08 0.000E+00

     total cpu time spent up to now is        4.1 secs

     total energy              =     -31.59060182 Ry
     Harris-Foulkes estimate   =     -31.59068015 Ry
     estimated scf accuracy    <       0.02426653 Ry

     iteration # 18     ecut=    30.00 Ry     beta=0.70
     Davidson diagonalization with overlap
     ethr =  3.03E-04,  avg # of iterations =  1.0

     negative rho (up, down):  2.010E-08 0.000E+00

     total cpu time spent up to now is        4.1 secs

     total energy              =     -31.59040516 Ry
     Harris-Foulkes estimate   =     -31.59061592 Ry
     estimated scf accuracy    <       0.01953307 Ry

     iteration # 19     ecut=    30.00 Ry     beta=0.70
     Davidson diagonalization with overlap
     ethr =  2.44E-04,  avg # of iterations =  1.0

     total cpu time spent up to now is        4.1 secs

     total energy              =     -31.59041357 Ry
     Harris-Foulkes estimate   =     -31.59045306 Ry
     estimated scf accuracy    <       0.00601409 Ry

     iteration # 20     ecut=    30.00 Ry     beta=0.70
     Davidson diagonalization with overlap
     ethr =  7.52E-05,  avg # of iterations =  3.0

     total cpu time spent up to now is        4.2 secs

     total energy              =     -31.59037263 Ry
     Harris-Foulkes estimate   =     -31.59042226 Ry
     estimated scf accuracy    <       0.00329820 Ry

     iteration # 21     ecut=    30.00 Ry     beta=0.70
     Davidson diagonalization with overlap
     ethr =  4.12E-05,  avg # of iterations =  4.0

     total cpu time spent up to now is        4.2 secs

     total energy              =     -31.59035218 Ry
     Harris-Foulkes estimate   =     -31.59038819 Ry
     estimated scf accuracy    <       0.00047832 Ry

     iteration # 22     ecut=    30.00 Ry     beta=0.70
     Davidson diagonalization with overlap
     ethr =  5.98E-06,  avg # of iterations =  8.0

     total cpu time spent up to now is        4.2 secs

     total energy              =     -31.59034754 Ry
     Harris-Foulkes estimate   =     -31.59040483 Ry
     estimated scf accuracy    <       0.00194328 Ry

     iteration # 23     ecut=    30.00 Ry     beta=0.70
     Davidson diagonalization with overlap
     ethr =  5.98E-06,  avg # of iterations =  1.0

     total cpu time spent up to now is        4.3 secs

     total energy              =     -31.59037969 Ry
     Harris-Foulkes estimate   =     -31.59038110 Ry
     estimated scf accuracy    <       0.00006516 Ry

     iteration # 24     ecut=    30.00 Ry     beta=0.70
     Davidson diagonalization with overlap
     ethr =  8.14E-07,  avg # of iterations =  1.0

     total cpu time spent up to now is        4.3 secs

     total energy              =     -31.59037991 Ry
     Harris-Foulkes estimate   =     -31.59038015 Ry
     estimated scf accuracy    <       0.00000502 Ry

     iteration # 25     ecut=    30.00 Ry     beta=0.70
     Davidson diagonalization with overlap
     ethr =  6.28E-08,  avg # of iterations =  1.0

     total cpu time spent up to now is        4.3 secs

     total energy              =     -31.59037995 Ry
     Harris-Foulkes estimate   =     -31.59037997 Ry
     estimated scf accuracy    <       0.00000002 Ry

     iteration # 26     ecut=    30.00 Ry     beta=0.70
     Davidson diagonalization with overlap
     ethr =  2.78E-10,  avg # of iterations =  1.0

     total cpu time spent up to now is        4.4 secs

     End of self-consistent calculation

          k = 0.0000 0.0000 0.0000 ( 22119 PWs)   bands (ev):

   -23.6231  -7.9309  -6.9426  -6.9415  -6.8082  -6.1530  -0.1423   0.7049

     the Fermi energy is    -6.7737 ev

!    total energy              =     -31.59037996 Ry
     Harris-Foulkes estimate   =     -31.59037995 Ry
     estimated scf accuracy    <          5.4E-10 Ry

     convergence has been achieved in  26 iterations

     Forces acting on atoms (Ry/au):

     atom    1 type  1   force =     0.00005757   -0.00001510   -0.00044939
     atom    2 type  1   force =    -0.06648959    0.02995081   -0.05074354
     atom    3 type  2   force =     0.06643201   -0.02993571    0.05119293

     Total force =     0.125790     Total SCF correction =     0.000048

     Entering Dynamics:    iteration =     3
                           time      =   0.0145 pico-seconds


     Andersen thermostat:    3 collisions

ATOMIC_POSITIONS (bohr)
H        0.406611164   9.669742723  14.745299164
H       16.448934167   5.973468244   6.778381563
O       13.942132550   6.932345415   4.864373738


     kinetic energy (Ekin) =     0.03180151 Ry
     temperature           =  1673.68529439 K 
     Ekin + Etot (const)   =   -31.55857844 Ry
     Message from routine dynamics:
     Total linear momentum <> 0

     Linear momentum :   -0.4224953344   -0.0453040645    0.3717559238

     Writing output data file pwscf.save

     second order wave-functions extrapolation
     Check: negative starting charge=   -0.343488
     second order charge density extrapolation
     Check: negative starting charge=   -0.345925

     negative rho (up, down):  6.603E-02 0.000E+00

     total cpu time spent up to now is        4.7 secs

     per-process dynamical memory:    20.4 Mb

     Self-consistent Calculation

     iteration #  1     ecut=    30.00 Ry     beta=0.70
     Davidson diagonalization with overlap
     c_bands:  1 eigenvalues not converged
     ethr =  1.00E-06,  avg # of iterations = 20.0

     negative rho (up, down):  1.489E-02 0.000E+00

     total cpu time spent up to now is        4.8 secs

     total energy              =     -23.16003346 Ry
     Harris-Foulkes estimate   =     -33.28377029 Ry
     estimated scf accuracy    <       4.49815465 Ry

     iteration #  2     ecut=    30.00 Ry     beta=0.70
     Davidson diagonalization with overlap
     ethr =  1.00E-02,  avg # of iterations =  4.0

     negative rho (up, down):  1.047E-02 0.000E+00

     total cpu time spent up to now is        4.9 secs

     total energy              =     -32.19974793 Ry
     Harris-Foulkes estimate   =     -36.40528167 Ry
     estimated scf accuracy    <       9.95234617 Ry

     iteration #  3     ecut=    30.00 Ry     beta=0.70
     Davidson diagonalization with overlap
     ethr =  1.00E-02,  avg # of iterations =  2.0

     negative rho (up, down):  7.366E-03 0.000E+00

     total cpu time spent up to now is        4.9 secs

     total energy              =     -31.62623414 Ry
     Harris-Foulkes estimate   =     -32.57602111 Ry
     estimated scf accuracy    <       3.08400931 Ry

     iteration #  4     ecut=    30.00 Ry     beta=0.70
     Davidson diagonalization with overlap
     ethr =  1.00E-02,  avg # of iterations =  2.0

     negative rho (up, down):  6.493E-03 0.000E+00

     total cpu time spent up to now is        5.0 secs

     total energy              =     -31.81410236 Ry
     Harris-Foulkes estimate   =     -32.18933872 Ry
     estimated scf accuracy    <       1.77186962 Ry

     iteration #  5     ecut=    30.00 Ry     beta=0.70
     Davidson diagonalization with overlap
     ethr =  1.00E-02,  avg # of iterations =  1.0

     negative rho (up, down):  4.198E-03 0.000E+00

     total cpu time spent up to now is        5.0 secs

     total energy              =     -31.72935676 Ry
     Harris-Foulkes estimate   =     -31.94070846 Ry
     estimated scf accuracy    <       1.74208218 Ry

     iteration #  6     ecut=    30.00 Ry     beta=0.70
     Davidson diagonalization with overlap
     ethr =  1.00E-02,  avg # of iterations =  1.0

     negative rho (up, down):  3.314E-03 0.000E+00

     total cpu time spent up to now is        5.0 secs

     total energy              =     -31.71535435 Ry
     Harris-Foulkes estimate   =     -31.81550979 Ry
     estimated scf accuracy    <       1.48632924 Ry

     iteration #  7     ecut=    30.00 Ry     beta=0.70
     Davidson diagonalization with overlap
     ethr =  1.00E-02,  avg # of iterations =  1.0

     negative rho (up, down):  2.603E-03 0.000E+00

     total cpu time spent up to now is        5.0 secs

     total energy              =     -31.76152186 Ry
     Harris-Foulkes estimate   =     -31.76952107 Ry
     estimated scf accuracy    <       0.70560183 Ry

     iteration #  8     ecut=    30.00 Ry     beta=0.70
     Davidson diagonalization with overlap
     ethr =  8.82E-03,  avg # of iterations =  1.0

     negative rho (up, down):  6.466E-04 0.000E+00

     total cpu time spent up to now is        5.1 secs

     total energy              =     -31.69818300 Ry
     Harris-Foulkes estimate   =     -31.76178126 Ry
     estimated scf accuracy    <       0.75904103 Ry

     iteration #  9     ecut=    30.00 Ry     beta=0.70
     Davidson diagonalization with overlap
     ethr =  8.82E-03,  avg # of iterations =  1.0

     negative rho (up, down):  4.964E-04 0.000E+00

     total cpu time spent up to now is        5.1 secs

     total energy              =     -31.72510477 Ry
     Harris-Foulkes estimate   =     -31.74518238 Ry
     estimated scf accuracy    <       0.92428447 Ry

     iteration # 10     ecut=    30.00 Ry     beta=0.70
     Davidson diagonalization with overlap
     ethr =  8.82E-03,  avg # of iterations =  1.0

     total cpu time spent up to now is        5.1 secs

     total energy              =     -31.73844417 Ry
     Harris-Foulkes estimate   =     -31.73420718 Ry
     estimated scf accuracy    <       0.01767646 Ry

     iteration # 11     ecut=    30.00 Ry     beta=0.70
     Davidson diagonalization with overlap
     ethr =  2.21E-04,  avg # of iterations =  4.0

     total cpu time spent up to now is        5.2 secs

     total energy              =     -31.74180861 Ry
     Harris-Foulkes estimate   =     -31.74290956 Ry
     estimated scf accuracy    <       0.46870006 Ry

     iteration # 12     ecut=    30.00 Ry     beta=0.70
     Davidson diagonalization with overlap
     ethr =  2.21E-04,  avg # of iterations =  1.0

     total cpu time spent up to now is        5.2 secs

     total energy              =     -31.73555519 Ry
     Harris-Foulkes estimate   =     -31.74187204 Ry
     estimated scf accuracy    <       0.38974166 Ry

     iteration # 13     ecut=    30.00 Ry     beta=0.70
     Davidson diagonalization with overlap
     ethr =  2.21E-04,  avg # of iterations =  1.0

     total cpu time spent up to now is        5.2 secs

     total energy              =     -31.73597949 Ry
     Harris-Foulkes estimate   =     -31.73760968 Ry
     estimated scf accuracy    <       0.04466967 Ry

     iteration # 14     ecut=    30.00 Ry     beta=0.70
     Davidson diagonalization with overlap
     ethr =  2.21E-04,  avg # of iterations =  1.0

     total cpu time spent up to now is        5.3 secs

     total energy              =     -31.73687918 Ry
     Harris-Foulkes estimate   =     -31.73716578 Ry
     estimated scf accuracy    <       0.00922031 Ry

     iteration # 15     ecut=    30.00 Ry     beta=0.70
     Davidson diagonalization with overlap
     ethr =  1.15E-04,  avg # of iterations =  1.0

     total cpu time spent up to now is        5.3 secs

     total energy              =     -31.73703581 Ry
     Harris-Foulkes estimate   =     -31.73704862 Ry
     estimated scf accuracy    <       0.00040388 Ry

     iteration # 16     ecut=    30.00 Ry     beta=0.70
     Davidson diagonalization with overlap
     ethr =  5.05E-06,  avg # of iterations = 16.0

     total cpu time spent up to now is        5.4 secs

     total energy              =     -31.73704406 Ry
     Harris-Foulkes estimate   =     -31.73704417 Ry
     estimated scf accuracy    <       0.00002399 Ry

     iteration # 17     ecut=    30.00 Ry     beta=0.70
     Davidson diagonalization with overlap
     ethr =  3.00E-07,  avg # of iterations =  1.0

     total cpu time spent up to now is        5.4 secs

     total energy              =     -31.73704420 Ry
     Harris-Foulkes estimate   =     -31.73704429 Ry
     estimated scf accuracy    <       0.00000136 Ry

     iteration # 18     ecut=    30.00 Ry     beta=0.70
     Davidson diagonalization with overlap
     ethr =  1.70E-08,  avg # of iterations =  1.0

     total cpu time spent up to now is        5.4 secs

     total energy              =     -31.73704429 Ry
     Harris-Foulkes estimate   =     -31.73704423 Ry
     estimated scf accuracy    <       0.00000003 Ry

     iteration # 19     ecut=    30.00 Ry     beta=0.70
     Davidson diagonalization with overlap
     ethr =  4.13E-10,  avg # of iterations =  1.0

     total cpu time spent up to now is        5.4 secs

     End of self-consistent calculation

          k = 0.0000 0.0000 0.0000 ( 22119 PWs)   bands (ev):

   -23.6359  -8.8119  -6.9294  -6.9284  -6.7951  -4.2995  -0.0925   0.7532

     the Fermi energy is    -6.7604 ev

!    total energy              =     -31.73704429 Ry
     Harris-Foulkes estimate   =     -31.73704429 Ry
     estimated scf accuracy    <          2.9E-09 Ry

     convergence has been achieved in  19 iterations

     Forces acting on atoms (Ry/au):

     atom    1 type  1   force =    -0.00021990    0.00016168    0.00014364
     atom    2 type  1   force =    -0.12885858    0.04923401   -0.09873448
     atom    3 type  2   force =     0.12907849   -0.04939570    0.09859083

     Total force =     0.239997     Total SCF correction =     0.000014

     Entering Dynamics:    iteration =     4
                           time      =   0.0194 pico-seconds


     Andersen thermostat:    3 collisions

ATOMIC_POSITIONS (bohr)
H        0.816292542   9.635417551  15.056654522
H       14.820190788   6.094456867   5.387993691
O       14.019085839   6.926874785   4.932487666


     kinetic energy (Ekin) =     0.09055237 Ry
     temperature           =  4765.69058027 K 
     Ekin + Etot (const)   =   -31.64649192 Ry
     Message from routine dynamics:
     Total linear momentum <> 0

     Linear momentum :   -0.1094680359   -0.3864292415   -0.1598951600

     Writing output data file pwscf.save

     second order wave-functions extrapolation
     Check: negative starting charge=   -0.345925
     second order charge density extrapolation
     Check: negative starting charge=   -0.351150

     negative rho (up, down):  1.782E-01 0.000E+00

     total cpu time spent up to now is        5.8 secs

     per-process dynamical memory:    20.4 Mb

     Self-consistent Calculation

     iteration #  1     ecut=    30.00 Ry     beta=0.70
     Davidson diagonalization with overlap
     c_bands:  1 eigenvalues not converged
     ethr =  1.00E-06,  avg # of iterations = 20.0

     negative rho (up, down):  3.727E-02 0.000E+00

     total cpu time spent up to now is        5.9 secs

     total energy              =     -30.54892650 Ry
     Harris-Foulkes estimate   =     -31.47429952 Ry
     estimated scf accuracy    <       1.20405855 Ry

     iteration #  2     ecut=    30.00 Ry     beta=0.70
     Davidson diagonalization with overlap
     ethr =  1.00E-02,  avg # of iterations =  3.0

     negative rho (up, down):  4.003E-03 0.000E+00

     total cpu time spent up to now is        5.9 secs

     total energy              =     -30.66397073 Ry
     Harris-Foulkes estimate   =     -33.69926119 Ry
     estimated scf accuracy    <      10.49585458 Ry

     iteration #  3     ecut=    30.00 Ry     beta=0.70
     Davidson diagonalization with overlap
     ethr =  1.00E-02,  avg # of iterations =  3.0

     negative rho (up, down):  4.866E-03 0.000E+00

     total cpu time spent up to now is        6.0 secs

     total energy              =     -31.43470403 Ry
     Harris-Foulkes estimate   =     -31.58700110 Ry
     estimated scf accuracy    <       1.84585236 Ry

     iteration #  4     ecut=    30.00 Ry     beta=0.70
     Davidson diagonalization with overlap
     ethr =  1.00E-02,  avg # of iterations =  1.0

     negative rho (up, down):  1.954E-01 0.000E+00

     total cpu time spent up to now is        6.0 secs

     total energy              =     -30.84420859 Ry
     Harris-Foulkes estimate   =     -31.43828164 Ry
     estimated scf accuracy    <       1.55385069 Ry

     iteration #  5     ecut=    30.00 Ry     beta=0.70
     Davidson diagonalization with overlap
     ethr =  1.00E-02,  avg # of iterations =  5.0

     negative rho (up, down):  7.484E-02 0.000E+00

     total cpu time spent up to now is        6.0 secs

     total energy              =     -31.64215423 Ry
     Harris-Foulkes estimate   =     -31.80917506 Ry
     estimated scf accuracy    <       1.53891664 Ry

     iteration #  6     ecut=    30.00 Ry     beta=0.70
     Davidson diagonalization with overlap
     ethr =  1.00E-02,  avg # of iterations =  1.0

     negative rho (up, down):  2.804E-06 0.000E+00

     total cpu time spent up to now is        6.1 secs

     total energy              =     -31.40054386 Ry
     Harris-Foulkes estimate   =     -31.64323096 Ry
     estimated scf accuracy    <       1.27186326 Ry

     iteration #  7     ecut=    30.00 Ry     beta=0.70
     Davidson diagonalization with overlap
     ethr =  1.00E-02,  avg # of iterations =  1.0

     total cpu time spent up to now is        6.1 secs

     total energy              =     -31.32815988 Ry
     Harris-Foulkes estimate   =     -31.40544119 Ry
     estimated scf accuracy    <       0.50835832 Ry

     iteration #  8     ecut=    30.00 Ry     beta=0.70
     Davidson diagonalization with overlap
     ethr =  6.35E-03,  avg # of iterations =  1.0

     total cpu time spent up to now is        6.1 secs

     total energy              =     -31.38778800 Ry
     Harris-Foulkes estimate   =     -31.45399679 Ry
     estimated scf accuracy    <       1.53597908 Ry

     iteration #  9     ecut=    30.00 Ry     beta=0.70
     Davidson diagonalization with overlap
     ethr =  6.35E-03,  avg # of iterations =  1.0

     total cpu time spent up to now is        6.1 secs

     total energy              =     -31.32216027 Ry
     Harris-Foulkes estimate   =     -31.38986951 Ry
     estimated scf accuracy    <       0.51671845 Ry

     iteration # 10     ecut=    30.00 Ry     beta=0.70
     Davidson diagonalization with overlap
     ethr =  6.35E-03,  avg # of iterations =  1.0

     total cpu time spent up to now is        6.2 secs

     total energy              =     -31.60819956 Ry
     Harris-Foulkes estimate   =     -31.47751100 Ry
     estimated scf accuracy    <       1.00392963 Ry

     iteration # 11     ecut=    30.00 Ry     beta=0.70
     Davidson diagonalization with overlap
     ethr =  6.35E-03,  avg # of iterations =  1.0

     negative rho (up, down):  1.015E-03 0.000E+00

     total cpu time spent up to now is        6.2 secs

     total energy              =     -32.12920745 Ry
     Harris-Foulkes estimate   =     -31.60879784 Ry
     estimated scf accuracy    <       1.19335508 Ry

     iteration # 12     ecut=    30.00 Ry     beta=0.70
     Davidson diagonalization with overlap
     ethr =  6.35E-03,  avg # of iterations =  1.0

     negative rho (up, down):  1.455E-04 0.000E+00

     total cpu time spent up to now is        6.3 secs

     total energy              =     -31.74013143 Ry
     Harris-Foulkes estimate   =     -32.13992756 Ry
     estimated scf accuracy    <       1.91464328 Ry

     iteration # 13     ecut=    30.00 Ry     beta=0.70
     Davidson diagonalization with overlap
     ethr =  6.35E-03,  avg # of iterations =  1.0

     negative rho (up, down):  1.099E-04 0.000E+00

     total cpu time spent up to now is        6.3 secs

     total energy              =     -31.75125098 Ry
     Harris-Foulkes estimate   =     -31.74355920 Ry
     estimated scf accuracy    <       1.37922718 Ry

     iteration # 14     ecut=    30.00 Ry     beta=0.70
     Davidson diagonalization with overlap
     ethr =  6.35E-03,  avg # of iterations =  1.0

     negative rho (up, down):  8.069E-05 0.000E+00

     total cpu time spent up to now is        6.3 secs

     total energy              =     -31.64856516 Ry
     Harris-Foulkes estimate   =     -31.75135897 Ry
     estimated scf accuracy    <       1.38466884 Ry

     iteration # 15     ecut=    30.00 Ry     beta=0.70
     Davidson diagonalization with overlap
     ethr =  6.35E-03,  avg # of iterations =  1.0

     negative rho (up, down):  9.526E-06 0.000E+00

     total cpu time spent up to now is        6.4 secs

     total energy              =     -31.46712061 Ry
     Harris-Foulkes estimate   =     -31.64895451 Ry
     estimated scf accuracy    <       1.23693741 Ry

     iteration # 16     ecut=    30.00 Ry     beta=0.70
     Davidson diagonalization with overlap
     ethr =  6.35E-03,  avg # of iterations =  1.0

     negative rho (up, down):  2.927E-04 0.000E+00

     total cpu time spent up to now is        6.4 secs

     total energy              =     -31.46097001 Ry
     Harris-Foulkes estimate   =     -31.46347392 Ry
     estimated scf accuracy    <       0.98531278 Ry

     iteration # 17     ecut=    30.00 Ry     beta=0.70
     Davidson diagonalization with overlap
     ethr =  6.35E-03,  avg # of iterations =  1.0

     negative rho (up, down):  2.191E-04 0.000E+00

     total cpu time spent up to now is        6.4 secs

     total energy              =     -30.87050828 Ry
     Harris-Foulkes estimate   =     -31.46098123 Ry
     estimated scf accuracy    <       0.98502992 Ry

     iteration # 18     ecut=    30.00 Ry     beta=0.70
     Davidson diagonalization with overlap
     ethr =  6.35E-03,  avg # of iterations =  4.0

     negative rho (up, down):  5.226E-05 0.000E+00

     total cpu time spent up to now is        6.5 secs

     total energy              =     -32.16465129 Ry
     Harris-Foulkes estimate   =     -32.41266476 Ry
     estimated scf accuracy    <       3.18786968 Ry

     iteration # 19     ecut=    30.00 Ry     beta=0.70
     Davidson diagonalization with overlap
     ethr =  6.35E-03,  avg # of iterations =  1.0

     negative rho (up, down):  9.520E-04 0.000E+00

     total cpu time spent up to now is        6.5 secs

     total energy              =     -32.51913077 Ry
     Harris-Foulkes estimate   =     -32.16859881 Ry
     estimated scf accuracy    <       2.68138899 Ry

     iteration # 20     ecut=    30.00 Ry     beta=0.70
     Davidson diagonalization with overlap
     ethr =  6.35E-03,  avg # of iterations =  1.0

     negative rho (up, down):  1.008E-03 0.000E+00

     total cpu time spent up to now is        6.5 secs

     total energy              =     -32.74602810 Ry
     Harris-Foulkes estimate   =     -32.53143500 Ry
     estimated scf accuracy    <       3.43934916 Ry

     iteration # 21     ecut=    30.00 Ry     beta=0.70
     Davidson diagonalization with overlap
     ethr =  6.35E-03,  avg # of iterations =  1.0

     negative rho (up, down):  4.846E-05 0.000E+00

     total cpu time spent up to now is        6.6 secs

     total energy              =     -31.45333194 Ry
     Harris-Foulkes estimate   =     -32.74869488 Ry
     estimated scf accuracy    <       3.91539345 Ry

     iteration # 22     ecut=    30.00 Ry     beta=0.70
     Davidson diagonalization with overlap
     ethr =  6.35E-03,  avg # of iterations =  2.0

     negative rho (up, down):  1.562E-04 0.000E+00

     total cpu time spent up to now is        6.6 secs

     total energy              =     -31.48898887 Ry
     Harris-Foulkes estimate   =     -31.52658053 Ry
     estimated scf accuracy    <       1.57983404 Ry

     iteration # 23     ecut=    30.00 Ry     beta=0.70
     Davidson diagonalization with overlap
     ethr =  6.35E-03,  avg # of iterations =  1.0

     negative rho (up, down):  4.670E-05 0.000E+00

     total cpu time spent up to now is        6.6 secs

     total energy              =     -31.17674350 Ry
     Harris-Foulkes estimate   =     -31.49082874 Ry
     estimated scf accuracy    <       1.47777343 Ry

     iteration # 24     ecut=    30.00 Ry     beta=0.70
     Davidson diagonalization with overlap
     ethr =  6.35E-03,  avg # of iterations =  1.0

     negative rho (up, down):  5.102E-07 0.000E+00

     total cpu time spent up to now is        6.7 secs

     total energy              =     -31.40629288 Ry
     Harris-Foulkes estimate   =     -31.55217330 Ry
     estimated scf accuracy    <       1.10272659 Ry

     iteration # 25     ecut=    30.00 Ry     beta=0.70
     Davidson diagonalization with overlap
     ethr =  6.35E-03,  avg # of iterations =  1.0

     negative rho (up, down):  4.638E-07 0.000E+00

     total cpu time spent up to now is        6.7 secs

     total energy              =     -31.42650521 Ry
     Harris-Foulkes estimate   =     -31.40558472 Ry
     estimated scf accuracy    <       0.89519152 Ry

     iteration # 26     ecut=    30.00 Ry     beta=0.70
     Davidson diagonalization with overlap
     ethr =  6.35E-03,  avg # of iterations =  1.0

     negative rho (up, down):  1.648E-06 0.000E+00

     total cpu time spent up to now is        6.7 secs

     total energy              =     -31.19054135 Ry
     Harris-Foulkes estimate   =     -31.42672817 Ry
     estimated scf accuracy    <       0.94999743 Ry

     iteration # 27     ecut=    30.00 Ry     beta=0.70
     Davidson diagonalization with overlap
     ethr =  6.35E-03,  avg # of iterations =  1.0

     negative rho (up, down):  1.016E-07 0.000E+00

     total cpu time spent up to now is        6.8 secs

     total energy              =     -31.50024838 Ry
     Harris-Foulkes estimate   =     -31.58671187 Ry
     estimated scf accuracy    <       1.58799832 Ry

     iteration # 28     ecut=    30.00 Ry     beta=0.70
     Davidson diagonalization with overlap
     ethr =  6.35E-03,  avg # of iterations =  1.0

     negative rho (up, down):  2.123E-07 0.000E+00

     total cpu time spent up to now is        6.9 secs

     total energy              =     -31.50621063 Ry
     Harris-Foulkes estimate   =     -31.50115990 Ry
     estimated scf accuracy    <       1.46634782 Ry

     iteration # 29     ecut=    30.00 Ry     beta=0.70
     Davidson diagonalization with overlap
     ethr =  6.35E-03,  avg # of iterations =  1.0

     negative rho (up, down):  7.792E-06 0.000E+00

     total cpu time spent up to now is        6.9 secs

     total energy              =     -31.23951982 Ry
     Harris-Foulkes estimate   =     -31.50626688 Ry
     estimated scf accuracy    <       1.46729957 Ry

     iteration # 30     ecut=    30.00 Ry     beta=0.70
     Davidson diagonalization with overlap
     ethr =  6.35E-03,  avg # of iterations =  1.0

     negative rho (up, down):  9.675E-06 0.000E+00

     total cpu time spent up to now is        6.9 secs

     total energy              =     -31.45675980 Ry
     Harris-Foulkes estimate   =     -31.46651198 Ry
     estimated scf accuracy    <       0.99643179 Ry

     iteration # 31     ecut=    30.00 Ry     beta=0.70
     Davidson diagonalization with overlap
     ethr =  6.35E-03,  avg # of iterations =  1.0

     negative rho (up, down):  3.122E-06 0.000E+00

     total cpu time spent up to now is        7.0 secs

     total energy              =     -31.37873428 Ry
     Harris-Foulkes estimate   =     -31.45682682 Ry
     estimated scf accuracy    <       0.98235405 Ry

     iteration # 32     ecut=    30.00 Ry     beta=0.70
     Davidson diagonalization with overlap
     ethr =  6.35E-03,  avg # of iterations =  1.0

     total cpu time spent up to now is        7.0 secs

     total energy              =     -31.41041678 Ry
     Harris-Foulkes estimate   =     -31.38589354 Ry
     estimated scf accuracy    <       0.60153854 Ry

     iteration # 33     ecut=    30.00 Ry     beta=0.70
     Davidson diagonalization with overlap
     ethr =  6.35E-03,  avg # of iterations =  1.0

     total cpu time spent up to now is        7.0 secs

     total energy              =     -31.40708569 Ry
     Harris-Foulkes estimate   =     -31.41628136 Ry
     estimated scf accuracy    <       0.91181761 Ry

     iteration # 34     ecut=    30.00 Ry     beta=0.70
     Davidson diagonalization with overlap
     ethr =  6.35E-03,  avg # of iterations =  1.0

     total cpu time spent up to now is        7.1 secs

     total energy              =     -31.36221871 Ry
     Harris-Foulkes estimate   =     -31.40710133 Ry
     estimated scf accuracy    <       0.89682728 Ry

     iteration # 35     ecut=    30.00 Ry     beta=0.70
     Davidson diagonalization with overlap
     ethr =  6.35E-03,  avg # of iterations =  1.0

     total cpu time spent up to now is        7.1 secs

     total energy              =     -31.36375239 Ry
     Harris-Foulkes estimate   =     -31.37105747 Ry
     estimated scf accuracy    <       0.07139751 Ry

     iteration # 36     ecut=    30.00 Ry     beta=0.70
     Davidson diagonalization with overlap
     ethr =  8.92E-04,  avg # of iterations =  1.0

     total cpu time spent up to now is        7.1 secs

     total energy              =     -31.33482157 Ry
     Harris-Foulkes estimate   =     -31.37750894 Ry
     estimated scf accuracy    <       0.61339274 Ry

     iteration # 37     ecut=    30.00 Ry     beta=0.70
     Davidson diagonalization with overlap
     ethr =  8.92E-04,  avg # of iterations =  1.0

     total cpu time spent up to now is        7.2 secs

     total energy              =     -31.36689417 Ry
     Harris-Foulkes estimate   =     -31.38919959 Ry
     estimated scf accuracy    <       0.76559031 Ry

     iteration # 38     ecut=    30.00 Ry     beta=0.70
     Davidson diagonalization with overlap
     ethr =  8.92E-04,  avg # of iterations =  1.0

     total cpu time spent up to now is        7.2 secs

     total energy              =     -31.37412294 Ry
     Harris-Foulkes estimate   =     -31.37183930 Ry
     estimated scf accuracy    <       0.13818045 Ry

     iteration # 39     ecut=    30.00 Ry     beta=0.70
     Davidson diagonalization with overlap
     ethr =  8.92E-04,  avg # of iterations =  1.0

     total cpu time spent up to now is        7.2 secs

     total energy              =     -31.36713587 Ry
     Harris-Foulkes estimate   =     -31.37469627 Ry
     estimated scf accuracy    <       0.30356015 Ry

     iteration # 40     ecut=    30.00 Ry     beta=0.70
     Davidson diagonalization with overlap
     ethr =  8.92E-04,  avg # of iterations =  1.0

     total cpu time spent up to now is        7.3 secs

     total energy              =     -31.36950069 Ry
     Harris-Foulkes estimate   =     -31.36994224 Ry
     estimated scf accuracy    <       0.01205745 Ry

     iteration # 41     ecut=    30.00 Ry     beta=0.70
     Davidson diagonalization with overlap
     ethr =  1.51E-04,  avg # of iterations =  1.0

     total cpu time spent up to now is        7.3 secs

     total energy              =     -31.36979210 Ry
     Harris-Foulkes estimate   =     -31.36980975 Ry
     estimated scf accuracy    <       0.00209765 Ry

     iteration # 42     ecut=    30.00 Ry     beta=0.70
     Davidson diagonalization with overlap
     ethr =  2.62E-05,  avg # of iterations =  1.0

     total cpu time spent up to now is        7.3 secs

     total energy              =     -31.36982062 Ry
     Harris-Foulkes estimate   =     -31.36979504 Ry
     estimated scf accuracy    <       0.00094814 Ry

     iteration # 43     ecut=    30.00 Ry     beta=0.70
     Davidson diagonalization with overlap
     ethr =  1.19E-05,  avg # of iterations =  1.0

     total cpu time spent up to now is        7.4 secs

     total energy              =     -31.36981012 Ry
     Harris-Foulkes estimate   =     -31.36983382 Ry
     estimated scf accuracy    <       0.00398450 Ry

     iteration # 44     ecut=    30.00 Ry     beta=0.70
     Davidson diagonalization with overlap
     ethr =  1.19E-05,  avg # of iterations =  1.0

     total cpu time spent up to now is        7.4 secs

     total energy              =     -31.36975107 Ry
     Harris-Foulkes estimate   =     -31.36981289 Ry
     estimated scf accuracy    <       0.00232567 Ry

     iteration # 45     ecut=    30.00 Ry     beta=0.70
     Davidson diagonalization with overlap
     ethr =  1.19E-05,  avg # of iterations =  1.0

     total cpu time spent up to now is        7.4 secs

     total energy              =     -31.36978426 Ry
     Harris-Foulkes estimate   =     -31.36978394 Ry
     estimated scf accuracy    <       0.00000813 Ry

     iteration # 46     ecut=    30.00 Ry     beta=0.70
     Davidson diagonalization with overlap
     ethr =  1.02E-07,  avg # of iterations = 13.0

     total cpu time spent up to now is        7.5 secs

     total energy              =     -31.36978338 Ry
     Harris-Foulkes estimate   =     -31.36978450 Ry
     estimated scf accuracy    <       0.00005074 Ry

     iteration # 47     ecut=    30.00 Ry     beta=0.70
     Davidson diagonalization with overlap
     ethr =  1.02E-07,  avg # of iterations =  1.0

     total cpu time spent up to now is        7.5 secs

     total energy              =     -31.36978368 Ry
     Harris-Foulkes estimate   =     -31.36978372 Ry
     estimated scf accuracy    <       0.00000389 Ry

     iteration # 48     ecut=    30.00 Ry     beta=0.70
     Davidson diagonalization with overlap
     ethr =  4.87E-08,  avg # of iterations =  1.0

     total cpu time spent up to now is        7.5 secs

     total energy              =     -31.36978388 Ry
     Harris-Foulkes estimate   =     -31.36978371 Ry
     estimated scf accuracy    <       0.00000016 Ry

     iteration # 49     ecut=    30.00 Ry     beta=0.70
     Davidson diagonalization with overlap
     ethr =  1.94E-09,  avg # of iterations =  1.0

     total cpu time spent up to now is        7.6 secs

     End of self-consistent calculation

          k = 0.0000 0.0000 0.0000 ( 22119 PWs)   bands (ev):

   -28.3558 -11.4830  -7.2807  -7.2801  -7.1312  -0.3689   0.5755   0.7839

     the Fermi energy is    -7.1067 ev

!    total energy              =     -31.36978388 Ry
     Harris-Foulkes estimate   =     -31.36978388 Ry
     estimated scf accuracy    <          6.4E-09 Ry

     convergence has been achieved in  49 iterations

     Forces acting on atoms (Ry/au):

     atom    1 type  1   force =    -0.00007240    0.00013288    0.00036174
     atom    2 type  1   force =     1.53557840   -1.59589484    0.87397399
     atom    3 type  2   force =    -1.53550600    1.59576196   -0.87433573

     Total force =     3.367107     Total SCF correction =     0.000043

     Entering Dynamics:    iteration =     5
                           time      =   0.0242 pico-seconds


     Andersen thermostat:    3 collisions

ATOMIC_POSITIONS (bohr)
H        0.947274559   9.472698541  15.396244642
H       31.925577931 -11.001994071  15.011114678
O       12.931040035   8.016359888   4.303591527


     kinetic energy (Ekin) =     8.43521249 Ry
     temperature           = ************** K 
     Ekin + Etot (const)   =   -22.93457139 Ry
     Message from routine dynamics:
     Total linear momentum <> 0

     Linear momentum :   -0.5927326573    0.0420276860    0.0805491863

     Writing output data file pwscf.save

     second order wave-functions extrapolation
     Check: negative starting charge=   -0.351150
     second order charge density extrapolation
     Check: negative starting charge=   -0.348399

     negative rho (up, down):  6.550E+00 0.000E+00

     total cpu time spent up to now is        7.9 secs

     per-process dynamical memory:    20.4 Mb

     Self-consistent Calculation

     iteration #  1     ecut=    30.00 Ry     beta=0.70
     Davidson diagonalization with overlap
     ethr =  1.00E-06,  avg # of iterations = 15.0

     negative rho (up, down):  1.493E+00 0.000E+00

     total cpu time spent up to now is        8.0 secs

     total energy              =      72.87320253 Ry
     Harris-Foulkes estimate   = -124334.92140070 Ry
     estimated scf accuracy    <      38.70966998 Ry

     iteration #  2     ecut=    30.00 Ry     beta=0.70
     Davidson diagonalization with overlap
     ethr =  1.00E-02,  avg # of iterations =  8.0

     negative rho (up, down):  7.472E-01 0.000E+00

     total cpu time spent up to now is        8.1 secs

     total energy              =     114.44778061 Ry
     Harris-Foulkes estimate   =   -1066.85192662 Ry
     estimated scf accuracy    <      31.22026514 Ry

     iteration #  3     ecut=    30.00 Ry     beta=0.70
     Davidson diagonalization with overlap
     ethr =  1.00E-02,  avg # of iterations = 15.0

     negative rho (up, down):  5.777E-01 0.000E+00

     total cpu time spent up to now is        8.1 secs

     total energy              =      -0.41544431 Ry
     Harris-Foulkes estimate   =    -259.38126524 Ry
     estimated scf accuracy    <      24.73577025 Ry

     iteration #  4     ecut=    30.00 Ry     beta=0.70
[...]
     Harris-Foulkes estimate   =   -8217.02047200 Ry
     estimated scf accuracy    <      26.30711088 Ry

     iteration # 59     ecut=    30.00 Ry     beta=0.70
     Davidson diagonalization with overlap
     ethr =  1.00E-02,  avg # of iterations = 16.0

     negative rho (up, down):  9.165E-01 0.000E+00

     total cpu time spent up to now is       11.2 secs

     total energy              =     -18.61911446 Ry
     Harris-Foulkes estimate   =   -2431.16173736 Ry
     estimated scf accuracy    <      30.17052623 Ry

     iteration # 60     ecut=    30.00 Ry     beta=0.70
     Davidson diagonalization with overlap
     ethr =  1.00E-02,  avg # of iterations =  7.0

     negative rho (up, down):  6.145E-01 0.000E+00

     total cpu time spent up to now is       11.2 secs

     total energy              =     126.93599732 Ry
     Harris-Foulkes estimate   =   -1044.50776108 Ry
     estimated scf accuracy    <      28.49849710 Ry

     iteration # 61     ecut=    30.00 Ry     beta=0.70
     Davidson diagonalization with overlap
     ethr =  1.00E-02,  avg # of iterations =  8.0

     negative rho (up, down):  5.341E-01 0.000E+00

     total cpu time spent up to now is       11.3 secs

     total energy              =      43.39541090 Ry
     Harris-Foulkes estimate   =   -1036.01363659 Ry
     estimated scf accuracy    <      20.94429036 Ry

     iteration # 62     ecut=    30.00 Ry     beta=0.70
     Davidson diagonalization with overlap
     ethr =  1.00E-02,  avg # of iterations =  8.0

     negative rho (up, down):  2.954E-02 0.000E+00

     total cpu time spent up to now is       11.3 secs

     total energy              =     137.55551734 Ry
     Harris-Foulkes estimate   =   -1794.19664920 Ry
     estimated scf accuracy    <      23.62573730 Ry

     iteration # 63     ecut=    30.00 Ry     beta=0.70
     Davidson diagonalization with overlap
     ethr =  1.00E-02,  avg # of iterations =  8.0

     negative rho (up, down):  1.713E-02 0.000E+00

     total cpu time spent up to now is       11.4 secs

     total energy              =      24.85741069 Ry
     Harris-Foulkes estimate   =    -192.87377236 Ry
     estimated scf accuracy    <      28.90308545 Ry

     iteration # 64     ecut=    30.00 Ry     beta=0.70
     Davidson diagonalization with overlap
     ethr =  1.00E-02,  avg # of iterations =  8.0

     negative rho (up, down):  3.404E-03 0.000E+00

     total cpu time spent up to now is       11.4 secs

     total energy              =       4.70712608 Ry
     Harris-Foulkes estimate   =     -96.31584922 Ry
     estimated scf accuracy    <      26.85752696 Ry

     iteration # 65     ecut=    30.00 Ry     beta=0.70
     Davidson diagonalization with overlap
     ethr =  1.00E-02,  avg # of iterations =  5.0

     negative rho (up, down):  6.303E-03 0.000E+00

     total cpu time spent up to now is       11.5 secs

     total energy              =     -72.57655636 Ry
     Harris-Foulkes estimate   =     -69.06279998 Ry
     estimated scf accuracy    <      52.54011682 Ry

     iteration # 66     ecut=    30.00 Ry     beta=0.70
     Davidson diagonalization with overlap
     ethr =  1.00E-02,  avg # of iterations =  2.0

     negative rho (up, down):  9.160E-02 0.000E+00

     total cpu time spent up to now is       11.5 secs

     total energy              =    -147.22281515 Ry
     Harris-Foulkes estimate   =     -72.58615694 Ry
     estimated scf accuracy    <      56.57340239 Ry

     iteration # 67     ecut=    30.00 Ry     beta=0.70
     Davidson diagonalization with overlap
     ethr =  1.00E-02,  avg # of iterations =  8.0

     negative rho (up, down):  7.547E-02 0.000E+00

     total cpu time spent up to now is       11.6 secs

     total energy              =      51.68092189 Ry
     Harris-Foulkes estimate   =    -571.17113193 Ry
     estimated scf accuracy    <      29.52797147 Ry

     iteration # 68     ecut=    30.00 Ry     beta=0.70
     Davidson diagonalization with overlap
     ethr =  1.00E-02,  avg # of iterations =  9.0

     negative rho (up, down):  1.169E-01 0.000E+00

     total cpu time spent up to now is       11.6 secs

     total energy              =    -139.79170349 Ry
     Harris-Foulkes estimate   =    -403.78104571 Ry
     estimated scf accuracy    <      75.77522196 Ry

     iteration # 69     ecut=    30.00 Ry     beta=0.70
     Davidson diagonalization with overlap
     ethr =  1.00E-02,  avg # of iterations =  5.0

     negative rho (up, down):  2.368E-01 0.000E+00

     total cpu time spent up to now is       11.7 secs

     total energy              =     -59.84752433 Ry
     Harris-Foulkes estimate   =    -480.51671592 Ry
     estimated scf accuracy    <      74.11850440 Ry

     iteration # 70     ecut=    30.00 Ry     beta=0.70
     Davidson diagonalization with overlap
     ethr =  1.00E-02,  avg # of iterations =  6.0

     negative rho (up, down):  5.894E-01 0.000E+00

     total cpu time spent up to now is       11.7 secs

     total energy              =     -72.22983403 Ry
     Harris-Foulkes estimate   =    -600.08192498 Ry
     estimated scf accuracy    <      64.40501935 Ry

     iteration # 71     ecut=    30.00 Ry     beta=0.70
     Davidson diagonalization with overlap
     ethr =  1.00E-02,  avg # of iterations =  6.0

     negative rho (up, down):  8.741E-01 0.000E+00

     total cpu time spent up to now is       11.8 secs

     total energy              =     -63.41457269 Ry
     Harris-Foulkes estimate   =   -1852.19555790 Ry
     estimated scf accuracy    <      65.14877554 Ry

     iteration # 72     ecut=    30.00 Ry     beta=0.70
     Davidson diagonalization with overlap
     ethr =  1.00E-02,  avg # of iterations = 10.0

     negative rho (up, down):  1.720E+00 0.000E+00

     total cpu time spent up to now is       11.9 secs

     total energy              =    -325.30275503 Ry
     Harris-Foulkes estimate   =    -895.20086014 Ry
     estimated scf accuracy    <      62.67622955 Ry

     iteration # 73     ecut=    30.00 Ry     beta=0.70
     Davidson diagonalization with overlap
     ethr =  1.00E-02,  avg # of iterations =  8.0

     negative rho (up, down):  2.697E+00 0.000E+00

     total cpu time spent up to now is       11.9 secs

     total energy              =    -242.35640425 Ry
     Harris-Foulkes estimate   =   -7077.48369428 Ry
     estimated scf accuracy    <      59.20741491 Ry

     iteration # 74     ecut=    30.00 Ry     beta=0.70
     Davidson diagonalization with overlap
     ethr =  1.00E-02,  avg # of iterations =  9.0

     negative rho (up, down):  3.697E+00 0.000E+00

     total cpu time spent up to now is       12.0 secs

     total energy              =    -949.63169454 Ry
     Harris-Foulkes estimate   =   -9607.63828104 Ry
     estimated scf accuracy    <      54.63175672 Ry

     iteration # 75     ecut=    30.00 Ry     beta=0.70
     Davidson diagonalization with overlap
     ethr =  1.00E-02,  avg # of iterations =  8.0

     negative rho (up, down):  2.443E+00 0.000E+00

     total cpu time spent up to now is       12.0 secs

     total energy              =     215.11238986 Ry
     Harris-Foulkes estimate   =   -8758.62713943 Ry
     estimated scf accuracy    <      63.81072433 Ry

     iteration # 76     ecut=    30.00 Ry     beta=0.70
     Davidson diagonalization with overlap
     ethr =  1.00E-02,  avg # of iterations = 10.0

     negative rho (up, down):  9.328E-01 0.000E+00

     total cpu time spent up to now is       12.1 secs

     total energy              =    -433.28648660 Ry
     Harris-Foulkes estimate   =   -5395.09878706 Ry
     estimated scf accuracy    <      48.29083591 Ry

     iteration # 77     ecut=    30.00 Ry     beta=0.70
     Davidson diagonalization with overlap
     ethr =  1.00E-02,  avg # of iterations =  7.0

     negative rho (up, down):  6.230E-01 0.000E+00

     total cpu time spent up to now is       12.2 secs

     total energy              =      78.72184993 Ry
     Harris-Foulkes estimate   =   -3342.09520788 Ry
     estimated scf accuracy    <      24.84522216 Ry

     iteration # 78     ecut=    30.00 Ry     beta=0.70
     Davidson diagonalization with overlap
     ethr =  1.00E-02,  avg # of iterations = 10.0

     negative rho (up, down):  3.996E-01 0.000E+00

     total cpu time spent up to now is       12.2 secs

     total energy              =     -56.17928655 Ry
     Harris-Foulkes estimate   =   -5535.04452377 Ry
     estimated scf accuracy    <      21.39437979 Ry

     iteration # 79     ecut=    30.00 Ry     beta=0.70
     Davidson diagonalization with overlap
     ethr =  1.00E-02,  avg # of iterations =  6.0

     negative rho (up, down):  4.389E-01 0.000E+00

     total cpu time spent up to now is       12.3 secs

     total energy              =    -216.64534407 Ry
     Harris-Foulkes estimate   =  -12576.68883110 Ry
     estimated scf accuracy    <      28.65554096 Ry

     iteration # 80     ecut=    30.00 Ry     beta=0.70
     Davidson diagonalization with overlap
     ethr =  1.00E-02,  avg # of iterations =  6.0

     negative rho (up, down):  3.871E-01 0.000E+00

     total cpu time spent up to now is       12.3 secs

     total energy              =      70.89593111 Ry
     Harris-Foulkes estimate   =   -2297.34953850 Ry
     estimated scf accuracy    <      17.85635636 Ry

     iteration # 81     ecut=    30.00 Ry     beta=0.70
     Davidson diagonalization with overlap
     ethr =  1.00E-02,  avg # of iterations =  7.0

     negative rho (up, down):  2.730E-01 0.000E+00

     total cpu time spent up to now is       12.4 secs

     total energy              =      79.05172057 Ry
     Harris-Foulkes estimate   =    -264.44832212 Ry
     estimated scf accuracy    <      20.31245372 Ry

     iteration # 82     ecut=    30.00 Ry     beta=0.70
     Davidson diagonalization with overlap
     ethr =  1.00E-02,  avg # of iterations = 12.0

     negative rho (up, down):  1.985E-01 0.000E+00

     total cpu time spent up to now is       12.5 secs

     total energy              =     507.53841108 Ry
     Harris-Foulkes estimate   =    -176.64240994 Ry
     estimated scf accuracy    <      25.45865516 Ry

     iteration # 83     ecut=    30.00 Ry     beta=0.70
     Davidson diagonalization with overlap
     ethr =  1.00E-02,  avg # of iterations =  7.0

     negative rho (up, down):  1.591E-01 0.000E+00

     total cpu time spent up to now is       12.5 secs

     total energy              =   -3953.97524825 Ry
     Harris-Foulkes estimate   =    -366.25451973 Ry
     estimated scf accuracy    <      34.08956789 Ry

     iteration # 84     ecut=    30.00 Ry     beta=0.70
     Davidson diagonalization with overlap
     ethr =  1.00E-02,  avg # of iterations =  7.0

     negative rho (up, down):  5.963E-03 0.000E+00

     total cpu time spent up to now is       12.6 secs

     total energy              =      72.34051994 Ry
     Harris-Foulkes estimate   =   -5332.18796699 Ry
     estimated scf accuracy    <      24.18729660 Ry

     iteration # 85     ecut=    30.00 Ry     beta=0.70
     Davidson diagonalization with overlap
     ethr =  1.00E-02,  avg # of iterations =  8.0

     negative rho (up, down):  2.458E-04 0.000E+00

     total cpu time spent up to now is       12.6 secs

     total energy              =     -33.35005052 Ry
     Harris-Foulkes estimate   =     -39.59386069 Ry
     estimated scf accuracy    <      23.83673365 Ry

     iteration # 86     ecut=    30.00 Ry     beta=0.70
     Davidson diagonalization with overlap
     ethr =  1.00E-02,  avg # of iterations =  2.0

     negative rho (up, down):  1.915E-01 0.000E+00

     total cpu time spent up to now is       12.7 secs

     total energy              =     -38.59030891 Ry
     Harris-Foulkes estimate   =     -34.26603189 Ry
     estimated scf accuracy    <      16.59602114 Ry

     iteration # 87     ecut=    30.00 Ry     beta=0.70
     Davidson diagonalization with overlap
     ethr =  1.00E-02,  avg # of iterations =  9.0

     negative rho (up, down):  5.854E-01 0.000E+00

     total cpu time spent up to now is       12.8 secs

     total energy              =   -3971.70449242 Ry
     Harris-Foulkes estimate   =    -469.44418905 Ry
     estimated scf accuracy    <      30.61677261 Ry

     iteration # 88     ecut=    30.00 Ry     beta=0.70
     Davidson diagonalization with overlap
     ethr =  1.00E-02,  avg # of iterations =  5.0

     negative rho (up, down):  7.400E-01 0.000E+00

     total cpu time spent up to now is       12.8 secs

     total energy              =      96.12004114 Ry
     Harris-Foulkes estimate   =  -11861.14260758 Ry
     estimated scf accuracy    <      28.07966095 Ry

     iteration # 89     ecut=    30.00 Ry     beta=0.70
     Davidson diagonalization with overlap
     ethr =  1.00E-02,  avg # of iterations =  7.0

     negative rho (up, down):  7.394E-01 0.000E+00

     total cpu time spent up to now is       12.9 secs

     total energy              =      86.37769638 Ry
     Harris-Foulkes estimate   =    -634.19482576 Ry
     estimated scf accuracy    <      23.67189020 Ry

     iteration # 90     ecut=    30.00 Ry     beta=0.70
     Davidson diagonalization with overlap
     ethr =  1.00E-02,  avg # of iterations =  7.0

     negative rho (up, down):  1.821E-01 0.000E+00

     total cpu time spent up to now is       12.9 secs

     total energy              =      62.88061497 Ry
     Harris-Foulkes estimate   =    -924.97010560 Ry
     estimated scf accuracy    <      30.20976878 Ry

     iteration # 91     ecut=    30.00 Ry     beta=0.70
     Davidson diagonalization with overlap
     ethr =  1.00E-02,  avg # of iterations =  9.0

     negative rho (up, down):  4.486E-01 0.000E+00

     total cpu time spent up to now is       13.0 secs

     total energy              =     -54.75241858 Ry
     Harris-Foulkes estimate   =    -712.31700800 Ry
     estimated scf accuracy    <      30.58451087 Ry

     iteration # 92     ecut=    30.00 Ry     beta=0.70
     Davidson diagonalization with overlap
     ethr =  1.00E-02,  avg # of iterations =  7.0

     negative rho (up, down):  3.261E-01 0.000E+00

     total cpu time spent up to now is       13.0 secs

     total energy              =      74.91706905 Ry
     Harris-Foulkes estimate   =   -1572.33732055 Ry
     estimated scf accuracy    <      31.35366699 Ry

     iteration # 93     ecut=    30.00 Ry     beta=0.70
     Davidson diagonalization with overlap
     ethr =  1.00E-02,  avg # of iterations =  9.0

     negative rho (up, down):  1.075E-01 0.000E+00

     total cpu time spent up to now is       13.1 secs

     total energy              =      63.26990040 Ry
     Harris-Foulkes estimate   =    -295.97574594 Ry
     estimated scf accuracy    <      31.09644659 Ry

     iteration # 94     ecut=    30.00 Ry     beta=0.70
     Davidson diagonalization with overlap
     ethr =  1.00E-02,  avg # of iterations =  8.0

     negative rho (up, down):  6.593E-02 0.000E+00

     total cpu time spent up to now is       13.2 secs

     total energy              =     -12.22314495 Ry
     Harris-Foulkes estimate   =     -92.52559556 Ry
     estimated scf accuracy    <      21.06747976 Ry

     iteration # 95     ecut=    30.00 Ry     beta=0.70
     Davidson diagonalization with overlap
     ethr =  1.00E-02,  avg # of iterations =  5.0

     negative rho (up, down):  1.465E-02 0.000E+00

     total cpu time spent up to now is       13.2 secs

     total energy              =      96.32635718 Ry
     Harris-Foulkes estimate   =   -3063.71089389 Ry
     estimated scf accuracy    <      21.03063673 Ry

     iteration # 96     ecut=    30.00 Ry     beta=0.70
     Davidson diagonalization with overlap
     ethr =  1.00E-02,  avg # of iterations = 11.0

     negative rho (up, down):  4.614E-03 0.000E+00

     total cpu time spent up to now is       13.3 secs

     total energy              =     -35.22054820 Ry
     Harris-Foulkes estimate   =     -38.55042441 Ry
     estimated scf accuracy    <      15.88965951 Ry

     iteration # 97     ecut=    30.00 Ry     beta=0.70
     Davidson diagonalization with overlap
     ethr =  1.00E-02,  avg # of iterations =  2.0

     negative rho (up, down):  4.027E-01 0.000E+00

     total cpu time spent up to now is       13.3 secs

     total energy              =     -43.53547261 Ry
     Harris-Foulkes estimate   =     -35.32302390 Ry
     estimated scf accuracy    <      10.08258169 Ry

     iteration # 98     ecut=    30.00 Ry     beta=0.70
     Davidson diagonalization with overlap
     ethr =  1.00E-02,  avg # of iterations =  7.0

     negative rho (up, down):  3.929E-01 0.000E+00

     total cpu time spent up to now is       13.4 secs

     total energy              =    8141.86915642 Ry
     Harris-Foulkes estimate   =   -2882.98046428 Ry
     estimated scf accuracy    <      27.11479042 Ry

     iteration # 99     ecut=    30.00 Ry     beta=0.70
     Davidson diagonalization with overlap
     ethr =  1.00E-02,  avg # of iterations =  6.0

     negative rho (up, down):  1.276E-01 0.000E+00

     total cpu time spent up to now is       13.4 secs

     total energy              =    -822.37286188 Ry
     Harris-Foulkes estimate   =   -1729.11327059 Ry
     estimated scf accuracy    <      31.72114482 Ry

     iteration #100     ecut=    30.00 Ry     beta=0.70
     Davidson diagonalization with overlap
     ethr =  1.00E-02,  avg # of iterations =  6.0

     negative rho (up, down):  1.311E-01 0.000E+00

     total cpu time spent up to now is       13.5 secs

     total energy              =      44.06373625 Ry
     Harris-Foulkes estimate   =   -3479.29192364 Ry
     estimated scf accuracy    <      23.63272342 Ry

     End of self-consistent calculation

     convergence NOT achieved after 100 iterations: stopping

     Writing output data file pwscf.save
 
     init_run     :      0.09s CPU      0.11s WALL (       1 calls)
     electrons    :      9.66s CPU     11.91s WALL (       6 calls)
     update_pot   :      0.58s CPU      0.88s WALL (       5 calls)
     forces       :      0.13s CPU      0.14s WALL (       5 calls)

     Called by init_run:
     wfcinit      :      0.01s CPU      0.02s WALL (       1 calls)
     potinit      :      0.02s CPU      0.03s WALL (       1 calls)

     Called by electrons:
     c_bands      :      4.74s CPU      4.95s WALL (     263 calls)
     sum_band     :      0.77s CPU      0.82s WALL (     263 calls)
     v_of_rho     :      1.92s CPU      2.09s WALL (     269 calls)
     mix_rho      :      1.85s CPU      3.16s WALL (     263 calls)

     Called by c_bands:
     init_us_2    :      0.03s CPU      0.03s WALL (     527 calls)
     cegterg      :      4.68s CPU      4.81s WALL (     263 calls)

     Called by sum_band:

     Called by *egterg:
     h_psi        :      3.91s CPU      4.01s WALL (    1337 calls)
     g_psi        :      0.04s CPU      0.04s WALL (    1073 calls)
     cdiaghg      :      0.28s CPU      0.28s WALL (    1331 calls)

     Called by h_psi:
     h_psi:pot    :      3.89s CPU      3.99s WALL (    1337 calls)
     h_psi:calbec :      0.05s CPU      0.07s WALL (    1337 calls)
     vloc_psi     :      3.82s CPU      3.90s WALL (    1337 calls)
     add_vuspsi   :      0.01s CPU      0.01s WALL (    1337 calls)

     General routines
     calbec       :      0.08s CPU      0.11s WALL (    1361 calls)
     fft          :      1.23s CPU      1.32s WALL (    2969 calls)
     fftw         :      3.94s CPU      4.05s WALL (   17500 calls)
     davcio       :      0.29s CPU      1.16s WALL (    4739 calls)
 
     Parallel routines
     fft_scatter  :      1.90s CPU      2.01s WALL (   20469 calls)
 
     PWSCF        :    10.67s CPU        13.62s WALL

 
   This run was terminated on:   7:10:57  14Feb2018            

=------------------------------------------------------------------------------=
   JOB DONE.
=------------------------------------------------------------------------------=
