
     Program PWSCF v.6.0 (svn rev. 13079) starts on 14Feb2018 at  8:15: 9 

     This program is part of the open-source Quantum ESPRESSO suite
     for quantum simulation of materials; please cite
         "P. Giannozzi et al., J. Phys.:Condens. Matter 21 395502 (2009);
          URL http://www.quantum-espresso.org", 
     in publications or presentations arising from this work. More details at
     http://www.quantum-espresso.org/quote

     Parallel version (MPI), running on    28 processors
     R & G space division:  proc/nbgrp/npool/nimage =      28
     Reading input from inputs/MD-H2O-2/313.in

     Current dimensions of program PWSCF are:
     Max number of different atomic species (ntypx) = 10
     Max number of k-points (npk) =  40000
     Max angular momentum in pseudopotentials (lmaxx) =  3

     Subspace diagonalization in iterative solution of the eigenvalue problem:
     a serial algorithm will be used

 
     Parallelization info
     --------------------
     sticks:   dense  smooth     PW     G-vecs:    dense   smooth      PW
     Min         136     136     33                 6338     6338     787
     Max         137     137     34                 6341     6341     792
     Sum        3809    3809    949               177509   177509   22119
 


     bravais-lattice index     =            1
     lattice parameter (alat)  =      20.0000  a.u.
     unit-cell volume          =    8000.0000 (a.u.)^3
     number of atoms/cell      =            3
     number of atomic types    =            2
     number of electrons       =         8.00
     number of Kohn-Sham states=            8
     kinetic-energy cutoff     =      30.0000  Ry
     charge density cutoff     =     120.0000  Ry
     convergence threshold     =      1.0E-08
     mixing beta               =       0.7000
     number of iterations used =            8  plain     mixing
     Exchange-correlation      = BLYP ( 1  3  1  3 0 0)
     nstep                     =         5000


     celldm(1)=  20.000000  celldm(2)=   0.000000  celldm(3)=   0.000000
     celldm(4)=   0.000000  celldm(5)=   0.000000  celldm(6)=   0.000000

     crystal axes: (cart. coord. in units of alat)
               a(1) = (   1.000000   0.000000   0.000000 )  
               a(2) = (   0.000000   1.000000   0.000000 )  
               a(3) = (   0.000000   0.000000   1.000000 )  

     reciprocal axes: (cart. coord. in units 2 pi/alat)
               b(1) = (  1.000000  0.000000  0.000000 )  
               b(2) = (  0.000000  1.000000  0.000000 )  
               b(3) = (  0.000000  0.000000  1.000000 )  


     PseudoPot. # 1 for  H read from file:
     ./H.blyp-hgh.UPF
     MD5 check sum: c576e69559cde411e611be972c763230
     Pseudo is Norm-conserving, Zval =  1.0
     Generated in analytical, separable form
     Using radial grid of  929 points,  0 beta functions with: 

     PseudoPot. # 2 for  O read from file:
     ./O.blyp-hgh.UPF
     MD5 check sum: d0b7156309aa9befef28faac7bc56342
     Pseudo is Norm-conserving, Zval =  6.0
     Generated in analytical, separable form
     Using radial grid of 1095 points,  1 beta functions with: 
                l(1) =   0

     atomic species   valence    mass     pseudopotential
        H              1.00     1.01000      H( 1.00)
        O              6.00    16.00000      O( 1.00)

     No symmetry found



   Cartesian axes

     site n.     atom                  positions (alat units)
         1           H   tau(   1) = (   0.4468287   0.8454083   0.2926560  )
         2           H   tau(   2) = (   0.0921133   0.5839208   0.7141701  )
         3           O   tau(   3) = (   0.5010543   0.8955588   0.3592253  )

     number of k points=     1  Marzari-Vanderbilt smearing, width (Ry)=  0.0250
                       cart. coord. in units 2pi/alat
        k(    1) = (   0.0000000   0.0000000   0.0000000), wk =   2.0000000

     Dense  grid:   177509 G-vectors     FFT dimensions: (  72,  72,  72)

     Estimated max dynamical RAM per process >       6.09Mb

     Estimated total allocated dynamical RAM >     170.64Mb

     Initial potential from superposition of free atoms
     Check: negative starting charge=   -0.350113

     starting charge    7.99998, renormalised to    8.00000

     negative rho (up, down):  3.501E-01 0.000E+00
     Starting wfc are    6 randomized atomic wfcs +    2 random wfc

     total cpu time spent up to now is        0.2 secs

     per-process dynamical memory:    18.8 Mb

     Self-consistent Calculation

     iteration #  1     ecut=    30.00 Ry     beta=0.70
     Davidson diagonalization with overlap
     ethr =  1.00E-02,  avg # of iterations =  6.0

     negative rho (up, down):  9.155E-02 0.000E+00

     total cpu time spent up to now is        0.3 secs

     total energy              =     -30.32753565 Ry
     Harris-Foulkes estimate   =     -32.24053119 Ry
     estimated scf accuracy    <       2.19518340 Ry

     iteration #  2     ecut=    30.00 Ry     beta=0.70
     Davidson diagonalization with overlap
     ethr =  1.00E-02,  avg # of iterations =  3.0

     negative rho (up, down):  6.658E-02 0.000E+00

     total cpu time spent up to now is        0.3 secs

     total energy              =     -32.30690639 Ry
     Harris-Foulkes estimate   =     -34.62328291 Ry
     estimated scf accuracy    <       5.63041008 Ry

     iteration #  3     ecut=    30.00 Ry     beta=0.70
     Davidson diagonalization with overlap
     ethr =  1.00E-02,  avg # of iterations =  2.0

     negative rho (up, down):  6.401E-02 0.000E+00

     total cpu time spent up to now is        0.3 secs

     total energy              =     -32.45250383 Ry
     Harris-Foulkes estimate   =     -32.54142302 Ry
     estimated scf accuracy    <       1.84160642 Ry

     iteration #  4     ecut=    30.00 Ry     beta=0.70
     Davidson diagonalization with overlap
     ethr =  1.00E-02,  avg # of iterations =  1.0

     negative rho (up, down):  1.170E-02 0.000E+00

     total cpu time spent up to now is        0.4 secs

     total energy              =     -31.28128262 Ry
     Harris-Foulkes estimate   =     -32.45282007 Ry
     estimated scf accuracy    <       1.71966670 Ry

     iteration #  5     ecut=    30.00 Ry     beta=0.70
     Davidson diagonalization with overlap
     ethr =  1.00E-02,  avg # of iterations =  4.0

     negative rho (up, down):  2.496E-02 0.000E+00

     total cpu time spent up to now is        0.4 secs

     total energy              =     -33.47487743 Ry
     Harris-Foulkes estimate   =     -33.29538679 Ry
     estimated scf accuracy    <       9.10696448 Ry

     iteration #  6     ecut=    30.00 Ry     beta=0.70
     Davidson diagonalization with overlap
     ethr =  1.00E-02,  avg # of iterations =  3.0

     negative rho (up, down):  3.287E-02 0.000E+00

     total cpu time spent up to now is        0.4 secs

     total energy              =     -33.49992094 Ry
     Harris-Foulkes estimate   =     -33.47952675 Ry
     estimated scf accuracy    <       9.68294005 Ry

     iteration #  7     ecut=    30.00 Ry     beta=0.70
     Davidson diagonalization with overlap
     ethr =  1.00E-02,  avg # of iterations =  1.0

     negative rho (up, down):  5.294E-02 0.000E+00

     total cpu time spent up to now is        0.5 secs

     total energy              =     -33.28968028 Ry
     Harris-Foulkes estimate   =     -33.50117905 Ry
     estimated scf accuracy    <       9.77473737 Ry

     iteration #  8     ecut=    30.00 Ry     beta=0.70
     Davidson diagonalization with overlap
     ethr =  1.00E-02,  avg # of iterations =  1.0

     negative rho (up, down):  3.189E-02 0.000E+00

     total cpu time spent up to now is        0.5 secs

     total energy              =     -33.59466572 Ry
     Harris-Foulkes estimate   =     -33.29152500 Ry
     estimated scf accuracy    <       9.23749087 Ry

     iteration #  9     ecut=    30.00 Ry     beta=0.70
     Davidson diagonalization with overlap
     ethr =  1.00E-02,  avg # of iterations =  1.0

     negative rho (up, down):  3.697E-02 0.000E+00

     total cpu time spent up to now is        0.5 secs

     total energy              =     -33.53413456 Ry
     Harris-Foulkes estimate   =     -33.60082555 Ry
     estimated scf accuracy    <       9.97270362 Ry

     iteration # 10     ecut=    30.00 Ry     beta=0.70
     Davidson diagonalization with overlap
     ethr =  1.00E-02,  avg # of iterations =  1.0

     negative rho (up, down):  2.017E-01 0.000E+00

     total cpu time spent up to now is        0.6 secs

     total energy              =     -32.22390358 Ry
     Harris-Foulkes estimate   =     -33.53460195 Ry
     estimated scf accuracy    <       9.89596108 Ry

     iteration # 11     ecut=    30.00 Ry     beta=0.70
     Davidson diagonalization with overlap
     ethr =  1.00E-02,  avg # of iterations =  2.0

     negative rho (up, down):  1.808E-01 0.000E+00

     total cpu time spent up to now is        0.6 secs

     total energy              =     -31.98356284 Ry
     Harris-Foulkes estimate   =     -32.59810045 Ry
     estimated scf accuracy    <       2.40346070 Ry

     iteration # 12     ecut=    30.00 Ry     beta=0.70
     Davidson diagonalization with overlap
     ethr =  1.00E-02,  avg # of iterations =  1.0

     negative rho (up, down):  1.634E-01 0.000E+00

     total cpu time spent up to now is        0.7 secs

     total energy              =     -31.58501437 Ry
     Harris-Foulkes estimate   =     -32.00871463 Ry
     estimated scf accuracy    <       1.34484650 Ry

     iteration # 13     ecut=    30.00 Ry     beta=0.70
     Davidson diagonalization with overlap
     ethr =  1.00E-02,  avg # of iterations =  1.0

     negative rho (up, down):  3.091E-01 0.000E+00

     total cpu time spent up to now is        0.7 secs

     total energy              =     -32.11938702 Ry
     Harris-Foulkes estimate   =     -32.25738571 Ry
     estimated scf accuracy    <       1.38755276 Ry

     iteration # 14     ecut=    30.00 Ry     beta=0.70
     Davidson diagonalization with overlap
     ethr =  1.00E-02,  avg # of iterations =  1.0

     negative rho (up, down):  4.518E-01 0.000E+00

     total cpu time spent up to now is        0.7 secs

     total energy              =     -32.06232288 Ry
     Harris-Foulkes estimate   =     -32.12075642 Ry
     estimated scf accuracy    <       1.20859622 Ry

     iteration # 15     ecut=    30.00 Ry     beta=0.70
     Davidson diagonalization with overlap
     ethr =  1.00E-02,  avg # of iterations =  1.0

     negative rho (up, down):  2.989E-02 0.000E+00

     total cpu time spent up to now is        0.8 secs

     total energy              =     -32.22190546 Ry
     Harris-Foulkes estimate   =     -32.06292162 Ry
     estimated scf accuracy    <       1.11927855 Ry

     iteration # 16     ecut=    30.00 Ry     beta=0.70
     Davidson diagonalization with overlap
     ethr =  1.00E-02,  avg # of iterations =  1.0

     negative rho (up, down):  4.197E-02 0.000E+00

     total cpu time spent up to now is        0.8 secs

     total energy              =     -32.25525669 Ry
     Harris-Foulkes estimate   =     -32.22475473 Ry
     estimated scf accuracy    <       1.35599707 Ry

     iteration # 17     ecut=    30.00 Ry     beta=0.70
     Davidson diagonalization with overlap
     ethr =  1.00E-02,  avg # of iterations =  1.0

     negative rho (up, down):  9.901E-03 0.000E+00

     total cpu time spent up to now is        0.8 secs

     total energy              =     -32.10809743 Ry
     Harris-Foulkes estimate   =     -32.25556859 Ry
     estimated scf accuracy    <       1.41483507 Ry

     iteration # 18     ecut=    30.00 Ry     beta=0.70
     Davidson diagonalization with overlap
     ethr =  1.00E-02,  avg # of iterations =  1.0

     negative rho (up, down):  1.599E-05 0.000E+00

     total cpu time spent up to now is        0.8 secs

     total energy              =     -32.01167592 Ry
     Harris-Foulkes estimate   =     -32.10981932 Ry
     estimated scf accuracy    <       1.17161294 Ry

     iteration # 19     ecut=    30.00 Ry     beta=0.70
     Davidson diagonalization with overlap
     ethr =  1.00E-02,  avg # of iterations =  1.0

     negative rho (up, down):  3.220E-03 0.000E+00

     total cpu time spent up to now is        0.9 secs

     total energy              =     -31.84251966 Ry
     Harris-Foulkes estimate   =     -32.01277486 Ry
     estimated scf accuracy    <       1.00681946 Ry

     iteration # 20     ecut=    30.00 Ry     beta=0.70
     Davidson diagonalization with overlap
     ethr =  1.00E-02,  avg # of iterations =  1.0

     negative rho (up, down):  3.478E-03 0.000E+00

     total cpu time spent up to now is        0.9 secs

     total energy              =     -31.92262039 Ry
     Harris-Foulkes estimate   =     -32.04120093 Ry
     estimated scf accuracy    <       1.32889201 Ry

     iteration # 21     ecut=    30.00 Ry     beta=0.70
     Davidson diagonalization with overlap
     ethr =  1.00E-02,  avg # of iterations =  1.0

     negative rho (up, down):  7.650E-04 0.000E+00

     total cpu time spent up to now is        0.9 secs

     total energy              =     -31.95357253 Ry
     Harris-Foulkes estimate   =     -31.94790525 Ry
     estimated scf accuracy    <       0.13965339 Ry

     iteration # 22     ecut=    30.00 Ry     beta=0.70
     Davidson diagonalization with overlap
     ethr =  1.75E-03,  avg # of iterations =  1.0

     negative rho (up, down):  5.971E-04 0.000E+00

     total cpu time spent up to now is        1.0 secs

     total energy              =     -31.94728399 Ry
     Harris-Foulkes estimate   =     -31.95662388 Ry
     estimated scf accuracy    <       0.56425810 Ry

     iteration # 23     ecut=    30.00 Ry     beta=0.70
     Davidson diagonalization with overlap
     ethr =  1.75E-03,  avg # of iterations =  1.0

     negative rho (up, down):  5.826E-04 0.000E+00

     total cpu time spent up to now is        1.0 secs

     total energy              =     -31.94781149 Ry
     Harris-Foulkes estimate   =     -31.94898328 Ry
     estimated scf accuracy    <       0.20039517 Ry

     iteration # 24     ecut=    30.00 Ry     beta=0.70
     Davidson diagonalization with overlap
     ethr =  1.75E-03,  avg # of iterations =  1.0

     negative rho (up, down):  1.730E-04 0.000E+00

     total cpu time spent up to now is        1.0 secs

     total energy              =     -31.94024213 Ry
     Harris-Foulkes estimate   =     -31.94791194 Ry
     estimated scf accuracy    <       0.13549473 Ry

     iteration # 25     ecut=    30.00 Ry     beta=0.70
     Davidson diagonalization with overlap
     ethr =  1.69E-03,  avg # of iterations =  1.0

     negative rho (up, down):  3.829E-05 0.000E+00

     total cpu time spent up to now is        1.1 secs

     total energy              =     -31.94245719 Ry
     Harris-Foulkes estimate   =     -31.94849159 Ry
     estimated scf accuracy    <       0.20362821 Ry

     iteration # 26     ecut=    30.00 Ry     beta=0.70
     Davidson diagonalization with overlap
     ethr =  1.69E-03,  avg # of iterations =  1.0

     negative rho (up, down):  4.687E-05 0.000E+00

     total cpu time spent up to now is        1.1 secs

     total energy              =     -31.94489014 Ry
     Harris-Foulkes estimate   =     -31.94610221 Ry
     estimated scf accuracy    <       0.00833869 Ry

     iteration # 27     ecut=    30.00 Ry     beta=0.70
     Davidson diagonalization with overlap
     ethr =  1.04E-04,  avg # of iterations =  1.0

     negative rho (up, down):  5.443E-05 0.000E+00

     total cpu time spent up to now is        1.1 secs

     total energy              =     -31.94595127 Ry
     Harris-Foulkes estimate   =     -31.94878263 Ry
     estimated scf accuracy    <       0.22686175 Ry

     iteration # 28     ecut=    30.00 Ry     beta=0.70
     Davidson diagonalization with overlap
     ethr =  1.04E-04,  avg # of iterations =  1.0

     negative rho (up, down):  1.199E-06 0.000E+00

     total cpu time spent up to now is        1.2 secs

     total energy              =     -31.94531670 Ry
     Harris-Foulkes estimate   =     -31.94666879 Ry
     estimated scf accuracy    <       0.05390969 Ry

     iteration # 29     ecut=    30.00 Ry     beta=0.70
     Davidson diagonalization with overlap
     ethr =  1.04E-04,  avg # of iterations =  1.0

     total cpu time spent up to now is        1.2 secs

     total energy              =     -31.94600523 Ry
     Harris-Foulkes estimate   =     -31.94600511 Ry
     estimated scf accuracy    <       0.00001738 Ry

     iteration # 30     ecut=    30.00 Ry     beta=0.70
     Davidson diagonalization with overlap
     ethr =  2.17E-07,  avg # of iterations = 11.0

     negative rho (up, down):  2.055E-08 0.000E+00

     total cpu time spent up to now is        1.3 secs

     total energy              =     -31.94600560 Ry
     Harris-Foulkes estimate   =     -31.94600602 Ry
     estimated scf accuracy    <       0.00000971 Ry

     iteration # 31     ecut=    30.00 Ry     beta=0.70
     Davidson diagonalization with overlap
     ethr =  1.21E-07,  avg # of iterations =  1.0

     total cpu time spent up to now is        1.3 secs

     total energy              =     -31.94600585 Ry
     Harris-Foulkes estimate   =     -31.94600596 Ry
     estimated scf accuracy    <       0.00000478 Ry

     iteration # 32     ecut=    30.00 Ry     beta=0.70
     Davidson diagonalization with overlap
     ethr =  5.97E-08,  avg # of iterations =  1.0

     total cpu time spent up to now is        1.3 secs

     total energy              =     -31.94600592 Ry
     Harris-Foulkes estimate   =     -31.94600595 Ry
     estimated scf accuracy    <       0.00000020 Ry

     iteration # 33     ecut=    30.00 Ry     beta=0.70
     Davidson diagonalization with overlap
     ethr =  2.53E-09,  avg # of iterations =  1.0

     total cpu time spent up to now is        1.3 secs

     End of self-consistent calculation

          k = 0.0000 0.0000 0.0000 ( 22119 PWs)   bands (ev):

   -24.7854 -10.6312  -7.0430  -7.0423  -6.9034  -0.6938   0.3528   0.8030

     the Fermi energy is    -6.8723 ev

!    total energy              =     -31.94600593 Ry
     Harris-Foulkes estimate   =     -31.94600592 Ry
     estimated scf accuracy    <          9.6E-09 Ry

     convergence has been achieved in  33 iterations

     Forces acting on atoms (Ry/au):

     atom    1 type  1   force =    -0.00950240   -0.00864407   -0.01169900
     atom    2 type  1   force =    -0.00007182   -0.00021963    0.00032285
     atom    3 type  2   force =     0.00957422    0.00886370    0.01137615

     Total force =     0.024529     Total SCF correction =     0.000102

     Molecular Dynamics Calculation

     Starting temperature  =  1000.00 K

     temperature is controlled by Andersen thermostat
     Collision frequency = 1.0000/timestep
     mass H                =     1.01
     mass O                =    16.00
     Time step             =   100.00 a.u.,  4.8378 femto-seconds

     Entering Dynamics:    iteration =     1
                           time      =   0.0048 pico-seconds


     Andersen thermostat:    3 collisions

ATOMIC_POSITIONS (bohr)
H        8.628632572  17.158517905   5.875918963
H        2.119950668  12.041596102  13.950354893
O       10.022995958  17.872446792   7.204090414


     kinetic energy (Ekin) =     0.02371804 Ry
     temperature           =  1248.25905378 K 
     Ekin + Etot (const)   =   -31.92228789 Ry

     Linear momentum :   -0.0000000000   -0.0000000000   -0.0000000000

     Writing output data file pwscf.save
     Check: negative starting charge=   -0.350113
     NEW-OLD atomic charge density approx. for the potential
     Check: negative starting charge=   -0.349333

     negative rho (up, down):  8.866E-02 0.000E+00

     total cpu time spent up to now is        1.6 secs

     per-process dynamical memory:    20.4 Mb

     Self-consistent Calculation

     iteration #  1     ecut=    30.00 Ry     beta=0.70
     Davidson diagonalization with overlap
     c_bands:  1 eigenvalues not converged
     ethr =  1.00E-06,  avg # of iterations = 20.0

     negative rho (up, down):  2.159E-02 0.000E+00

     total cpu time spent up to now is        1.8 secs

     total energy              =     -31.91320975 Ry
     Harris-Foulkes estimate   =     -31.87762667 Ry
     estimated scf accuracy    <       0.01853676 Ry

     iteration #  2     ecut=    30.00 Ry     beta=0.70
     Davidson diagonalization with overlap
     ethr =  2.32E-04,  avg # of iterations =  4.0

     negative rho (up, down):  1.985E-02 0.000E+00

     total cpu time spent up to now is        1.8 secs

     total energy              =     -31.91577425 Ry
     Harris-Foulkes estimate   =     -32.05499093 Ry
     estimated scf accuracy    <       1.14401361 Ry

     iteration #  3     ecut=    30.00 Ry     beta=0.70
     Davidson diagonalization with overlap
     ethr =  2.32E-04,  avg # of iterations =  2.0

     negative rho (up, down):  6.548E-03 0.000E+00

     total cpu time spent up to now is        1.8 secs

     total energy              =     -31.92790078 Ry
     Harris-Foulkes estimate   =     -31.92808602 Ry
     estimated scf accuracy    <       0.09228016 Ry

     iteration #  4     ecut=    30.00 Ry     beta=0.70
     Davidson diagonalization with overlap
     ethr =  2.32E-04,  avg # of iterations =  1.0

     negative rho (up, down):  2.309E-03 0.000E+00

     total cpu time spent up to now is        1.8 secs

     total energy              =     -31.93632350 Ry
     Harris-Foulkes estimate   =     -31.96774250 Ry
     estimated scf accuracy    <       1.55257169 Ry

     iteration #  5     ecut=    30.00 Ry     beta=0.70
     Davidson diagonalization with overlap
     ethr =  2.32E-04,  avg # of iterations =  4.0

     negative rho (up, down):  5.260E-04 0.000E+00

     total cpu time spent up to now is        1.9 secs

     total energy              =     -31.94381399 Ry
     Harris-Foulkes estimate   =     -31.94619658 Ry
     estimated scf accuracy    <       0.15483339 Ry

     iteration #  6     ecut=    30.00 Ry     beta=0.70
     Davidson diagonalization with overlap
     ethr =  2.32E-04,  avg # of iterations =  1.0

     negative rho (up, down):  1.674E-06 0.000E+00

     total cpu time spent up to now is        1.9 secs

     total energy              =     -31.94515432 Ry
     Harris-Foulkes estimate   =     -31.94537431 Ry
     estimated scf accuracy    <       0.00168621 Ry

     iteration #  7     ecut=    30.00 Ry     beta=0.70
     Davidson diagonalization with overlap
     ethr =  2.11E-05,  avg # of iterations =  8.0

     negative rho (up, down):  5.964E-08 0.000E+00

     total cpu time spent up to now is        2.0 secs

     total energy              =     -31.94469274 Ry
     Harris-Foulkes estimate   =     -31.94593073 Ry
     estimated scf accuracy    <       0.04056437 Ry

     iteration #  8     ecut=    30.00 Ry     beta=0.70
     Davidson diagonalization with overlap
     ethr =  2.11E-05,  avg # of iterations =  1.0

     total cpu time spent up to now is        2.0 secs

     total energy              =     -31.94542017 Ry
     Harris-Foulkes estimate   =     -31.94539714 Ry
     estimated scf accuracy    <       0.00108885 Ry

     iteration #  9     ecut=    30.00 Ry     beta=0.70
     Davidson diagonalization with overlap
     ethr =  1.36E-05,  avg # of iterations =  1.0

     total cpu time spent up to now is        2.0 secs

     total energy              =     -31.94531943 Ry
     Harris-Foulkes estimate   =     -31.94543018 Ry
     estimated scf accuracy    <       0.00373353 Ry

     iteration # 10     ecut=    30.00 Ry     beta=0.70
     Davidson diagonalization with overlap
     ethr =  1.36E-05,  avg # of iterations =  1.0

     total cpu time spent up to now is        2.1 secs

     total energy              =     -31.94538333 Ry
     Harris-Foulkes estimate   =     -31.94538415 Ry
     estimated scf accuracy    <       0.00011338 Ry

     iteration # 11     ecut=    30.00 Ry     beta=0.70
     Davidson diagonalization with overlap
     ethr =  1.42E-06,  avg # of iterations =  1.0

     total cpu time spent up to now is        2.1 secs

     total energy              =     -31.94538196 Ry
     Harris-Foulkes estimate   =     -31.94538342 Ry
     estimated scf accuracy    <       0.00006498 Ry

     iteration # 12     ecut=    30.00 Ry     beta=0.70
     Davidson diagonalization with overlap
     ethr =  8.12E-07,  avg # of iterations =  1.0

     total cpu time spent up to now is        2.1 secs

     total energy              =     -31.94538251 Ry
     Harris-Foulkes estimate   =     -31.94538256 Ry
     estimated scf accuracy    <       0.00000144 Ry

     iteration # 13     ecut=    30.00 Ry     beta=0.70
     Davidson diagonalization with overlap
     ethr =  1.79E-08,  avg # of iterations =  1.0

     total cpu time spent up to now is        2.2 secs

     total energy              =     -31.94538251 Ry
     Harris-Foulkes estimate   =     -31.94538252 Ry
     estimated scf accuracy    <       0.00000012 Ry

     iteration # 14     ecut=    30.00 Ry     beta=0.70
     Davidson diagonalization with overlap
     ethr =  1.45E-09,  avg # of iterations =  1.0

     total cpu time spent up to now is        2.2 secs

     End of self-consistent calculation

          k = 0.0000 0.0000 0.0000 ( 22119 PWs)   bands (ev):

   -24.6316 -10.5350  -7.0277  -7.0271  -6.8885  -0.7771   0.3036   0.8071

     the Fermi energy is    -6.8572 ev

!    total energy              =     -31.94538249 Ry
     Harris-Foulkes estimate   =     -31.94538252 Ry
     estimated scf accuracy    <          9.5E-09 Ry

     convergence has been achieved in  14 iterations

     Forces acting on atoms (Ry/au):

     atom    1 type  1   force =     0.02774394    0.01428988    0.02653514
     atom    2 type  1   force =    -0.00004791   -0.00070404    0.00036005
     atom    3 type  2   force =    -0.02769604   -0.01358585   -0.02689519

     Total force =     0.057911     Total SCF correction =     0.000041

     Entering Dynamics:    iteration =     2
                           time      =   0.0097 pico-seconds


     Andersen thermostat:    3 collisions

ATOMIC_POSITIONS (bohr)
H        8.749727178  17.656850067   6.128123361
H        2.217490491  11.889409707  13.894406076
O       10.009194660  17.850596341   7.191701781


     kinetic energy (Ekin) =     0.01355636 Ry
     temperature           =   713.45902171 K 
     Ekin + Etot (const)   =   -31.93182614 Ry
     Message from routine dynamics:
     Total linear momentum <> 0

     Linear momentum :    0.1925095994   -0.4160248149   -0.1875612989

     Writing output data file pwscf.save

     first order wave-functions extrapolation
     Check: negative starting charge=   -0.349333
     first order charge density extrapolation
     Check: negative starting charge=   -0.350934

     negative rho (up, down):  1.055E-01 0.000E+00

     total cpu time spent up to now is        2.5 secs

     per-process dynamical memory:    20.4 Mb

     Self-consistent Calculation

     iteration #  1     ecut=    30.00 Ry     beta=0.70
     Davidson diagonalization with overlap
     c_bands:  1 eigenvalues not converged
     ethr =  1.00E-06,  avg # of iterations = 20.0

     negative rho (up, down):  2.594E-02 0.000E+00

     total cpu time spent up to now is        2.6 secs

     total energy              =     -31.10369112 Ry
     Harris-Foulkes estimate   =     -31.85556769 Ry
     estimated scf accuracy    <       1.02313798 Ry

     iteration #  2     ecut=    30.00 Ry     beta=0.70
     Davidson diagonalization with overlap
     ethr =  1.00E-02,  avg # of iterations =  3.0

     negative rho (up, down):  6.179E-04 0.000E+00

     total cpu time spent up to now is        2.6 secs

     total energy              =     -31.27713519 Ry
     Harris-Foulkes estimate   =     -34.17402043 Ry
     estimated scf accuracy    <      10.65260974 Ry

     iteration #  3     ecut=    30.00 Ry     beta=0.70
     Davidson diagonalization with overlap
     ethr =  1.00E-02,  avg # of iterations =  2.0

     negative rho (up, down):  1.184E-05 0.000E+00

     total cpu time spent up to now is        2.7 secs

     total energy              =     -31.10686048 Ry
     Harris-Foulkes estimate   =     -31.36060944 Ry
     estimated scf accuracy    <       5.94670502 Ry

     iteration #  4     ecut=    30.00 Ry     beta=0.70
     Davidson diagonalization with overlap
     ethr =  1.00E-02,  avg # of iterations =  5.0

     negative rho (up, down):  1.677E-02 0.000E+00

     total cpu time spent up to now is        2.7 secs

     total energy              =     -32.04592963 Ry
     Harris-Foulkes estimate   =     -32.06313820 Ry
     estimated scf accuracy    <       1.57404146 Ry

     iteration #  5     ecut=    30.00 Ry     beta=0.70
     Davidson diagonalization with overlap
     ethr =  1.00E-02,  avg # of iterations =  1.0

     negative rho (up, down):  2.164E-01 0.000E+00

     total cpu time spent up to now is        2.7 secs

     total energy              =     -31.97210672 Ry
     Harris-Foulkes estimate   =     -32.05069307 Ry
     estimated scf accuracy    <       1.54554607 Ry

     iteration #  6     ecut=    30.00 Ry     beta=0.70
     Davidson diagonalization with overlap
     ethr =  1.00E-02,  avg # of iterations =  1.0

     negative rho (up, down):  2.843E-01 0.000E+00

     total cpu time spent up to now is        2.8 secs

     total energy              =     -31.94121201 Ry
     Harris-Foulkes estimate   =     -31.98047220 Ry
     estimated scf accuracy    <       1.46262603 Ry

     iteration #  7     ecut=    30.00 Ry     beta=0.70
     Davidson diagonalization with overlap
     ethr =  1.00E-02,  avg # of iterations =  1.0

     negative rho (up, down):  4.293E-01 0.000E+00

     total cpu time spent up to now is        2.8 secs

     total energy              =     -31.86499011 Ry
     Harris-Foulkes estimate   =     -31.94207782 Ry
     estimated scf accuracy    <       1.39820568 Ry

     iteration #  8     ecut=    30.00 Ry     beta=0.70
     Davidson diagonalization with overlap
     ethr =  1.00E-02,  avg # of iterations =  1.0

     negative rho (up, down):  5.441E-01 0.000E+00

     total cpu time spent up to now is        2.8 secs

     total energy              =     -31.94987618 Ry
     Harris-Foulkes estimate   =     -31.88349393 Ry
     estimated scf accuracy    <       0.09186796 Ry

     iteration #  9     ecut=    30.00 Ry     beta=0.70
     Davidson diagonalization with overlap
     ethr =  1.15E-03,  avg # of iterations =  2.0

     negative rho (up, down):  5.638E-01 0.000E+00

     total cpu time spent up to now is        2.9 secs

     total energy              =     -32.01907658 Ry
     Harris-Foulkes estimate   =     -32.03955920 Ry
     estimated scf accuracy    <       1.01053807 Ry

     iteration # 10     ecut=    30.00 Ry     beta=0.70
     Davidson diagonalization with overlap
     ethr =  1.15E-03,  avg # of iterations =  1.0

     negative rho (up, down):  5.242E-01 0.000E+00

     total cpu time spent up to now is        2.9 secs

     total energy              =     -31.99398055 Ry
     Harris-Foulkes estimate   =     -32.02046526 Ry
     estimated scf accuracy    <       0.95744176 Ry

     iteration # 11     ecut=    30.00 Ry     beta=0.70
     Davidson diagonalization with overlap
     ethr =  1.15E-03,  avg # of iterations =  1.0

     negative rho (up, down):  4.156E-01 0.000E+00

     total cpu time spent up to now is        2.9 secs

     total energy              =     -31.93298591 Ry
     Harris-Foulkes estimate   =     -31.99415715 Ry
     estimated scf accuracy    <       0.92182878 Ry

     iteration # 12     ecut=    30.00 Ry     beta=0.70
     Davidson diagonalization with overlap
     ethr =  1.15E-03,  avg # of iterations =  1.0

     negative rho (up, down):  3.435E-03 0.000E+00

     total cpu time spent up to now is        3.0 secs

     total energy              =     -31.80079411 Ry
     Harris-Foulkes estimate   =     -31.93406469 Ry
     estimated scf accuracy    <       0.64664168 Ry

     iteration # 13     ecut=    30.00 Ry     beta=0.70
     Davidson diagonalization with overlap
     ethr =  1.15E-03,  avg # of iterations =  2.0

     negative rho (up, down):  5.194E-03 0.000E+00

     total cpu time spent up to now is        3.0 secs

     total energy              =     -31.88436998 Ry
     Harris-Foulkes estimate   =     -31.93922358 Ry
     estimated scf accuracy    <       1.34790048 Ry

     iteration # 14     ecut=    30.00 Ry     beta=0.70
     Davidson diagonalization with overlap
     ethr =  1.15E-03,  avg # of iterations =  1.0

     negative rho (up, down):  1.638E-02 0.000E+00

     total cpu time spent up to now is        3.0 secs

     total energy              =     -31.81548834 Ry
     Harris-Foulkes estimate   =     -31.88242665 Ry
     estimated scf accuracy    <       0.81264114 Ry

     iteration # 15     ecut=    30.00 Ry     beta=0.70
     Davidson diagonalization with overlap
     ethr =  1.15E-03,  avg # of iterations =  1.0

     negative rho (up, down):  1.733E-03 0.000E+00

     total cpu time spent up to now is        3.1 secs

     total energy              =     -31.82819236 Ry
     Harris-Foulkes estimate   =     -31.90760750 Ry
     estimated scf accuracy    <       0.94921902 Ry

     iteration # 16     ecut=    30.00 Ry     beta=0.70
     Davidson diagonalization with overlap
     ethr =  1.15E-03,  avg # of iterations =  1.0

     negative rho (up, down):  4.416E-04 0.000E+00

     total cpu time spent up to now is        3.1 secs

     total energy              =     -31.92951611 Ry
     Harris-Foulkes estimate   =     -31.88971800 Ry
     estimated scf accuracy    <       1.24390247 Ry

     iteration # 17     ecut=    30.00 Ry     beta=0.70
     Davidson diagonalization with overlap
     ethr =  1.15E-03,  avg # of iterations =  1.0

     negative rho (up, down):  7.883E-04 0.000E+00

     total cpu time spent up to now is        3.1 secs

     total energy              =     -31.94033762 Ry
     Harris-Foulkes estimate   =     -31.93356564 Ry
     estimated scf accuracy    <       1.37969542 Ry

     iteration # 18     ecut=    30.00 Ry     beta=0.70
     Davidson diagonalization with overlap
     ethr =  1.15E-03,  avg # of iterations =  1.0

     negative rho (up, down):  7.958E-04 0.000E+00

     total cpu time spent up to now is        3.2 secs

     total energy              =     -31.95513629 Ry
     Harris-Foulkes estimate   =     -31.94047532 Ry
     estimated scf accuracy    <       1.34423241 Ry

     iteration # 19     ecut=    30.00 Ry     beta=0.70
     Davidson diagonalization with overlap
     ethr =  1.15E-03,  avg # of iterations =  1.0

     negative rho (up, down):  9.306E-04 0.000E+00

     total cpu time spent up to now is        3.2 secs

     total energy              =     -31.95520529 Ry
     Harris-Foulkes estimate   =     -31.95505059 Ry
     estimated scf accuracy    <       1.33569204 Ry

     iteration # 20     ecut=    30.00 Ry     beta=0.70
     Davidson diagonalization with overlap
     ethr =  1.15E-03,  avg # of iterations =  1.0

     negative rho (up, down):  4.802E-03 0.000E+00

     total cpu time spent up to now is        3.2 secs

     total energy              =     -31.95019244 Ry
     Harris-Foulkes estimate   =     -31.95520780 Ry
     estimated scf accuracy    <       1.33722552 Ry

     iteration # 21     ecut=    30.00 Ry     beta=0.70
     Davidson diagonalization with overlap
     ethr =  1.15E-03,  avg # of iterations =  1.0

     negative rho (up, down):  2.087E-03 0.000E+00

     total cpu time spent up to now is        3.3 secs

     total energy              =     -31.90449695 Ry
     Harris-Foulkes estimate   =     -31.95022687 Ry
     estimated scf accuracy    <       1.32893748 Ry

     iteration # 22     ecut=    30.00 Ry     beta=0.70
     Davidson diagonalization with overlap
     ethr =  1.15E-03,  avg # of iterations =  1.0

     negative rho (up, down):  1.307E-03 0.000E+00

     total cpu time spent up to now is        3.3 secs

     total energy              =     -31.87993132 Ry
     Harris-Foulkes estimate   =     -31.90172662 Ry
     estimated scf accuracy    <       1.62051234 Ry

     iteration # 23     ecut=    30.00 Ry     beta=0.70
     Davidson diagonalization with overlap
     ethr =  1.15E-03,  avg # of iterations =  1.0

     negative rho (up, down):  7.948E-05 0.000E+00

     total cpu time spent up to now is        3.3 secs

     total energy              =     -31.82525330 Ry
     Harris-Foulkes estimate   =     -31.88240822 Ry
     estimated scf accuracy    <       0.80736611 Ry

     iteration # 24     ecut=    30.00 Ry     beta=0.70
     Davidson diagonalization with overlap
     ethr =  1.15E-03,  avg # of iterations =  1.0

     negative rho (up, down):  7.757E-06 0.000E+00

     total cpu time spent up to now is        3.4 secs

     total energy              =     -31.86718486 Ry
     Harris-Foulkes estimate   =     -31.89672734 Ry
     estimated scf accuracy    <       0.85726169 Ry

     iteration # 25     ecut=    30.00 Ry     beta=0.70
     Davidson diagonalization with overlap
     ethr =  1.15E-03,  avg # of iterations =  1.0

     negative rho (up, down):  6.644E-06 0.000E+00

     total cpu time spent up to now is        3.4 secs

     total energy              =     -31.86700069 Ry
     Harris-Foulkes estimate   =     -31.87358518 Ry
     estimated scf accuracy    <       0.12524913 Ry

     iteration # 26     ecut=    30.00 Ry     beta=0.70
     Davidson diagonalization with overlap
     ethr =  1.15E-03,  avg # of iterations =  1.0

     negative rho (up, down):  2.967E-06 0.000E+00

     total cpu time spent up to now is        3.4 secs

     total energy              =     -31.87211752 Ry
     Harris-Foulkes estimate   =     -31.87347703 Ry
     estimated scf accuracy    <       0.13644406 Ry

     iteration # 27     ecut=    30.00 Ry     beta=0.70
     Davidson diagonalization with overlap
     ethr =  1.15E-03,  avg # of iterations =  1.0

     negative rho (up, down):  3.317E-07 0.000E+00

     total cpu time spent up to now is        3.5 secs

     total energy              =     -31.87135452 Ry
     Harris-Foulkes estimate   =     -31.87239491 Ry
     estimated scf accuracy    <       0.04760449 Ry

     iteration # 28     ecut=    30.00 Ry     beta=0.70
     Davidson diagonalization with overlap
     ethr =  5.95E-04,  avg # of iterations =  1.0

     total cpu time spent up to now is        3.5 secs

     total energy              =     -31.87176119 Ry
     Harris-Foulkes estimate   =     -31.87181550 Ry
     estimated scf accuracy    <       0.00061646 Ry

     iteration # 29     ecut=    30.00 Ry     beta=0.70
     Davidson diagonalization with overlap
     ethr =  7.71E-06,  avg # of iterations =  6.0

     total cpu time spent up to now is        3.6 secs

     total energy              =     -31.87181910 Ry
     Harris-Foulkes estimate   =     -31.87186328 Ry
     estimated scf accuracy    <       0.00417231 Ry

     iteration # 30     ecut=    30.00 Ry     beta=0.70
     Davidson diagonalization with overlap
     ethr =  7.71E-06,  avg # of iterations =  1.0

     total cpu time spent up to now is        3.6 secs

     total energy              =     -31.87178980 Ry
     Harris-Foulkes estimate   =     -31.87182786 Ry
     estimated scf accuracy    <       0.00148480 Ry

     iteration # 31     ecut=    30.00 Ry     beta=0.70
     Davidson diagonalization with overlap
     ethr =  7.71E-06,  avg # of iterations =  1.0

     total cpu time spent up to now is        3.7 secs

     total energy              =     -31.87180800 Ry
     Harris-Foulkes estimate   =     -31.87180794 Ry
     estimated scf accuracy    <       0.00000045 Ry

     iteration # 32     ecut=    30.00 Ry     beta=0.70
     Davidson diagonalization with overlap
     ethr =  5.63E-09,  avg # of iterations =  1.0

     total cpu time spent up to now is        3.7 secs

     total energy              =     -31.87180814 Ry
     Harris-Foulkes estimate   =     -31.87180808 Ry
     estimated scf accuracy    <       0.00000259 Ry

     iteration # 33     ecut=    30.00 Ry     beta=0.70
     Davidson diagonalization with overlap
     ethr =  5.63E-09,  avg # of iterations =  1.0

     total cpu time spent up to now is        3.7 secs

     total energy              =     -31.87180810 Ry
     Harris-Foulkes estimate   =     -31.87180814 Ry
     estimated scf accuracy    <       0.00000075 Ry

     iteration # 34     ecut=    30.00 Ry     beta=0.70
     Davidson diagonalization with overlap
     ethr =  5.63E-09,  avg # of iterations =  1.0

     total cpu time spent up to now is        3.8 secs

     total energy              =     -31.87180811 Ry
     Harris-Foulkes estimate   =     -31.87180811 Ry
     estimated scf accuracy    <       0.00000002 Ry

     iteration # 35     ecut=    30.00 Ry     beta=0.70
     Davidson diagonalization with overlap
     ethr =  2.49E-10,  avg # of iterations =  1.0

     total cpu time spent up to now is        3.8 secs

     End of self-consistent calculation

          k = 0.0000 0.0000 0.0000 ( 22119 PWs)   bands (ev):

   -25.9053 -11.0191  -7.1402  -7.1396  -6.9965  -0.4701   0.4961   0.8147

     the Fermi energy is    -6.9681 ev

!    total energy              =     -31.87180811 Ry
     Harris-Foulkes estimate   =     -31.87180811 Ry
     estimated scf accuracy    <          1.7E-10 Ry

     convergence has been achieved in  35 iterations

     Forces acting on atoms (Ry/au):

     atom    1 type  1   force =    -0.37360173   -0.05836007   -0.31504082
     atom    2 type  1   force =     0.00013980   -0.00074510    0.00055202
     atom    3 type  2   force =     0.37346192    0.05910517    0.31448880

     Total force =     0.695777     Total SCF correction =     0.000072

     Entering Dynamics:    iteration =     3
                           time      =   0.0145 pico-seconds


     Andersen thermostat:    3 collisions

ATOMIC_POSITIONS (bohr)
H        4.379415045  16.859686783   2.916837006
H        1.883929613  12.029159428  13.729324413
O       10.306126643  17.892095572   7.404835012


     kinetic energy (Ekin) =     0.40323965 Ry
     temperature           = 21222.14292116 K 
     Ekin + Etot (const)   =   -31.46856846 Ry
     Message from routine dynamics:
     Total linear momentum <> 0

     Linear momentum :    0.0500535649   -0.1050764054    0.0139649389

     Writing output data file pwscf.save

     second order wave-functions extrapolation
     Check: negative starting charge=   -0.350934
     second order charge density extrapolation
     Check: negative starting charge=   -0.346288

     negative rho (up, down):  8.718E-01 0.000E+00

     total cpu time spent up to now is        4.1 secs

     per-process dynamical memory:    20.4 Mb

     Self-consistent Calculation

     iteration #  1     ecut=    30.00 Ry     beta=0.70
     Davidson diagonalization with overlap
     ethr =  1.00E-06,  avg # of iterations = 16.0

     negative rho (up, down):  1.392E-01 0.000E+00

     total cpu time spent up to now is        4.3 secs

     total energy              =      95.21751274 Ry
     Harris-Foulkes estimate   =    -347.81120580 Ry
     estimated scf accuracy    <      35.74705132 Ry

     iteration #  2     ecut=    30.00 Ry     beta=0.70
     Davidson diagonalization with overlap
     ethr =  1.00E-02,  avg # of iterations =  8.0

     negative rho (up, down):  6.361E-02 0.000E+00

     total cpu time spent up to now is        4.3 secs

     total energy              =      77.30413588 Ry
     Harris-Foulkes estimate   =    -205.66127265 Ry
     estimated scf accuracy    <      33.94859748 Ry

     iteration #  3     ecut=    30.00 Ry     beta=0.70
     Davidson diagonalization with overlap
     ethr =  1.00E-02,  avg # of iterations =  7.0

     negative rho (up, down):  5.699E-02 0.000E+00

     total cpu time spent up to now is        4.4 secs

     total energy              =     -37.53341362 Ry
     Harris-Foulkes estimate   =     -51.40751304 Ry
     estimated scf accuracy    <      32.48749321 Ry

     iteration #  4     ecut=    30.00 Ry     beta=0.70
     Davidson diagonalization with overlap
     ethr =  1.00E-02,  avg # of iterations =  3.0

     negative rho (up, down):  4.827E-02 0.000E+00

     total cpu time spent up to now is        4.4 secs

     total energy              =     -35.09126708 Ry
     Harris-Foulkes estimate   =     -38.07837055 Ry
     estimated scf accuracy    <      10.73057933 Ry

     iteration #  5     ecut=    30.00 Ry     beta=0.70
     Davidson diagonalization with overlap
     ethr =  1.00E-02,  avg # of iterations =  4.0

     negative rho (up, down):  4.043E-02 0.000E+00

     total cpu time spent up to now is        4.4 secs

     total energy              =     -32.51921840 Ry
     Harris-Foulkes estimate   =     -35.39478393 Ry
     estimated scf accuracy    <       9.61939030 Ry

     iteration #  6     ecut=    30.00 Ry     beta=0.70
     Davidson diagonalization with overlap
     ethr =  1.00E-02,  avg # of iterations =  2.0

     negative rho (up, down):  3.682E-02 0.000E+00

     total cpu time spent up to now is        4.5 secs

     total energy              =     -32.51271243 Ry
     Harris-Foulkes estimate   =     -33.27363734 Ry
     estimated scf accuracy    <       6.50261506 Ry

     iteration #  7     ecut=    30.00 Ry     beta=0.70
     Davidson diagonalization with overlap
     ethr =  1.00E-02,  avg # of iterations =  1.0

     negative rho (up, down):  2.912E-02 0.000E+00

     total cpu time spent up to now is        4.5 secs

     total energy              =     -32.42569937 Ry
     Harris-Foulkes estimate   =     -33.29783283 Ry
     estimated scf accuracy    <       4.18071893 Ry

     iteration #  8     ecut=    30.00 Ry     beta=0.70
     Davidson diagonalization with overlap
     ethr =  1.00E-02,  avg # of iterations =  1.0

     negative rho (up, down):  4.773E-02 0.000E+00

     total cpu time spent up to now is        4.5 secs

     total energy              =     -31.47941014 Ry
     Harris-Foulkes estimate   =     -32.44658273 Ry
     estimated scf accuracy    <       3.79932502 Ry

     iteration #  9     ecut=    30.00 Ry     beta=0.70
     Davidson diagonalization with overlap
     ethr =  1.00E-02,  avg # of iterations =  4.0

     negative rho (up, down):  4.836E-02 0.000E+00

     total cpu time spent up to now is        4.6 secs

     total energy              =     -50.41956916 Ry
     Harris-Foulkes estimate   =     -65.54260587 Ry
     estimated scf accuracy    <      12.98430913 Ry

     iteration # 10     ecut=    30.00 Ry     beta=0.70
     Davidson diagonalization with overlap
     ethr =  1.00E-02,  avg # of iterations =  3.0

     negative rho (up, down):  3.086E-01 0.000E+00

     total cpu time spent up to now is        4.6 secs

     total energy              =       9.62826381 Ry
     Harris-Foulkes estimate   =    -156.37365885 Ry
     estimated scf accuracy    <      21.63535434 Ry

     iteration # 11     ecut=    30.00 Ry     beta=0.70
     Davidson diagonalization with overlap
     ethr =  1.00E-02,  avg # of iterations =  4.0

     negative rho (up, down):  2.544E-01 0.000E+00

     total cpu time spent up to now is        4.7 secs

     total energy              =     -28.27631649 Ry
     Harris-Foulkes estimate   =     -34.17206297 Ry
     estimated scf accuracy    <      11.64277621 Ry

     iteration # 12     ecut=    30.00 Ry     beta=0.70
     Davidson diagonalization with overlap
     ethr =  1.00E-02,  avg # of iterations =  4.0

     negative rho (up, down):  3.140E-01 0.000E+00

     total cpu time spent up to now is        4.7 secs

     total energy              =     -43.98529554 Ry
     Harris-Foulkes estimate   =     -32.61556681 Ry
     estimated scf accuracy    <       7.88130216 Ry

     iteration # 13     ecut=    30.00 Ry     beta=0.70
     Davidson diagonalization with overlap
     ethr =  1.00E-02,  avg # of iterations =  5.0

     negative rho (up, down):  3.738E-01 0.000E+00

     total cpu time spent up to now is        4.7 secs

     total energy              =      25.12879140 Ry
     Harris-Foulkes estimate   =    -306.99775796 Ry
     estimated scf accuracy    <      66.23229362 Ry

     iteration # 14     ecut=    30.00 Ry     beta=0.70
     Davidson diagonalization with overlap
     ethr =  1.00E-02,  avg # of iterations =  4.0

     negative rho (up, down):  1.656E-01 0.000E+00

     total cpu time spent up to now is        4.8 secs

     total energy              =     -23.62322744 Ry
     Harris-Foulkes estimate   =     -78.13261181 Ry
     estimated scf accuracy    <      29.33452339 Ry

     iteration # 15     ecut=    30.00 Ry     beta=0.70
     Davidson diagonalization with overlap
     ethr =  1.00E-02,  avg # of iterations =  7.0

     negative rho (up, down):  1.472E-01 0.000E+00

     total cpu time spent up to now is        4.8 secs

     total energy              =     -26.44863334 Ry
     Harris-Foulkes estimate   =    -242.29157261 Ry
     estimated scf accuracy    <      55.76624042 Ry

     iteration # 16     ecut=    30.00 Ry     beta=0.70
     Davidson diagonalization with overlap
     ethr =  1.00E-02,  avg # of iterations =  5.0

     negative rho (up, down):  9.808E-02 0.000E+00

     total cpu time spent up to now is        4.9 secs

     total energy              =    -130.99320518 Ry
     Harris-Foulkes estimate   =    -109.34108088 Ry
     estimated scf accuracy    <      61.74718093 Ry

     iteration # 17     ecut=    30.00 Ry     beta=0.70
     Davidson diagonalization with overlap
     ethr =  1.00E-02,  avg # of iterations =  8.0

     negative rho (up, down):  1.387E+00 0.000E+00

     total cpu time spent up to now is        4.9 secs

     total energy              =     -92.05839182 Ry
     Harris-Foulkes estimate   =    -256.71557761 Ry
     estimated scf accuracy    <      59.15915477 Ry

     iteration # 18     ecut=    30.00 Ry     beta=0.70
     Davidson diagonalization with overlap
     ethr =  1.00E-02,  avg # of iterations =  7.0

     negative rho (up, down):  1.581E+00 0.000E+00

     total cpu time spent up to now is        5.0 secs

     total energy              =     -92.99106817 Ry
     Harris-Foulkes estimate   =   -1051.12183070 Ry
     estimated scf accuracy    <      48.96050820 Ry

     iteration # 19     ecut=    30.00 Ry     beta=0.70
     Davidson diagonalization with overlap
     ethr =  1.00E-02,  avg # of iterations =  7.0

     negative rho (up, down):  1.824E+00 0.000E+00

     total cpu time spent up to now is        5.0 secs

     total energy              =     -75.14580866 Ry
     Harris-Foulkes estimate   =   -2335.86828331 Ry
     estimated scf accuracy    <      50.17510054 Ry

     iteration # 20     ecut=    30.00 Ry     beta=0.70
     Davidson diagonalization with overlap
     ethr =  1.00E-02,  avg # of iterations =  6.0

     negative rho (up, down):  2.649E+00 0.000E+00

     total cpu time spent up to now is        5.1 secs

     total energy              =  -29931.71965200 Ry
     Harris-Foulkes estimate   =   -4565.32033197 Ry
     estimated scf accuracy    <      53.46699003 Ry

     iteration # 21     ecut=    30.00 Ry     beta=0.70
     Davidson diagonalization with overlap
     ethr =  1.00E-02,  avg # of iterations =  9.0

     negative rho (up, down):  2.926E+00 0.000E+00

     total cpu time spent up to now is        5.2 secs

     total energy              =     -18.34217539 Ry
     Harris-Foulkes estimate   =  -50318.07234872 Ry
     estimated scf accuracy    <      56.45435295 Ry

     iteration # 22     ecut=    30.00 Ry     beta=0.70
     Davidson diagonalization with overlap
     ethr =  1.00E-02,  avg # of iterations =  6.0

     negative rho (up, down):  2.867E+00 0.000E+00

     total cpu time spent up to now is        5.2 secs

     total energy              =      44.84283929 Ry
     Harris-Foulkes estimate   =   -3614.20569440 Ry
     estimated scf accuracy    <      50.53326156 Ry

     iteration # 23     ecut=    30.00 Ry     beta=0.70
     Davidson diagonalization with overlap
     ethr =  1.00E-02,  avg # of iterations =  7.0

     negative rho (up, down):  2.631E+00 0.000E+00

     total cpu time spent up to now is        5.3 secs

     total energy              =    -922.48168183 Ry
     Harris-Foulkes estimate   =   -4834.75716273 Ry
     estimated scf accuracy    <      43.44308830 Ry

     iteration # 24     ecut=    30.00 Ry     beta=0.70
     Davidson diagonalization with overlap
     ethr =  1.00E-02,  avg # of iterations = 13.0

     negative rho (up, down):  2.151E+00 0.000E+00

     total cpu time spent up to now is        5.3 secs

     total energy              =     -41.14825044 Ry
     Harris-Foulkes estimate   =  -13554.42919145 Ry
     estimated scf accuracy    <      29.27981187 Ry

     iteration # 25     ecut=    30.00 Ry     beta=0.70
     Davidson diagonalization with overlap
     ethr =  1.00E-02,  avg # of iterations =  6.0

     negative rho (up, down):  9.940E-01 0.000E+00

     total cpu time spent up to now is        5.4 secs

     total energy              =     120.51859875 Ry
     Harris-Foulkes estimate   =  -14331.80228762 Ry
     estimated scf accuracy    <      36.47855131 Ry

     iteration # 26     ecut=    30.00 Ry     beta=0.70
     Davidson diagonalization with overlap
     ethr =  1.00E-02,  avg # of iterations =  7.0

     negative rho (up, down):  5.661E-01 0.000E+00

     total cpu time spent up to now is        5.4 secs

     total energy              =      34.70636527 Ry
     Harris-Foulkes estimate   =   -1008.87994095 Ry
     estimated scf accuracy    <      17.60565859 Ry

     iteration # 27     ecut=    30.00 Ry     beta=0.70
     Davidson diagonalization with overlap
     ethr =  1.00E-02,  avg # of iterations = 14.0

     negative rho (up, down):  3.030E-01 0.000E+00

     total cpu time spent up to now is        5.5 secs

     total energy              =     -65.65831327 Ry
     Harris-Foulkes estimate   =   -6281.93179208 Ry
     estimated scf accuracy    <      23.45884060 Ry

     iteration # 28     ecut=    30.00 Ry     beta=0.70
     Davidson diagonalization with overlap
     ethr =  1.00E-02,  avg # of iterations =  6.0

     negative rho (up, down):  3.041E-01 0.000E+00

     total cpu time spent up to now is        5.6 secs

     total energy              =     313.35485558 Ry
     Harris-Foulkes estimate   =   -1097.82842674 Ry
     estimated scf accuracy    <      20.12891379 Ry

     iteration # 29     ecut=    30.00 Ry     beta=0.70
     Davidson diagonalization with overlap
     ethr =  1.00E-02,  avg # of iterations =  8.0

     negative rho (up, down):  1.180E-01 0.000E+00

     total cpu time spent up to now is        5.6 secs

     total energy              =     -12.54430785 Ry
     Harris-Foulkes estimate   =   -3999.73296925 Ry
     estimated scf accuracy    <      21.62054098 Ry

     iteration # 30     ecut=    30.00 Ry     beta=0.70
     Davidson diagonalization with overlap
     ethr =  1.00E-02,  avg # of iterations = 11.0

     negative rho (up, down):  4.494E-02 0.000E+00

     total cpu time spent up to now is        5.7 secs

     total energy              =     126.00457610 Ry
     Harris-Foulkes estimate   =   -5150.82976796 Ry
     estimated scf accuracy    <      21.23406944 Ry

     iteration # 31     ecut=    30.00 Ry     beta=0.70
     Davidson diagonalization with overlap
     ethr =  1.00E-02,  avg # of iterations = 10.0

     negative rho (up, down):  2.086E-03 0.000E+00

     total cpu time spent up to now is        5.8 secs

     total energy              =      74.54057249 Ry
     Harris-Foulkes estimate   =    -407.24178403 Ry
     estimated scf accuracy    <      36.33975375 Ry

     iteration # 32     ecut=    30.00 Ry     beta=0.70
     Davidson diagonalization with overlap
     ethr =  1.00E-02,  avg # of iterations =  8.0

     negative rho (up, down):  1.545E-03 0.000E+00

     total cpu time spent up to now is        5.8 secs

     total energy              =     -13.32308896 Ry
     Harris-Foulkes estimate   =    -494.42035115 Ry
     estimated scf accuracy    <      35.87147944 Ry

     iteration # 33     ecut=    30.00 Ry     beta=0.70
     Davidson diagonalization with overlap
     ethr =  1.00E-02,  avg # of iterations =  4.0

     negative rho (up, down):  7.043E-05 0.000E+00

     total cpu time spent up to now is        5.8 secs

     total energy              =     -14.14040972 Ry
     Harris-Foulkes estimate   =    -168.49241614 Ry
     estimated scf accuracy    <      29.05277947 Ry

     iteration # 34     ecut=    30.00 Ry     beta=0.70
     Davidson diagonalization with overlap
     ethr =  1.00E-02,  avg # of iterations =  7.0

     negative rho (up, down):  8.822E-05 0.000E+00

     total cpu time spent up to now is        5.9 secs

     total energy              =     -62.27893055 Ry
     Harris-Foulkes estimate   =     -62.97724746 Ry
     estimated scf accuracy    <      47.93214900 Ry

     iteration # 35     ecut=    30.00 Ry     beta=0.70
     Davidson diagonalization with overlap
     ethr =  1.00E-02,  avg # of iterations =  1.0

     negative rho (up, down):  9.769E-04 0.000E+00

     total cpu time spent up to now is        5.9 secs

     total energy              =     -61.68716628 Ry
     Harris-Foulkes estimate   =     -62.28422170 Ry
     estimated scf accuracy    <      46.53641089 Ry

     iteration # 36     ecut=    30.00 Ry     beta=0.70
     Davidson diagonalization with overlap
     ethr =  1.00E-02,  avg # of iterations =  3.0

     negative rho (up, down):  7.484E-02 0.000E+00

     total cpu time spent up to now is        6.0 secs

     total energy              =     -80.74552107 Ry
     Harris-Foulkes estimate   =    -490.35321680 Ry
     estimated scf accuracy    <      28.08285561 Ry

     iteration # 37     ecut=    30.00 Ry     beta=0.70
     Davidson diagonalization with overlap
     ethr =  1.00E-02,  avg # of iterations =  6.0

     negative rho (up, down):  1.507E-01 0.000E+00

     total cpu time spent up to now is        6.0 secs

     total energy              =      46.68431308 Ry
     Harris-Foulkes estimate   =    -681.20897290 Ry
     estimated scf accuracy    <      38.27502922 Ry

     iteration # 38     ecut=    30.00 Ry     beta=0.70
     Davidson diagonalization with overlap
     ethr =  1.00E-02,  avg # of iterations =  8.0

     negative rho (up, down):  4.139E-01 0.000E+00

     total cpu time spent up to now is        6.1 secs

     total energy              =   -3483.56750970 Ry
     Harris-Foulkes estimate   =   -1324.43734118 Ry
     estimated scf accuracy    <      57.78814734 Ry

     iteration # 39     ecut=    30.00 Ry     beta=0.70
     Davidson diagonalization with overlap
     ethr =  1.00E-02,  avg # of iterations =  9.0

     negative rho (up, down):  5.310E-01 0.000E+00

     total cpu time spent up to now is        6.1 secs

     total energy              =      47.35855460 Ry
     Harris-Foulkes estimate   =  -13728.16662050 Ry
     estimated scf accuracy    <      50.19113117 Ry

     iteration # 40     ecut=    30.00 Ry     beta=0.70
     Davidson diagonalization with overlap
     ethr =  1.00E-02,  avg # of iterations =  8.0

     negative rho (up, down):  1.204E-01 0.000E+00

     total cpu time spent up to now is        6.2 secs

     total energy              =     116.47751425 Ry
     Harris-Foulkes estimate   =   -1126.39267854 Ry
     estimated scf accuracy    <      22.87066372 Ry

     iteration # 41     ecut=    30.00 Ry     beta=0.70
     Davidson diagonalization with overlap
     ethr =  1.00E-02,  avg # of iterations =  8.0

     negative rho (up, down):  1.834E-01 0.000E+00

     total cpu time spent up to now is        6.3 secs

     total energy              =     110.03563593 Ry
     Harris-Foulkes estimate   =    -439.07287205 Ry
     estimated scf accuracy    <      26.69594440 Ry

     iteration # 42     ecut=    30.00 Ry     beta=0.70
     Davidson diagonalization with overlap
     ethr =  1.00E-02,  avg # of iterations =  7.0

     negative rho (up, down):  7.549E-03 0.000E+00

     total cpu time spent up to now is        6.3 secs

     total energy              =      11.05626356 Ry
     Harris-Foulkes estimate   =    -628.10629938 Ry
     estimated scf accuracy    <      43.90990152 Ry

     iteration # 43     ecut=    30.00 Ry     beta=0.70
     Davidson diagonalization with overlap
     ethr =  1.00E-02,  avg # of iterations = 13.0

     negative rho (up, down):  1.270E-01 0.000E+00

     total cpu time spent up to now is        6.4 secs

     total energy              =    -217.32630042 Ry
     Harris-Foulkes estimate   =     -58.97219240 Ry
     estimated scf accuracy    <      32.24815287 Ry

     iteration # 44     ecut=    30.00 Ry     beta=0.70
     Davidson diagonalization with overlap
     ethr =  1.00E-02,  avg # of iterations =  7.0

     negative rho (up, down):  3.215E-01 0.000E+00

     total cpu time spent up to now is        6.4 secs

     total energy              =      34.45249542 Ry
     Harris-Foulkes estimate   =   -1183.93300673 Ry
     estimated scf accuracy    <      32.01334962 Ry

     iteration # 45     ecut=    30.00 Ry     beta=0.70
     Davidson diagonalization with overlap
     ethr =  1.00E-02,  avg # of iterations =  8.0

     negative rho (up, down):  4.480E-01 0.000E+00

     total cpu time spent up to now is        6.5 secs

     total energy              =     -80.07322483 Ry
     Harris-Foulkes estimate   =    -806.86329022 Ry
     estimated scf accuracy    <      46.20047309 Ry

     iteration # 46     ecut=    30.00 Ry     beta=0.70
     Davidson diagonalization with overlap
     ethr =  1.00E-02,  avg # of iterations =  6.0

     negative rho (up, down):  4.087E-01 0.000E+00

     total cpu time spent up to now is        6.5 secs

     total energy              =      50.41024879 Ry
     Harris-Foulkes estimate   =   -1450.41424641 Ry
     estimated scf accuracy    <      19.37363058 Ry

     iteration # 47     ecut=    30.00 Ry     beta=0.70
     Davidson diagonalization with overlap
     ethr =  1.00E-02,  avg # of iterations =  9.0

     negative rho (up, down):  2.552E-01 0.000E+00

     total cpu time spent up to now is        6.6 secs

     total energy              =      64.20715234 Ry
     Harris-Foulkes estimate   =   -5564.60414487 Ry
     estimated scf accuracy    <      20.15645505 Ry

     iteration # 48     ecut=    30.00 Ry     beta=0.70
     Davidson diagonalization with overlap
     ethr =  1.00E-02,  avg # of iterations =  8.0

     negative rho (up, down):  3.308E-01 0.000E+00

     total cpu time spent up to now is        6.7 secs

     total energy              =     -76.09815587 Ry
     Harris-Foulkes estimate   =   -1100.32039698 Ry
     estimated scf accuracy    <      34.57252040 Ry

     iteration # 49     ecut=    30.00 Ry     beta=0.70
     Davidson diagonalization with overlap
     ethr =  1.00E-02,  avg # of iterations =  7.0

     negative rho (up, down):  3.874E-01 0.000E+00

     total cpu time spent up to now is        6.8 secs

     total energy              =   -1715.43611177 Ry
     Harris-Foulkes estimate   =    -785.51714914 Ry
     estimated scf accuracy    <      28.98585184 Ry

     iteration # 50     ecut=    30.00 Ry     beta=0.70
     Davidson diagonalization with overlap
     ethr =  1.00E-02,  avg # of iterations =  5.0

     negative rho (up, down):  8.502E-01 0.000E+00

     total cpu time spent up to now is        6.8 secs

     total energy              =      30.60348622 Ry
     Harris-Foulkes estimate   =   -4923.92659065 Ry
     estimated scf accuracy    <      25.59344682 Ry

     iteration # 51     ecut=    30.00 Ry     beta=0.70
     Davidson diagonalization with overlap
     ethr =  1.00E-02,  avg # of iterations =  7.0

     negative rho (up, down):  1.522E-01 0.000E+00

     total cpu time spent up to now is        6.9 secs

     total energy              =      34.99066789 Ry
     Harris-Foulkes estimate   =   -1451.82668866 Ry
     estimated scf accuracy    <      20.15108866 Ry

     iteration # 52     ecut=    30.00 Ry     beta=0.70
     Davidson diagonalization with overlap
     ethr =  1.00E-02,  avg # of iterations =  7.0

     negative rho (up, down):  3.176E-01 0.000E+00

     total cpu time spent up to now is        6.9 secs

     total energy              =    -237.50089953 Ry
     Harris-Foulkes estimate   =    -455.16679111 Ry
     estimated scf accuracy    <      23.31439993 Ry

     iteration # 53     ecut=    30.00 Ry     beta=0.70
     Davidson diagonalization with overlap
     ethr =  1.00E-02,  avg # of iterations =  5.0

     negative rho (up, down):  3.277E-01 0.000E+00

     total cpu time spent up to now is        7.0 secs

     total energy              =      30.53478854 Ry
     Harris-Foulkes estimate   =   -4906.42824206 Ry
     estimated scf accuracy    <      25.91835622 Ry

     iteration # 54     ecut=    30.00 Ry     beta=0.70
     Davidson diagonalization with overlap
     ethr =  1.00E-02,  avg # of iterations =  8.0

     negative rho (up, down):  3.060E-01 0.000E+00

     total cpu time spent up to now is        7.1 secs

     total energy              =    -111.46827427 Ry
     Harris-Foulkes estimate   =   -1556.15506113 Ry
     estimated scf accuracy    <      26.79757052 Ry

     iteration # 55     ecut=    30.00 Ry     beta=0.70
     Davidson diagonalization with overlap
     ethr =  1.00E-02,  avg # of iterations =  6.0

     negative rho (up, down):  3.858E-01 0.000E+00

     total cpu time spent up to now is        7.1 secs

     total energy              =      84.23933932 Ry
     Harris-Foulkes estimate   =   -3223.93854299 Ry
     estimated scf accuracy    <      22.82224391 Ry

     iteration # 56     ecut=    30.00 Ry     beta=0.70
     Davidson diagonalization with overlap
     ethr =  1.00E-02,  avg # of iterations =  7.0

     negative rho (up, down):  4.147E-01 0.000E+00

     total cpu time spent up to now is        7.2 secs

     total energy              =    -280.06148767 Ry
     Harris-Foulkes estimate   =   -2849.96785388 Ry
     estimated scf accuracy    <      24.97158455 Ry

     iteration # 57     ecut=    30.00 Ry     beta=0.70
     Davidson diagonalization with overlap
     ethr =  1.00E-02,  avg # of iterations =  6.0

     negative rho (up, down):  9.098E-03 0.000E+00

     total cpu time spent up to now is        7.2 secs

     total energy              =      95.84096167 Ry
     Harris-Foulkes estimate   =  -21238.85085484 Ry
     estimated scf accuracy    <      21.02278973 Ry

     iteration # 58     ecut=    30.00 Ry     beta=0.70
     Davidson diagonalization with overlap
     ethr =  1.00E-02,  avg # of iterations =  9.0

     negative rho (up, down):  1.536E-02 0.000E+00

     total cpu time spent up to now is        7.3 secs

     total energy              =     -14.78745570 Ry
     Harris-Foulkes estimate   =    -129.57083332 Ry
     estimated scf accuracy    <      17.53201430 Ry

     iteration # 59     ecut=    30.00 Ry     beta=0.70
     Davidson diagonalization with overlap
     ethr =  1.00E-02,  avg # of iterations =  6.0

     negative rho (up, down):  4.869E-02 0.000E+00

     total cpu time spent up to now is        7.3 secs

     total energy              =      17.96514716 Ry
     Harris-Foulkes estimate   =   -2148.70660803 Ry
     estimated scf accuracy    <      10.72286043 Ry

     iteration # 60     ecut=    30.00 Ry     beta=0.70
     Davidson diagonalization with overlap
     ethr =  1.00E-02,  avg # of iterations =  7.0

     negative rho (up, down):  4.916E-02 0.000E+00

     total cpu time spent up to now is        7.4 secs

     total energy              =     775.85477154 Ry
     Harris-Foulkes estimate   =     -97.82920792 Ry
     estimated scf accuracy    <      21.23393344 Ry

     iteration # 61     ecut=    30.00 Ry     beta=0.70
     Davidson diagonalization with overlap
     ethr =  1.00E-02,  avg # of iterations =  5.0

     negative rho (up, down):  1.996E-03 0.000E+00

     total cpu time spent up to now is        7.5 secs

     total energy              =      -2.08998137 Ry
     Harris-Foulkes estimate   =    -171.46342132 Ry
     estimated scf accuracy    <      10.40443090 Ry

     iteration # 62     ecut=    30.00 Ry     beta=0.70
     Davidson diagonalization with overlap
     ethr =  1.00E-02,  avg # of iterations =  4.0

     negative rho (up, down):  2.204E-03 0.000E+00

     total cpu time spent up to now is        7.5 secs

     total energy              =      -8.44600145 Ry
     Harris-Foulkes estimate   =    -111.52956140 Ry
     estimated scf accuracy    <       7.68370762 Ry

     iteration # 63     ecut=    30.00 Ry     beta=0.70
     Davidson diagonalization with overlap
     ethr =  1.00E-02,  avg # of iterations =  5.0

     negative rho (up, down):  6.830E-04 0.000E+00

     total cpu time spent up to now is        7.5 secs

     total energy              =     -12.57677660 Ry
     Harris-Foulkes estimate   =     -58.51867436 Ry
     estimated scf accuracy    <       7.54708435 Ry

     iteration # 64     ecut=    30.00 Ry     beta=0.70
     Davidson diagonalization with overlap
     ethr =  1.00E-02,  avg # of iterations =  4.0

     negative rho (up, down):  1.631E-03 0.000E+00

     total cpu time spent up to now is        7.6 secs

     total energy              =     -33.11237981 Ry
     Harris-Foulkes estimate   =     -33.70431440 Ry
     estimated scf accuracy    <       7.27645991 Ry

     iteration # 65     ecut=    30.00 Ry     beta=0.70
     Davidson diagonalization with overlap
     ethr =  1.00E-02,  avg # of iterations =  4.0

     negative rho (up, down):  1.939E-02 0.000E+00

     total cpu time spent up to now is        7.6 secs

     total energy              =     -24.43554927 Ry
     Harris-Foulkes estimate   =     -38.07616390 Ry
     estimated scf accuracy    <      11.21023659 Ry

     iteration # 66     ecut=    30.00 Ry     beta=0.70
     Davidson diagonalization with overlap
     ethr =  1.00E-02,  avg # of iterations =  4.0

     negative rho (up, down):  5.145E-02 0.000E+00

     total cpu time spent up to now is        7.7 secs

     total energy              =    -174.65746525 Ry
     Harris-Foulkes estimate   =     -42.81036328 Ry
     estimated scf accuracy    <       6.75186994 Ry

     iteration # 67     ecut=    30.00 Ry     beta=0.70
     Davidson diagonalization with overlap
     ethr =  1.00E-02,  avg # of iterations =  5.0

     negative rho (up, down):  1.695E-05 0.000E+00

     total cpu time spent up to now is        7.7 secs

     total energy              =      59.21387141 Ry
     Harris-Foulkes estimate   =    -511.30592671 Ry
     estimated scf accuracy    <      17.73526574 Ry

     iteration # 68     ecut=    30.00 Ry     beta=0.70
     Davidson diagonalization with overlap
     ethr =  1.00E-02,  avg # of iterations =  7.0

     negative rho (up, down):  1.151E-05 0.000E+00

     total cpu time spent up to now is        7.8 secs

     total energy              =     -32.19752622 Ry
     Harris-Foulkes estimate   =     -33.00251984 Ry
     estimated scf accuracy    <       4.03011694 Ry

     iteration # 69     ecut=    30.00 Ry     beta=0.70
     Davidson diagonalization with overlap
     ethr =  1.00E-02,  avg # of iterations =  3.0

     total cpu time spent up to now is        7.8 secs

     total energy              =     -32.16419671 Ry
     Harris-Foulkes estimate   =     -32.75542680 Ry
     estimated scf accuracy    <       3.39293546 Ry

     iteration # 70     ecut=    30.00 Ry     beta=0.70
     Davidson diagonalization with overlap
     ethr =  1.00E-02,  avg # of iterations =  1.0

     negative rho (up, down):  6.180E-03 0.000E+00

     total cpu time spent up to now is        7.8 secs

     total energy              =     -31.93147303 Ry
     Harris-Foulkes estimate   =     -32.38196470 Ry
     estimated scf accuracy    <       3.82813626 Ry

     iteration # 71     ecut=    30.00 Ry     beta=0.70
     Davidson diagonalization with overlap
     ethr =  1.00E-02,  avg # of iterations =  2.0

     negative rho (up, down):  8.755E-05 0.000E+00

     total cpu time spent up to now is        7.9 secs

     total energy              =     -32.01114472 Ry
     Harris-Foulkes estimate   =     -32.48041755 Ry
     estimated scf accuracy    <       4.78321510 Ry

     iteration # 72     ecut=    30.00 Ry     beta=0.70
     Davidson diagonalization with overlap
     ethr =  1.00E-02,  avg # of iterations =  2.0

     negative rho (up, down):  3.381E-03 0.000E+00

     total cpu time spent up to now is        7.9 secs

     total energy              =     -32.09766127 Ry
     Harris-Foulkes estimate   =     -32.18656883 Ry
     estimated scf accuracy    <       2.18182624 Ry

     iteration # 73     ecut=    30.00 Ry     beta=0.70
     Davidson diagonalization with overlap
     ethr =  1.00E-02,  avg # of iterations =  3.0

     negative rho (up, down):  5.579E-03 0.000E+00

     total cpu time spent up to now is        7.9 secs

     total energy              =     199.15955571 Ry
     Harris-Foulkes estimate   =     -33.77265415 Ry
     estimated scf accuracy    <       3.90532256 Ry

     iteration # 74     ecut=    30.00 Ry     beta=0.70
     Davidson diagonalization with overlap
     ethr =  1.00E-02,  avg # of iterations =  4.0

     negative rho (up, down):  5.406E-07 0.000E+00

     total cpu time spent up to now is        8.0 secs

     total energy              =      30.38585745 Ry
     Harris-Foulkes estimate   =    -215.94959131 Ry
     estimated scf accuracy    <      14.01525451 Ry

     iteration # 75     ecut=    30.00 Ry     beta=0.70
     Davidson diagonalization with overlap
     ethr =  1.00E-02,  avg # of iterations =  5.0

     negative rho (up, down):  5.611E-05 0.000E+00

     total cpu time spent up to now is        8.0 secs

     total energy              =     -31.77034436 Ry
     Harris-Foulkes estimate   =     -31.92484470 Ry
     estimated scf accuracy    <       1.67367073 Ry

     iteration # 76     ecut=    30.00 Ry     beta=0.70
     Davidson diagonalization with overlap
     ethr =  1.00E-02,  avg # of iterations =  1.0

     negative rho (up, down):  9.390E-04 0.000E+00

     total cpu time spent up to now is        8.1 secs

     total energy              =     -31.47248670 Ry
     Harris-Foulkes estimate   =     -31.80260228 Ry
     estimated scf accuracy    <       0.87171860 Ry

     iteration # 77     ecut=    30.00 Ry     beta=0.70
     Davidson diagonalization with overlap
     ethr =  1.00E-02,  avg # of iterations =  1.0

     negative rho (up, down):  2.143E-04 0.000E+00

     total cpu time spent up to now is        8.1 secs

     total energy              =     -31.46385183 Ry
     Harris-Foulkes estimate   =     -31.56659485 Ry
     estimated scf accuracy    <       1.62994878 Ry

     iteration # 78     ecut=    30.00 Ry     beta=0.70
     Davidson diagonalization with overlap
     ethr =  1.00E-02,  avg # of iterations =  1.0

     negative rho (up, down):  1.426E-03 0.000E+00

     total cpu time spent up to now is        8.1 secs

     total energy              =     -31.47053213 Ry
     Harris-Foulkes estimate   =     -31.51073112 Ry
     estimated scf accuracy    <       0.59622110 Ry

     iteration # 79     ecut=    30.00 Ry     beta=0.70
     Davidson diagonalization with overlap
     ethr =  7.45E-03,  avg # of iterations =  2.0

     negative rho (up, down):  6.975E-04 0.000E+00

     total cpu time spent up to now is        8.2 secs

     total energy              =     -31.45828585 Ry
     Harris-Foulkes estimate   =     -31.52358714 Ry
     estimated scf accuracy    <       0.24019899 Ry

     iteration # 80     ecut=    30.00 Ry     beta=0.70
     Davidson diagonalization with overlap
     ethr =  3.00E-03,  avg # of iterations =  2.0

     negative rho (up, down):  2.048E-07 0.000E+00

     total cpu time spent up to now is        8.2 secs

     total energy              =     -31.46534219 Ry
     Harris-Foulkes estimate   =     -31.49748079 Ry
     estimated scf accuracy    <       0.19343477 Ry

     iteration # 81     ecut=    30.00 Ry     beta=0.70
     Davidson diagonalization with overlap
     ethr =  2.42E-03,  avg # of iterations =  1.0

     negative rho (up, down):  5.213E-04 0.000E+00

     total cpu time spent up to now is        8.2 secs

     total energy              =     -31.42422548 Ry
     Harris-Foulkes estimate   =     -31.56377691 Ry
     estimated scf accuracy    <       2.84785030 Ry

     iteration # 82     ecut=    30.00 Ry     beta=0.70
     Davidson diagonalization with overlap
     ethr =  2.42E-03,  avg # of iterations =  2.0

     negative rho (up, down):  3.446E-05 0.000E+00

     total cpu time spent up to now is        8.3 secs

     total energy              =     -31.47255949 Ry
     Harris-Foulkes estimate   =     -31.50682332 Ry
     estimated scf accuracy    <       0.51896406 Ry

     iteration # 83     ecut=    30.00 Ry     beta=0.70
     Davidson diagonalization with overlap
     ethr =  2.42E-03,  avg # of iterations =  2.0

     negative rho (up, down):  9.018E-04 0.000E+00

     total cpu time spent up to now is        8.3 secs

     total energy              =     -31.49947070 Ry
     Harris-Foulkes estimate   =     -31.49489672 Ry
     estimated scf accuracy    <       0.05586600 Ry

     iteration # 84     ecut=    30.00 Ry     beta=0.70
     Davidson diagonalization with overlap
     ethr =  6.98E-04,  avg # of iterations =  2.0

     total cpu time spent up to now is        8.3 secs

     total energy              =     -31.47951261 Ry
     Harris-Foulkes estimate   =     -31.51134505 Ry
     estimated scf accuracy    <       0.17485207 Ry

     iteration # 85     ecut=    30.00 Ry     beta=0.70
     Davidson diagonalization with overlap
     ethr =  6.98E-04,  avg # of iterations =  2.0

     total cpu time spent up to now is        8.4 secs

     total energy              =     -31.49028818 Ry
     Harris-Foulkes estimate   =     -31.49445195 Ry
     estimated scf accuracy    <       0.10158541 Ry

     iteration # 86     ecut=    30.00 Ry     beta=0.70
     Davidson diagonalization with overlap
     ethr =  6.98E-04,  avg # of iterations =  1.0

     total cpu time spent up to now is        8.4 secs

     total energy              =     -31.49256339 Ry
     Harris-Foulkes estimate   =     -31.49291146 Ry
     estimated scf accuracy    <       0.01376459 Ry

     iteration # 87     ecut=    30.00 Ry     beta=0.70
     Davidson diagonalization with overlap
     ethr =  1.72E-04,  avg # of iterations =  5.0

     total cpu time spent up to now is        8.4 secs

     total energy              =     -31.49279444 Ry
     Harris-Foulkes estimate   =     -31.49292663 Ry
     estimated scf accuracy    <       0.00535247 Ry

     iteration # 88     ecut=    30.00 Ry     beta=0.70
     Davidson diagonalization with overlap
     ethr =  6.69E-05,  avg # of iterations =  1.0

     total cpu time spent up to now is        8.5 secs

     total energy              =     -31.49289162 Ry
     Harris-Foulkes estimate   =     -31.49290111 Ry
     estimated scf accuracy    <       0.00065601 Ry

     iteration # 89     ecut=    30.00 Ry     beta=0.70
     Davidson diagonalization with overlap
     ethr =  8.20E-06,  avg # of iterations =  8.0

     total cpu time spent up to now is        8.5 secs

     total energy              =     -31.49289009 Ry
     Harris-Foulkes estimate   =     -31.49289748 Ry
[...]
     Harris-Foulkes estimate   =   -2566.78523680 Ry
     estimated scf accuracy    <      38.34015087 Ry

     iteration # 59     ecut=    30.00 Ry     beta=0.70
     Davidson diagonalization with overlap
     ethr =  1.00E-02,  avg # of iterations =  7.0

     negative rho (up, down):  1.520E+00 0.000E+00

     total cpu time spent up to now is       51.0 secs

     total energy              =     -40.74026002 Ry
     Harris-Foulkes estimate   =    -307.81897675 Ry
     estimated scf accuracy    <      48.62228813 Ry

     iteration # 60     ecut=    30.00 Ry     beta=0.70
     Davidson diagonalization with overlap
     ethr =  1.00E-02,  avg # of iterations =  7.0

     negative rho (up, down):  1.584E+00 0.000E+00

     total cpu time spent up to now is       51.1 secs

     total energy              =      85.27895575 Ry
     Harris-Foulkes estimate   =    -641.42710042 Ry
     estimated scf accuracy    <      44.94431814 Ry

     iteration # 61     ecut=    30.00 Ry     beta=0.70
     Davidson diagonalization with overlap
     ethr =  1.00E-02,  avg # of iterations =  7.0

     negative rho (up, down):  1.912E+00 0.000E+00

     total cpu time spent up to now is       51.1 secs

     total energy              =      82.13868990 Ry
     Harris-Foulkes estimate   =   -1118.28254435 Ry
     estimated scf accuracy    <      39.85475937 Ry

     iteration # 62     ecut=    30.00 Ry     beta=0.70
     Davidson diagonalization with overlap
     ethr =  1.00E-02,  avg # of iterations =  7.0

     negative rho (up, down):  2.055E+00 0.000E+00

     total cpu time spent up to now is       51.2 secs

     total energy              =    -243.39330646 Ry
     Harris-Foulkes estimate   =   -2655.13674126 Ry
     estimated scf accuracy    <      39.67952059 Ry

     iteration # 63     ecut=    30.00 Ry     beta=0.70
     Davidson diagonalization with overlap
     ethr =  1.00E-02,  avg # of iterations =  5.0

     negative rho (up, down):  1.874E+00 0.000E+00

     total cpu time spent up to now is       51.2 secs

     total energy              =    -311.64040729 Ry
     Harris-Foulkes estimate   =   -3055.80215758 Ry
     estimated scf accuracy    <      33.04602820 Ry

     iteration # 64     ecut=    30.00 Ry     beta=0.70
     Davidson diagonalization with overlap
     ethr =  1.00E-02,  avg # of iterations =  6.0

     negative rho (up, down):  8.736E-01 0.000E+00

     total cpu time spent up to now is       51.3 secs

     total energy              =      46.62238305 Ry
     Harris-Foulkes estimate   =   -1791.51781402 Ry
     estimated scf accuracy    <      35.25566291 Ry

     iteration # 65     ecut=    30.00 Ry     beta=0.70
     Davidson diagonalization with overlap
     ethr =  1.00E-02,  avg # of iterations =  8.0

     negative rho (up, down):  1.290E+00 0.000E+00

     total cpu time spent up to now is       51.3 secs

     total energy              =   -1295.40825260 Ry
     Harris-Foulkes estimate   =    -734.12633030 Ry
     estimated scf accuracy    <      35.95257699 Ry

     iteration # 66     ecut=    30.00 Ry     beta=0.70
     Davidson diagonalization with overlap
     ethr =  1.00E-02,  avg # of iterations =  9.0

     negative rho (up, down):  1.238E+00 0.000E+00

     total cpu time spent up to now is       51.4 secs

     total energy              =     108.22316181 Ry
     Harris-Foulkes estimate   =   -6285.77872119 Ry
     estimated scf accuracy    <      23.96230334 Ry

     iteration # 67     ecut=    30.00 Ry     beta=0.70
     Davidson diagonalization with overlap
     ethr =  1.00E-02,  avg # of iterations =  8.0

     negative rho (up, down):  1.073E+00 0.000E+00

     total cpu time spent up to now is       51.5 secs

     total energy              =   -1539.71358036 Ry
     Harris-Foulkes estimate   =    -774.95221233 Ry
     estimated scf accuracy    <      34.03968263 Ry

     iteration # 68     ecut=    30.00 Ry     beta=0.70
     Davidson diagonalization with overlap
     ethr =  1.00E-02,  avg # of iterations =  7.0

     negative rho (up, down):  8.427E-01 0.000E+00

     total cpu time spent up to now is       51.5 secs

     total energy              =   -1453.92842409 Ry
     Harris-Foulkes estimate   =   -4877.31897966 Ry
     estimated scf accuracy    <      18.60933133 Ry

     iteration # 69     ecut=    30.00 Ry     beta=0.70
     Davidson diagonalization with overlap
     ethr =  1.00E-02,  avg # of iterations = 13.0

     negative rho (up, down):  8.703E-02 0.000E+00

     total cpu time spent up to now is       51.6 secs

     total energy              =     102.92423426 Ry
     Harris-Foulkes estimate   =  -23442.68441196 Ry
     estimated scf accuracy    <      29.74759107 Ry

     iteration # 70     ecut=    30.00 Ry     beta=0.70
     Davidson diagonalization with overlap
     ethr =  1.00E-02,  avg # of iterations =  7.0

     negative rho (up, down):  7.601E-02 0.000E+00

     total cpu time spent up to now is       51.7 secs

     total energy              =     -20.61946284 Ry
     Harris-Foulkes estimate   =    -182.18963240 Ry
     estimated scf accuracy    <      50.43006662 Ry

     iteration # 71     ecut=    30.00 Ry     beta=0.70
     Davidson diagonalization with overlap
     ethr =  1.00E-02,  avg # of iterations =  7.0

     negative rho (up, down):  1.299E-01 0.000E+00

     total cpu time spent up to now is       51.7 secs

     total energy              =    -123.40883748 Ry
     Harris-Foulkes estimate   =    -145.36613788 Ry
     estimated scf accuracy    <      34.76426198 Ry

     iteration # 72     ecut=    30.00 Ry     beta=0.70
     Davidson diagonalization with overlap
     ethr =  1.00E-02,  avg # of iterations =  6.0

     negative rho (up, down):  1.010E-01 0.000E+00

     total cpu time spent up to now is       51.8 secs

     total energy              =     101.72173540 Ry
     Harris-Foulkes estimate   =   -1762.69753636 Ry
     estimated scf accuracy    <      26.25492563 Ry

     iteration # 73     ecut=    30.00 Ry     beta=0.70
     Davidson diagonalization with overlap
     ethr =  1.00E-02,  avg # of iterations =  9.0

     negative rho (up, down):  2.543E-01 0.000E+00

     total cpu time spent up to now is       51.8 secs

     total energy              =     -44.84914299 Ry
     Harris-Foulkes estimate   =    -425.09015625 Ry
     estimated scf accuracy    <      25.60552565 Ry

     iteration # 74     ecut=    30.00 Ry     beta=0.70
     Davidson diagonalization with overlap
     ethr =  1.00E-02,  avg # of iterations = 10.0

     negative rho (up, down):  2.750E-01 0.000E+00

     total cpu time spent up to now is       51.9 secs

     total energy              =      99.32954799 Ry
     Harris-Foulkes estimate   =   -1357.25937039 Ry
     estimated scf accuracy    <      37.47636753 Ry

     iteration # 75     ecut=    30.00 Ry     beta=0.70
     Davidson diagonalization with overlap
     ethr =  1.00E-02,  avg # of iterations = 13.0

     negative rho (up, down):  5.926E-01 0.000E+00

     total cpu time spent up to now is       51.9 secs

     total energy              =    -760.53572681 Ry
     Harris-Foulkes estimate   =    -192.04766090 Ry
     estimated scf accuracy    <      25.16053823 Ry

     iteration # 76     ecut=    30.00 Ry     beta=0.70
     Davidson diagonalization with overlap
     ethr =  1.00E-02,  avg # of iterations =  8.0

     negative rho (up, down):  6.450E-01 0.000E+00

     total cpu time spent up to now is       52.0 secs

     total energy              =     105.25902215 Ry
     Harris-Foulkes estimate   =   -5489.26581243 Ry
     estimated scf accuracy    <      42.15849583 Ry

     iteration # 77     ecut=    30.00 Ry     beta=0.70
     Davidson diagonalization with overlap
     ethr =  1.00E-02,  avg # of iterations = 15.0

     negative rho (up, down):  7.531E-01 0.000E+00

     total cpu time spent up to now is       52.1 secs

     total energy              =       0.40762696 Ry
     Harris-Foulkes estimate   =    -789.31560140 Ry
     estimated scf accuracy    <      34.61882644 Ry

     iteration # 78     ecut=    30.00 Ry     beta=0.70
     Davidson diagonalization with overlap
     ethr =  1.00E-02,  avg # of iterations = 10.0

     negative rho (up, down):  3.982E-02 0.000E+00

     total cpu time spent up to now is       52.1 secs

     total energy              =     141.95191773 Ry
     Harris-Foulkes estimate   =   -9356.86102334 Ry
     estimated scf accuracy    <      27.21999746 Ry

     iteration # 79     ecut=    30.00 Ry     beta=0.70
     Davidson diagonalization with overlap
     ethr =  1.00E-02,  avg # of iterations = 12.0

     negative rho (up, down):  4.565E-01 0.000E+00

     total cpu time spent up to now is       52.2 secs

     total energy              =     -17.74253640 Ry
     Harris-Foulkes estimate   =    -122.58328540 Ry
     estimated scf accuracy    <      16.96073257 Ry

     iteration # 80     ecut=    30.00 Ry     beta=0.70
     Davidson diagonalization with overlap
     ethr =  1.00E-02,  avg # of iterations = 10.0

     negative rho (up, down):  6.076E-01 0.000E+00

     total cpu time spent up to now is       52.2 secs

     total energy              =     -20.78613518 Ry
     Harris-Foulkes estimate   =   -1223.64392355 Ry
     estimated scf accuracy    <      27.46873994 Ry

     iteration # 81     ecut=    30.00 Ry     beta=0.70
     Davidson diagonalization with overlap
     ethr =  1.00E-02,  avg # of iterations =  8.0

     negative rho (up, down):  5.631E-01 0.000E+00

     total cpu time spent up to now is       52.3 secs

     total energy              =     -46.80921286 Ry
     Harris-Foulkes estimate   =    -862.97009260 Ry
     estimated scf accuracy    <      27.16691659 Ry

     iteration # 82     ecut=    30.00 Ry     beta=0.70
     Davidson diagonalization with overlap
     ethr =  1.00E-02,  avg # of iterations =  9.0

     negative rho (up, down):  6.158E-01 0.000E+00

     total cpu time spent up to now is       52.4 secs

     total energy              =    -372.70987373 Ry
     Harris-Foulkes estimate   =   -4494.54712588 Ry
     estimated scf accuracy    <      19.09728790 Ry

     iteration # 83     ecut=    30.00 Ry     beta=0.70
     Davidson diagonalization with overlap
     ethr =  1.00E-02,  avg # of iterations =  9.0

     negative rho (up, down):  4.068E-01 0.000E+00

     total cpu time spent up to now is       52.4 secs

     total energy              =    -721.07918700 Ry
     Harris-Foulkes estimate   =  -12042.31014012 Ry
     estimated scf accuracy    <      37.47044437 Ry

     iteration # 84     ecut=    30.00 Ry     beta=0.70
     Davidson diagonalization with overlap
     ethr =  1.00E-02,  avg # of iterations = 11.0

     negative rho (up, down):  5.993E-01 0.000E+00

     total cpu time spent up to now is       52.5 secs

     total energy              =     -65.76591084 Ry
     Harris-Foulkes estimate   =   -4142.69139167 Ry
     estimated scf accuracy    <      24.59907836 Ry

     iteration # 85     ecut=    30.00 Ry     beta=0.70
     Davidson diagonalization with overlap
     ethr =  1.00E-02,  avg # of iterations =  7.0

     negative rho (up, down):  1.457E-01 0.000E+00

     total cpu time spent up to now is       52.5 secs

     total energy              =     111.93336771 Ry
     Harris-Foulkes estimate   =   -1501.67345622 Ry
     estimated scf accuracy    <      29.61014786 Ry

     iteration # 86     ecut=    30.00 Ry     beta=0.70
     Davidson diagonalization with overlap
     ethr =  1.00E-02,  avg # of iterations = 11.0

     negative rho (up, down):  2.344E-01 0.000E+00

     total cpu time spent up to now is       52.6 secs

     total energy              =    -206.31191005 Ry
     Harris-Foulkes estimate   =    -444.92404852 Ry
     estimated scf accuracy    <      31.42166199 Ry

     iteration # 87     ecut=    30.00 Ry     beta=0.70
     Davidson diagonalization with overlap
     ethr =  1.00E-02,  avg # of iterations =  7.0

     negative rho (up, down):  4.956E-01 0.000E+00

     total cpu time spent up to now is       52.7 secs

     total energy              =      41.96721292 Ry
     Harris-Foulkes estimate   =    -801.35108710 Ry
     estimated scf accuracy    <      47.14841635 Ry

     iteration # 88     ecut=    30.00 Ry     beta=0.70
     Davidson diagonalization with overlap
     ethr =  1.00E-02,  avg # of iterations =  9.0

     negative rho (up, down):  4.906E-01 0.000E+00

     total cpu time spent up to now is       52.7 secs

     total energy              =     112.77760468 Ry
     Harris-Foulkes estimate   =   -1338.44697161 Ry
     estimated scf accuracy    <      50.72640958 Ry

     iteration # 89     ecut=    30.00 Ry     beta=0.70
     Davidson diagonalization with overlap
     ethr =  1.00E-02,  avg # of iterations =  5.0

     negative rho (up, down):  3.075E-01 0.000E+00

     total cpu time spent up to now is       52.8 secs

     total energy              =    -249.62523476 Ry
     Harris-Foulkes estimate   =    -910.67928369 Ry
     estimated scf accuracy    <      24.61337110 Ry

     iteration # 90     ecut=    30.00 Ry     beta=0.70
     Davidson diagonalization with overlap
     ethr =  1.00E-02,  avg # of iterations = 11.0

     negative rho (up, down):  3.896E-01 0.000E+00

     total cpu time spent up to now is       52.8 secs

     total energy              =   -1388.08753302 Ry
     Harris-Foulkes estimate   =   -6565.81623862 Ry
     estimated scf accuracy    <      24.88746935 Ry

     iteration # 91     ecut=    30.00 Ry     beta=0.70
     Davidson diagonalization with overlap
     ethr =  1.00E-02,  avg # of iterations = 11.0

     negative rho (up, down):  3.277E-01 0.000E+00

     total cpu time spent up to now is       52.9 secs

     total energy              =    -153.06985082 Ry
     Harris-Foulkes estimate   =   -9633.69772291 Ry
     estimated scf accuracy    <      42.63588441 Ry

     iteration # 92     ecut=    30.00 Ry     beta=0.70
     Davidson diagonalization with overlap
     ethr =  1.00E-02,  avg # of iterations =  9.0

     negative rho (up, down):  3.621E-02 0.000E+00

     total cpu time spent up to now is       52.9 secs

     total energy              =      80.47311413 Ry
     Harris-Foulkes estimate   =   -7707.32988424 Ry
     estimated scf accuracy    <      14.43819786 Ry

     iteration # 93     ecut=    30.00 Ry     beta=0.70
     Davidson diagonalization with overlap
     ethr =  1.00E-02,  avg # of iterations =  9.0

     negative rho (up, down):  2.002E-02 0.000E+00

     total cpu time spent up to now is       53.0 secs

     total energy              =      62.96697361 Ry
     Harris-Foulkes estimate   =    -247.78281852 Ry
     estimated scf accuracy    <      17.15909697 Ry

     iteration # 94     ecut=    30.00 Ry     beta=0.70
     Davidson diagonalization with overlap
     ethr =  1.00E-02,  avg # of iterations =  6.0

     negative rho (up, down):  7.399E-02 0.000E+00

     total cpu time spent up to now is       53.0 secs

     total energy              =      76.94928033 Ry
     Harris-Foulkes estimate   =    -163.89634498 Ry
     estimated scf accuracy    <      14.00883536 Ry

     iteration # 95     ecut=    30.00 Ry     beta=0.70
     Davidson diagonalization with overlap
     ethr =  1.00E-02,  avg # of iterations = 12.0

     negative rho (up, down):  1.195E-01 0.000E+00

     total cpu time spent up to now is       53.1 secs

     total energy              =      -3.13441563 Ry
     Harris-Foulkes estimate   =     -80.03574940 Ry
     estimated scf accuracy    <      22.72830192 Ry

     iteration # 96     ecut=    30.00 Ry     beta=0.70
     Davidson diagonalization with overlap
     ethr =  1.00E-02,  avg # of iterations =  7.0

     negative rho (up, down):  1.091E-01 0.000E+00

     total cpu time spent up to now is       53.2 secs

     total energy              =     112.69984182 Ry
     Harris-Foulkes estimate   =    -804.54029779 Ry
     estimated scf accuracy    <      42.61819426 Ry

     iteration # 97     ecut=    30.00 Ry     beta=0.70
     Davidson diagonalization with overlap
     ethr =  1.00E-02,  avg # of iterations = 11.0

     negative rho (up, down):  9.642E-02 0.000E+00

     total cpu time spent up to now is       53.2 secs

     total energy              =      36.54834229 Ry
     Harris-Foulkes estimate   =   -1522.42291889 Ry
     estimated scf accuracy    <      24.49265421 Ry

     iteration # 98     ecut=    30.00 Ry     beta=0.70
     Davidson diagonalization with overlap
     ethr =  1.00E-02,  avg # of iterations =  6.0

     negative rho (up, down):  6.729E-02 0.000E+00

     total cpu time spent up to now is       53.3 secs

     total energy              =      -5.70368886 Ry
     Harris-Foulkes estimate   =    -152.36961449 Ry
     estimated scf accuracy    <      16.51991897 Ry

     iteration # 99     ecut=    30.00 Ry     beta=0.70
     Davidson diagonalization with overlap
     ethr =  1.00E-02,  avg # of iterations =  4.0

     negative rho (up, down):  4.324E-03 0.000E+00

     total cpu time spent up to now is       53.3 secs

     total energy              =     312.44751274 Ry
     Harris-Foulkes estimate   =     -82.15636792 Ry
     estimated scf accuracy    <      23.98721858 Ry

     iteration #100     ecut=    30.00 Ry     beta=0.70
     Davidson diagonalization with overlap
     ethr =  1.00E-02,  avg # of iterations =  4.0

     negative rho (up, down):  4.280E-02 0.000E+00

     total cpu time spent up to now is       53.4 secs

     total energy              =     -56.94682278 Ry
     Harris-Foulkes estimate   =    -144.20303296 Ry
     estimated scf accuracy    <      21.77390859 Ry

     End of self-consistent calculation

     convergence NOT achieved after 100 iterations: stopping

     Writing output data file pwscf.save
 
     init_run     :      0.09s CPU      0.10s WALL (       1 calls)
     electrons    :     33.88s CPU     43.39s WALL (      34 calls)
     update_pot   :      4.23s CPU      6.40s WALL (      33 calls)
     forces       :      0.86s CPU      0.89s WALL (      33 calls)

     Called by init_run:
     wfcinit      :      0.01s CPU      0.02s WALL (       1 calls)
     potinit      :      0.02s CPU      0.03s WALL (       1 calls)

     Called by electrons:
     c_bands      :     14.47s CPU     15.44s WALL (    1038 calls)
     sum_band     :      3.03s CPU      3.32s WALL (    1038 calls)
     v_of_rho     :      7.51s CPU      7.95s WALL (    1072 calls)
     mix_rho      :      7.11s CPU     12.41s WALL (    1038 calls)

     Called by c_bands:
     init_us_2    :      0.10s CPU      0.12s WALL (    2077 calls)
     cegterg      :     14.27s CPU     14.96s WALL (    1038 calls)

     Called by sum_band:

     Called by *egterg:
     h_psi        :     12.05s CPU     12.64s WALL (    4209 calls)
     g_psi        :      0.11s CPU      0.11s WALL (    3170 calls)
     cdiaghg      :      0.81s CPU      0.84s WALL (    4175 calls)

     Called by h_psi:
     h_psi:pot    :     11.98s CPU     12.56s WALL (    4209 calls)
     h_psi:calbec :      0.27s CPU      0.38s WALL (    4209 calls)
     vloc_psi     :     11.65s CPU     12.12s WALL (    4209 calls)
     add_vuspsi   :      0.03s CPU      0.04s WALL (    4209 calls)

     General routines
     calbec       :      0.50s CPU      0.70s WALL (    4373 calls)
     fft          :      5.32s CPU      5.66s WALL (   11858 calls)
     fftw         :     12.41s CPU     13.08s WALL (   55384 calls)
     davcio       :      1.07s CPU      4.39s WALL (   17747 calls)
 
     Parallel routines
     fft_scatter  :      7.42s CPU      8.17s WALL (   67242 calls)
 
     PWSCF        :    39.92s CPU        53.43s WALL

 
   This run was terminated on:   8:16: 3  14Feb2018            

=------------------------------------------------------------------------------=
   JOB DONE.
=------------------------------------------------------------------------------=
