
     Program PWSCF v.6.0 (svn rev. 13079) starts on 14Feb2018 at  8:16:16 

     This program is part of the open-source Quantum ESPRESSO suite
     for quantum simulation of materials; please cite
         "P. Giannozzi et al., J. Phys.:Condens. Matter 21 395502 (2009);
          URL http://www.quantum-espresso.org", 
     in publications or presentations arising from this work. More details at
     http://www.quantum-espresso.org/quote

     Parallel version (MPI), running on    28 processors
     R & G space division:  proc/nbgrp/npool/nimage =      28
     Reading input from inputs/MD-H2O-2/315.in

     Current dimensions of program PWSCF are:
     Max number of different atomic species (ntypx) = 10
     Max number of k-points (npk) =  40000
     Max angular momentum in pseudopotentials (lmaxx) =  3

     Subspace diagonalization in iterative solution of the eigenvalue problem:
     a serial algorithm will be used

 
     Parallelization info
     --------------------
     sticks:   dense  smooth     PW     G-vecs:    dense   smooth      PW
     Min         136     136     33                 6338     6338     787
     Max         137     137     34                 6341     6341     792
     Sum        3809    3809    949               177509   177509   22119
 


     bravais-lattice index     =            1
     lattice parameter (alat)  =      20.0000  a.u.
     unit-cell volume          =    8000.0000 (a.u.)^3
     number of atoms/cell      =            3
     number of atomic types    =            2
     number of electrons       =         8.00
     number of Kohn-Sham states=            8
     kinetic-energy cutoff     =      30.0000  Ry
     charge density cutoff     =     120.0000  Ry
     convergence threshold     =      1.0E-08
     mixing beta               =       0.7000
     number of iterations used =            8  plain     mixing
     Exchange-correlation      = BLYP ( 1  3  1  3 0 0)
     nstep                     =         5000


     celldm(1)=  20.000000  celldm(2)=   0.000000  celldm(3)=   0.000000
     celldm(4)=   0.000000  celldm(5)=   0.000000  celldm(6)=   0.000000

     crystal axes: (cart. coord. in units of alat)
               a(1) = (   1.000000   0.000000   0.000000 )  
               a(2) = (   0.000000   1.000000   0.000000 )  
               a(3) = (   0.000000   0.000000   1.000000 )  

     reciprocal axes: (cart. coord. in units 2 pi/alat)
               b(1) = (  1.000000  0.000000  0.000000 )  
               b(2) = (  0.000000  1.000000  0.000000 )  
               b(3) = (  0.000000  0.000000  1.000000 )  


     PseudoPot. # 1 for  H read from file:
     ./H.blyp-hgh.UPF
     MD5 check sum: c576e69559cde411e611be972c763230
     Pseudo is Norm-conserving, Zval =  1.0
     Generated in analytical, separable form
     Using radial grid of  929 points,  0 beta functions with: 

     PseudoPot. # 2 for  O read from file:
     ./O.blyp-hgh.UPF
     MD5 check sum: d0b7156309aa9befef28faac7bc56342
     Pseudo is Norm-conserving, Zval =  6.0
     Generated in analytical, separable form
     Using radial grid of 1095 points,  1 beta functions with: 
                l(1) =   0

     atomic species   valence    mass     pseudopotential
        H              1.00     1.01000      H( 1.00)
        O              6.00    16.00000      O( 1.00)

     No symmetry found



   Cartesian axes

     site n.     atom                  positions (alat units)
         1           H   tau(   1) = (   0.1051631   0.6036401   0.6122241  )
         2           H   tau(   2) = (   0.3405112   0.1040773   0.8416622  )
         3           O   tau(   3) = (   0.2931262   0.0844468   0.7564118  )

     number of k points=     1  Marzari-Vanderbilt smearing, width (Ry)=  0.0250
                       cart. coord. in units 2pi/alat
        k(    1) = (   0.0000000   0.0000000   0.0000000), wk =   2.0000000

     Dense  grid:   177509 G-vectors     FFT dimensions: (  72,  72,  72)

     Estimated max dynamical RAM per process >       6.09Mb

     Estimated total allocated dynamical RAM >     170.64Mb

     Initial potential from superposition of free atoms
     Check: negative starting charge=   -0.347237

     starting charge    7.99998, renormalised to    8.00000

     negative rho (up, down):  3.472E-01 0.000E+00
     Starting wfc are    6 randomized atomic wfcs +    2 random wfc

     total cpu time spent up to now is        0.2 secs

     per-process dynamical memory:    18.8 Mb

     Self-consistent Calculation

     iteration #  1     ecut=    30.00 Ry     beta=0.70
     Davidson diagonalization with overlap
     ethr =  1.00E-02,  avg # of iterations =  6.0

     negative rho (up, down):  9.037E-02 0.000E+00

     total cpu time spent up to now is        0.3 secs

     total energy              =     -30.36397765 Ry
     Harris-Foulkes estimate   =     -32.23417999 Ry
     estimated scf accuracy    <       2.15569229 Ry

     iteration #  2     ecut=    30.00 Ry     beta=0.70
     Davidson diagonalization with overlap
     ethr =  1.00E-02,  avg # of iterations =  3.0

     negative rho (up, down):  6.567E-02 0.000E+00

     total cpu time spent up to now is        0.3 secs

     total energy              =     -32.28857123 Ry
     Harris-Foulkes estimate   =     -34.54639285 Ry
     estimated scf accuracy    <       5.49136000 Ry

     iteration #  3     ecut=    30.00 Ry     beta=0.70
     Davidson diagonalization with overlap
     ethr =  1.00E-02,  avg # of iterations =  2.0

     negative rho (up, down):  6.301E-02 0.000E+00

     total cpu time spent up to now is        0.3 secs

     total energy              =     -32.43244650 Ry
     Harris-Foulkes estimate   =     -32.52145883 Ry
     estimated scf accuracy    <       1.77795815 Ry

     iteration #  4     ecut=    30.00 Ry     beta=0.70
     Davidson diagonalization with overlap
     ethr =  1.00E-02,  avg # of iterations =  1.0

     negative rho (up, down):  1.119E-02 0.000E+00

     total cpu time spent up to now is        0.4 secs

     total energy              =     -31.30799943 Ry
     Harris-Foulkes estimate   =     -32.43277224 Ry
     estimated scf accuracy    <       1.65519772 Ry

     iteration #  5     ecut=    30.00 Ry     beta=0.70
     Davidson diagonalization with overlap
     ethr =  1.00E-02,  avg # of iterations =  4.0

     negative rho (up, down):  2.219E-02 0.000E+00

     total cpu time spent up to now is        0.4 secs

     total energy              =     -33.37901134 Ry
     Harris-Foulkes estimate   =     -33.23250987 Ry
     estimated scf accuracy    <       7.97972603 Ry

     iteration #  6     ecut=    30.00 Ry     beta=0.70
     Davidson diagonalization with overlap
     ethr =  1.00E-02,  avg # of iterations =  1.0

     negative rho (up, down):  1.744E-02 0.000E+00

     total cpu time spent up to now is        0.4 secs

     total energy              =     -33.00369166 Ry
     Harris-Foulkes estimate   =     -33.38808095 Ry
     estimated scf accuracy    <       9.30095891 Ry

     iteration #  7     ecut=    30.00 Ry     beta=0.70
     Davidson diagonalization with overlap
     ethr =  1.00E-02,  avg # of iterations =  1.0

     negative rho (up, down):  1.326E-02 0.000E+00

     total cpu time spent up to now is        0.5 secs

     total energy              =     -32.86578058 Ry
     Harris-Foulkes estimate   =     -33.06225515 Ry
     estimated scf accuracy    <       3.70101100 Ry

     iteration #  8     ecut=    30.00 Ry     beta=0.70
     Davidson diagonalization with overlap
     ethr =  1.00E-02,  avg # of iterations =  1.0

     negative rho (up, down):  3.854E-02 0.000E+00

     total cpu time spent up to now is        0.5 secs

     total energy              =     -32.54996598 Ry
     Harris-Foulkes estimate   =     -32.87872659 Ry
     estimated scf accuracy    <       2.92076851 Ry

     iteration #  9     ecut=    30.00 Ry     beta=0.70
     Davidson diagonalization with overlap
     ethr =  1.00E-02,  avg # of iterations =  1.0

     negative rho (up, down):  5.133E-02 0.000E+00

     total cpu time spent up to now is        0.5 secs

     total energy              =     -32.13217687 Ry
     Harris-Foulkes estimate   =     -32.55652376 Ry
     estimated scf accuracy    <       2.29525763 Ry

     iteration # 10     ecut=    30.00 Ry     beta=0.70
     Davidson diagonalization with overlap
     ethr =  1.00E-02,  avg # of iterations =  1.0

     negative rho (up, down):  4.591E-02 0.000E+00

     total cpu time spent up to now is        0.6 secs

     total energy              =     -32.32198674 Ry
     Harris-Foulkes estimate   =     -32.14590590 Ry
     estimated scf accuracy    <       1.53852283 Ry

     iteration # 11     ecut=    30.00 Ry     beta=0.70
     Davidson diagonalization with overlap
     ethr =  1.00E-02,  avg # of iterations =  1.0

     negative rho (up, down):  3.068E-02 0.000E+00

     total cpu time spent up to now is        0.6 secs

     total energy              =     -32.15710451 Ry
     Harris-Foulkes estimate   =     -32.32466923 Ry
     estimated scf accuracy    <       1.83003141 Ry

     iteration # 12     ecut=    30.00 Ry     beta=0.70
     Davidson diagonalization with overlap
     ethr =  1.00E-02,  avg # of iterations =  1.0

     negative rho (up, down):  2.686E-01 0.000E+00

     total cpu time spent up to now is        0.6 secs

     total energy              =     -31.74102117 Ry
     Harris-Foulkes estimate   =     -32.15939042 Ry
     estimated scf accuracy    <       1.54194022 Ry

     iteration # 13     ecut=    30.00 Ry     beta=0.70
     Davidson diagonalization with overlap
     ethr =  1.00E-02,  avg # of iterations =  1.0

     negative rho (up, down):  2.369E-01 0.000E+00

     total cpu time spent up to now is        0.7 secs

     total energy              =     -32.03667942 Ry
     Harris-Foulkes estimate   =     -32.11752863 Ry
     estimated scf accuracy    <       1.01648024 Ry

     iteration # 14     ecut=    30.00 Ry     beta=0.70
     Davidson diagonalization with overlap
     ethr =  1.00E-02,  avg # of iterations =  1.0

     negative rho (up, down):  4.689E-02 0.000E+00

     total cpu time spent up to now is        0.7 secs

     total energy              =     -31.66524510 Ry
     Harris-Foulkes estimate   =     -32.03709071 Ry
     estimated scf accuracy    <       0.91865960 Ry

     iteration # 15     ecut=    30.00 Ry     beta=0.70
     Davidson diagonalization with overlap
     ethr =  1.00E-02,  avg # of iterations =  2.0

     negative rho (up, down):  3.833E-02 0.000E+00

     total cpu time spent up to now is        0.7 secs

     total energy              =     -32.27889201 Ry
     Harris-Foulkes estimate   =     -32.36058411 Ry
     estimated scf accuracy    <       1.81686326 Ry

     iteration # 16     ecut=    30.00 Ry     beta=0.70
     Davidson diagonalization with overlap
     ethr =  1.00E-02,  avg # of iterations =  1.0

     negative rho (up, down):  1.123E-02 0.000E+00

     total cpu time spent up to now is        0.8 secs

     total energy              =     -32.22880586 Ry
     Harris-Foulkes estimate   =     -32.27975313 Ry
     estimated scf accuracy    <       1.68749259 Ry

     iteration # 17     ecut=    30.00 Ry     beta=0.70
     Davidson diagonalization with overlap
     ethr =  1.00E-02,  avg # of iterations =  1.0

     negative rho (up, down):  1.673E-02 0.000E+00

     total cpu time spent up to now is        0.8 secs

     total energy              =     -31.88388218 Ry
     Harris-Foulkes estimate   =     -32.22940263 Ry
     estimated scf accuracy    <       1.60017362 Ry

     iteration # 18     ecut=    30.00 Ry     beta=0.70
     Davidson diagonalization with overlap
     ethr =  1.00E-02,  avg # of iterations =  1.0

     negative rho (up, down):  1.551E-03 0.000E+00

     total cpu time spent up to now is        0.8 secs

     total energy              =     -31.94285789 Ry
     Harris-Foulkes estimate   =     -31.97375481 Ry
     estimated scf accuracy    <       0.88838749 Ry

     iteration # 19     ecut=    30.00 Ry     beta=0.70
     Davidson diagonalization with overlap
     ethr =  1.00E-02,  avg # of iterations =  1.0

     negative rho (up, down):  7.350E-03 0.000E+00

     total cpu time spent up to now is        0.9 secs

     total energy              =     -31.97683294 Ry
     Harris-Foulkes estimate   =     -31.94926751 Ry
     estimated scf accuracy    <       0.16647518 Ry

     iteration # 20     ecut=    30.00 Ry     beta=0.70
     Davidson diagonalization with overlap
     ethr =  2.08E-03,  avg # of iterations =  1.0

     negative rho (up, down):  1.949E-03 0.000E+00

     total cpu time spent up to now is        0.9 secs

     total energy              =     -31.89362719 Ry
     Harris-Foulkes estimate   =     -32.00490926 Ry
     estimated scf accuracy    <       0.95819253 Ry

     iteration # 21     ecut=    30.00 Ry     beta=0.70
     Davidson diagonalization with overlap
     ethr =  2.08E-03,  avg # of iterations =  1.0

     negative rho (up, down):  3.555E-04 0.000E+00

     total cpu time spent up to now is        0.9 secs

     total energy              =     -31.89886225 Ry
     Harris-Foulkes estimate   =     -31.97639073 Ry
     estimated scf accuracy    <       1.57096094 Ry

     iteration # 22     ecut=    30.00 Ry     beta=0.70
     Davidson diagonalization with overlap
     ethr =  2.08E-03,  avg # of iterations =  1.0

     negative rho (up, down):  2.899E-04 0.000E+00

     total cpu time spent up to now is        1.0 secs

     total energy              =     -31.91944230 Ry
     Harris-Foulkes estimate   =     -31.95501295 Ry
     estimated scf accuracy    <       0.45026007 Ry

     iteration # 23     ecut=    30.00 Ry     beta=0.70
     Davidson diagonalization with overlap
     ethr =  2.08E-03,  avg # of iterations =  1.0

     negative rho (up, down):  1.665E-06 0.000E+00

     total cpu time spent up to now is        1.0 secs

     total energy              =     -31.89817542 Ry
     Harris-Foulkes estimate   =     -31.96600703 Ry
     estimated scf accuracy    <       1.26848484 Ry

     iteration # 24     ecut=    30.00 Ry     beta=0.70
     Davidson diagonalization with overlap
     ethr =  2.08E-03,  avg # of iterations =  1.0

     negative rho (up, down):  4.112E-08 0.000E+00

     total cpu time spent up to now is        1.0 secs

     total energy              =     -31.94547768 Ry
     Harris-Foulkes estimate   =     -31.96025226 Ry
     estimated scf accuracy    <       0.63823034 Ry

     iteration # 25     ecut=    30.00 Ry     beta=0.70
     Davidson diagonalization with overlap
     ethr =  2.08E-03,  avg # of iterations =  1.0

     negative rho (up, down):  9.177E-07 0.000E+00

     total cpu time spent up to now is        1.1 secs

     total energy              =     -31.94561536 Ry
     Harris-Foulkes estimate   =     -31.94882866 Ry
     estimated scf accuracy    <       0.14180679 Ry

     iteration # 26     ecut=    30.00 Ry     beta=0.70
     Davidson diagonalization with overlap
     ethr =  1.77E-03,  avg # of iterations =  1.0

     negative rho (up, down):  3.516E-07 0.000E+00

     total cpu time spent up to now is        1.1 secs

     total energy              =     -31.94687788 Ry
     Harris-Foulkes estimate   =     -31.94682507 Ry
     estimated scf accuracy    <       0.00672836 Ry

     iteration # 27     ecut=    30.00 Ry     beta=0.70
     Davidson diagonalization with overlap
     ethr =  8.41E-05,  avg # of iterations =  1.0

     negative rho (up, down):  1.411E-07 0.000E+00

     total cpu time spent up to now is        1.1 secs

     total energy              =     -31.94677647 Ry
     Harris-Foulkes estimate   =     -31.94688606 Ry
     estimated scf accuracy    <       0.01120336 Ry

     iteration # 28     ecut=    30.00 Ry     beta=0.70
     Davidson diagonalization with overlap
     ethr =  8.41E-05,  avg # of iterations =  1.0

     negative rho (up, down):  9.867E-08 0.000E+00

     total cpu time spent up to now is        1.2 secs

     total energy              =     -31.94672157 Ry
     Harris-Foulkes estimate   =     -31.94679745 Ry
     estimated scf accuracy    <       0.00455982 Ry

     iteration # 29     ecut=    30.00 Ry     beta=0.70
     Davidson diagonalization with overlap
     ethr =  5.70E-05,  avg # of iterations =  1.0

     total cpu time spent up to now is        1.2 secs

     total energy              =     -31.94673285 Ry
     Harris-Foulkes estimate   =     -31.94674529 Ry
     estimated scf accuracy    <       0.00062613 Ry

     iteration # 30     ecut=    30.00 Ry     beta=0.70
     Davidson diagonalization with overlap
     ethr =  7.83E-06,  avg # of iterations = 18.0

     total cpu time spent up to now is        1.3 secs

     total energy              =     -31.94673487 Ry
     Harris-Foulkes estimate   =     -31.94673688 Ry
     estimated scf accuracy    <       0.00005833 Ry

     iteration # 31     ecut=    30.00 Ry     beta=0.70
     Davidson diagonalization with overlap
     ethr =  7.29E-07,  avg # of iterations =  6.0

     total cpu time spent up to now is        1.3 secs

     total energy              =     -31.94673582 Ry
     Harris-Foulkes estimate   =     -31.94673568 Ry
     estimated scf accuracy    <       0.00000005 Ry

     iteration # 32     ecut=    30.00 Ry     beta=0.70
     Davidson diagonalization with overlap
     ethr =  6.81E-10,  avg # of iterations =  2.0

     total cpu time spent up to now is        1.3 secs

     End of self-consistent calculation

          k = 0.0000 0.0000 0.0000 ( 22119 PWs)   bands (ev):

   -24.7449 -10.5992  -7.0080  -7.0074  -6.8658  -0.6795   0.3605   0.8398

     the Fermi energy is    -6.8365 ev

!    total energy              =     -31.94673588 Ry
     Harris-Foulkes estimate   =     -31.94673584 Ry
     estimated scf accuracy    <          9.7E-09 Ry

     convergence has been achieved in  32 iterations

     Forces acting on atoms (Ry/au):

     atom    1 type  1   force =    -0.00023845   -0.00017251    0.00018840
     atom    2 type  1   force =     0.00728681    0.00268501    0.01279811
     atom    3 type  2   force =    -0.00704836   -0.00251250   -0.01298651

     Total force =     0.021186     Total SCF correction =     0.000218

     Molecular Dynamics Calculation

     Starting temperature  =  1000.00 K

     temperature is controlled by Andersen thermostat
     Collision frequency = 1.0000/timestep
     mass H                =     1.01
     mass O                =    16.00
     Time step             =   100.00 a.u.,  4.8378 femto-seconds

     Entering Dynamics:    iteration =     1
                           time      =   0.0048 pico-seconds


     Andersen thermostat:    3 collisions

ATOMIC_POSITIONS (bohr)
H        2.333524932  12.348405179  12.047377412
H        6.856334598   2.325143615  16.713860606
O        5.845077984   1.656162450  15.148213304


     kinetic energy (Ekin) =     0.01319564 Ry
     temperature           =   694.47456190 K 
     Ekin + Etot (const)   =   -31.93354025 Ry

     Linear momentum :   -0.0000000000    0.0000000000   -0.0000000000

     Writing output data file pwscf.save
     Check: negative starting charge=   -0.347237
     NEW-OLD atomic charge density approx. for the potential
     Check: negative starting charge=   -0.346573

     negative rho (up, down):  8.475E-02 0.000E+00

     total cpu time spent up to now is        1.6 secs

     per-process dynamical memory:    20.4 Mb

     Self-consistent Calculation

     iteration #  1     ecut=    30.00 Ry     beta=0.70
     Davidson diagonalization with overlap
     c_bands:  1 eigenvalues not converged
     ethr =  1.00E-06,  avg # of iterations = 20.0

     negative rho (up, down):  2.079E-02 0.000E+00

     total cpu time spent up to now is        1.7 secs

     total energy              =     -31.89994235 Ry
     Harris-Foulkes estimate   =     -31.88167434 Ry
     estimated scf accuracy    <       0.03698896 Ry

     iteration #  2     ecut=    30.00 Ry     beta=0.70
     Davidson diagonalization with overlap
     ethr =  4.62E-04,  avg # of iterations =  2.0

     negative rho (up, down):  1.854E-02 0.000E+00

     total cpu time spent up to now is        1.7 secs

     total energy              =     -31.93699141 Ry
     Harris-Foulkes estimate   =     -32.17446655 Ry
     estimated scf accuracy    <       1.62379234 Ry

     iteration #  3     ecut=    30.00 Ry     beta=0.70
     Davidson diagonalization with overlap
     ethr =  4.62E-04,  avg # of iterations =  2.0

     negative rho (up, down):  1.738E-02 0.000E+00

     total cpu time spent up to now is        1.8 secs

     total energy              =     -31.90865009 Ry
     Harris-Foulkes estimate   =     -31.94108135 Ry
     estimated scf accuracy    <       0.86018802 Ry

     iteration #  4     ecut=    30.00 Ry     beta=0.70
     Davidson diagonalization with overlap
     ethr =  4.62E-04,  avg # of iterations =  1.0

     negative rho (up, down):  2.275E-03 0.000E+00

     total cpu time spent up to now is        1.8 secs

     total energy              =     -31.94356250 Ry
     Harris-Foulkes estimate   =     -31.93323465 Ry
     estimated scf accuracy    <       0.17407025 Ry

     iteration #  5     ecut=    30.00 Ry     beta=0.70
     Davidson diagonalization with overlap
     ethr =  4.62E-04,  avg # of iterations =  4.0

     negative rho (up, down):  2.863E-04 0.000E+00

     total cpu time spent up to now is        1.8 secs

     total energy              =     -31.94636186 Ry
     Harris-Foulkes estimate   =     -31.94552184 Ry
     estimated scf accuracy    <       0.00282981 Ry

     iteration #  6     ecut=    30.00 Ry     beta=0.70
     Davidson diagonalization with overlap
     ethr =  3.54E-05,  avg # of iterations =  9.0

     negative rho (up, down):  4.812E-05 0.000E+00

     total cpu time spent up to now is        1.9 secs

     total energy              =     -31.94649676 Ry
     Harris-Foulkes estimate   =     -31.94652220 Ry
     estimated scf accuracy    <       0.00265308 Ry

     iteration #  7     ecut=    30.00 Ry     beta=0.70
     Davidson diagonalization with overlap
     ethr =  3.32E-05,  avg # of iterations =  1.0

     negative rho (up, down):  3.224E-08 0.000E+00

     total cpu time spent up to now is        1.9 secs

     total energy              =     -31.94646698 Ry
     Harris-Foulkes estimate   =     -31.94650837 Ry
     estimated scf accuracy    <       0.00065501 Ry

     iteration #  8     ecut=    30.00 Ry     beta=0.70
     Davidson diagonalization with overlap
     ethr =  8.19E-06,  avg # of iterations =  1.0

     total cpu time spent up to now is        1.9 secs

     total energy              =     -31.94646572 Ry
     Harris-Foulkes estimate   =     -31.94653502 Ry
     estimated scf accuracy    <       0.00214019 Ry

     iteration #  9     ecut=    30.00 Ry     beta=0.70
     Davidson diagonalization with overlap
     ethr =  8.19E-06,  avg # of iterations =  1.0

     total cpu time spent up to now is        2.0 secs

     total energy              =     -31.94650911 Ry
     Harris-Foulkes estimate   =     -31.94650850 Ry
     estimated scf accuracy    <       0.00012171 Ry

     iteration # 10     ecut=    30.00 Ry     beta=0.70
     Davidson diagonalization with overlap
     ethr =  1.52E-06,  avg # of iterations = 18.0

     total cpu time spent up to now is        2.0 secs

     total energy              =     -31.94650321 Ry
     Harris-Foulkes estimate   =     -31.94650927 Ry
     estimated scf accuracy    <       0.00020538 Ry

     iteration # 11     ecut=    30.00 Ry     beta=0.70
     Davidson diagonalization with overlap
     ethr =  1.52E-06,  avg # of iterations =  1.0

     total cpu time spent up to now is        2.1 secs

     total energy              =     -31.94650630 Ry
     Harris-Foulkes estimate   =     -31.94650644 Ry
     estimated scf accuracy    <       0.00000216 Ry

     iteration # 12     ecut=    30.00 Ry     beta=0.70
     Davidson diagonalization with overlap
     ethr =  2.70E-08,  avg # of iterations =  1.0

     total cpu time spent up to now is        2.1 secs

     End of self-consistent calculation

          k = 0.0000 0.0000 0.0000 ( 22119 PWs)   bands (ev):

   -24.7688 -10.6125  -7.0099  -7.0093  -6.8675  -0.6692   0.3659   0.8381

     the Fermi energy is    -6.8383 ev

!    total energy              =     -31.94650626 Ry
     Harris-Foulkes estimate   =     -31.94650633 Ry
     estimated scf accuracy    <          7.8E-11 Ry

     convergence has been achieved in  12 iterations

     Forces acting on atoms (Ry/au):

     atom    1 type  1   force =    -0.00017338    0.00011914    0.00051191
     atom    2 type  1   force =     0.01278046    0.00787691    0.01988721
     atom    3 type  2   force =    -0.01260708   -0.00799605   -0.02039912

     Total force =     0.035499     Total SCF correction =     0.000078

     Entering Dynamics:    iteration =     2
                           time      =   0.0097 pico-seconds


     Andersen thermostat:    3 collisions

ATOMIC_POSITIONS (bohr)
H        2.384055196  12.525849252  12.198069018
H        7.058424739   2.256859578  17.106135916
O        5.829131321   1.649271723  15.113938517


     kinetic energy (Ekin) =     0.01122450 Ry
     temperature           =   590.73520018 K 
     Ekin + Etot (const)   =   -31.93528176 Ry
     Message from routine dynamics:
     Total linear momentum <> 0

     Linear momentum :   -0.0482643422    0.4839037204    0.0463385468

     Writing output data file pwscf.save

     first order wave-functions extrapolation
     Check: negative starting charge=   -0.346573
     first order charge density extrapolation
     Check: negative starting charge=   -0.344531

     negative rho (up, down):  1.255E-01 0.000E+00

     total cpu time spent up to now is        2.4 secs

     per-process dynamical memory:    20.4 Mb

     Self-consistent Calculation

     iteration #  1     ecut=    30.00 Ry     beta=0.70
     Davidson diagonalization with overlap
     c_bands:  1 eigenvalues not converged
     ethr =  1.00E-06,  avg # of iterations = 20.0

     negative rho (up, down):  3.091E-02 0.000E+00

     total cpu time spent up to now is        2.6 secs

     total energy              =     -30.65082199 Ry
     Harris-Foulkes estimate   =     -31.84123332 Ry
     estimated scf accuracy    <       1.54853503 Ry

     iteration #  2     ecut=    30.00 Ry     beta=0.70
     Davidson diagonalization with overlap
     ethr =  1.00E-02,  avg # of iterations =  3.0

     negative rho (up, down):  2.310E-02 0.000E+00

     total cpu time spent up to now is        2.6 secs

     total energy              =     -32.24651635 Ry
     Harris-Foulkes estimate   =     -34.26178048 Ry
     estimated scf accuracy    <       5.25855288 Ry

     iteration #  3     ecut=    30.00 Ry     beta=0.70
     Davidson diagonalization with overlap
     ethr =  1.00E-02,  avg # of iterations =  2.0

     negative rho (up, down):  1.963E-02 0.000E+00

     total cpu time spent up to now is        2.6 secs

     total energy              =     -32.18542915 Ry
     Harris-Foulkes estimate   =     -32.47494409 Ry
     estimated scf accuracy    <       1.71404017 Ry

     iteration #  4     ecut=    30.00 Ry     beta=0.70
     Davidson diagonalization with overlap
     ethr =  1.00E-02,  avg # of iterations =  1.0

     negative rho (up, down):  1.536E-02 0.000E+00

     total cpu time spent up to now is        2.7 secs

     total energy              =     -31.87082537 Ry
     Harris-Foulkes estimate   =     -32.18711483 Ry
     estimated scf accuracy    <       1.34188734 Ry

     iteration #  5     ecut=    30.00 Ry     beta=0.70
     Davidson diagonalization with overlap
     ethr =  1.00E-02,  avg # of iterations =  1.0

     negative rho (up, down):  1.203E-02 0.000E+00

     total cpu time spent up to now is        2.7 secs

     total energy              =     -31.69836440 Ry
     Harris-Foulkes estimate   =     -31.86880340 Ry
     estimated scf accuracy    <       0.84397077 Ry

     iteration #  6     ecut=    30.00 Ry     beta=0.70
     Davidson diagonalization with overlap
     ethr =  1.00E-02,  avg # of iterations =  4.0

     negative rho (up, down):  2.242E-03 0.000E+00

     total cpu time spent up to now is        2.7 secs

     total energy              =     -32.12192528 Ry
     Harris-Foulkes estimate   =     -32.10346634 Ry
     estimated scf accuracy    <       1.51406452 Ry

     iteration #  7     ecut=    30.00 Ry     beta=0.70
     Davidson diagonalization with overlap
     ethr =  1.00E-02,  avg # of iterations =  1.0

     negative rho (up, down):  1.474E-05 0.000E+00

     total cpu time spent up to now is        2.8 secs

     total energy              =     -31.88628327 Ry
     Harris-Foulkes estimate   =     -32.12225359 Ry
     estimated scf accuracy    <       1.53463250 Ry

     iteration #  8     ecut=    30.00 Ry     beta=0.70
     Davidson diagonalization with overlap
     ethr =  1.00E-02,  avg # of iterations =  1.0

     negative rho (up, down):  4.725E-05 0.000E+00

     total cpu time spent up to now is        2.8 secs

     total energy              =     -31.88779117 Ry
     Harris-Foulkes estimate   =     -31.89586178 Ry
     estimated scf accuracy    <       0.06425426 Ry

     iteration #  9     ecut=    30.00 Ry     beta=0.70
     Davidson diagonalization with overlap
     ethr =  8.03E-04,  avg # of iterations =  1.0

     negative rho (up, down):  2.694E-05 0.000E+00

     total cpu time spent up to now is        2.8 secs

     total energy              =     -31.88275676 Ry
     Harris-Foulkes estimate   =     -31.90706647 Ry
     estimated scf accuracy    <       0.58631552 Ry

     iteration # 10     ecut=    30.00 Ry     beta=0.70
     Davidson diagonalization with overlap
     ethr =  8.03E-04,  avg # of iterations =  1.0

     negative rho (up, down):  2.046E-04 0.000E+00

     total cpu time spent up to now is        2.9 secs

     total energy              =     -31.89439790 Ry
     Harris-Foulkes estimate   =     -31.89544540 Ry
     estimated scf accuracy    <       0.03174300 Ry

     iteration # 11     ecut=    30.00 Ry     beta=0.70
     Davidson diagonalization with overlap
     ethr =  3.97E-04,  avg # of iterations =  1.0

     negative rho (up, down):  1.949E-04 0.000E+00

     total cpu time spent up to now is        2.9 secs

     total energy              =     -31.89315379 Ry
     Harris-Foulkes estimate   =     -31.89508498 Ry
     estimated scf accuracy    <       0.00311290 Ry

     iteration # 12     ecut=    30.00 Ry     beta=0.70
     Davidson diagonalization with overlap
     ethr =  3.89E-05,  avg # of iterations =  8.0

     negative rho (up, down):  5.798E-05 0.000E+00

     total cpu time spent up to now is        2.9 secs

     total energy              =     -31.88306832 Ry
     Harris-Foulkes estimate   =     -31.93514261 Ry
     estimated scf accuracy    <       1.55594370 Ry

     iteration # 13     ecut=    30.00 Ry     beta=0.70
     Davidson diagonalization with overlap
     ethr =  3.89E-05,  avg # of iterations =  2.0

     negative rho (up, down):  3.603E-07 0.000E+00

     total cpu time spent up to now is        3.0 secs

     total energy              =     -31.90179955 Ry
     Harris-Foulkes estimate   =     -31.89588973 Ry
     estimated scf accuracy    <       0.07028854 Ry

     iteration # 14     ecut=    30.00 Ry     beta=0.70
     Davidson diagonalization with overlap
     ethr =  3.89E-05,  avg # of iterations =  1.0

     negative rho (up, down):  1.100E-05 0.000E+00

     total cpu time spent up to now is        3.0 secs

     total energy              =     -31.90014146 Ry
     Harris-Foulkes estimate   =     -31.91063281 Ry
     estimated scf accuracy    <       1.08424555 Ry

     iteration # 15     ecut=    30.00 Ry     beta=0.70
     Davidson diagonalization with overlap
     ethr =  3.89E-05,  avg # of iterations =  1.0

     negative rho (up, down):  6.760E-05 0.000E+00

     total cpu time spent up to now is        3.0 secs

     total energy              =     -31.88927003 Ry
     Harris-Foulkes estimate   =     -31.90165884 Ry
     estimated scf accuracy    <       0.51559437 Ry

     iteration # 16     ecut=    30.00 Ry     beta=0.70
     Davidson diagonalization with overlap
     ethr =  3.89E-05,  avg # of iterations =  1.0

     negative rho (up, down):  1.623E-05 0.000E+00

     total cpu time spent up to now is        3.1 secs

     total energy              =     -31.89526588 Ry
     Harris-Foulkes estimate   =     -31.89499793 Ry
     estimated scf accuracy    <       0.00180958 Ry

     iteration # 17     ecut=    30.00 Ry     beta=0.70
     Davidson diagonalization with overlap
     ethr =  2.26E-05,  avg # of iterations =  1.0

     negative rho (up, down):  1.217E-06 0.000E+00

     total cpu time spent up to now is        3.1 secs

     total energy              =     -31.89329964 Ry
     Harris-Foulkes estimate   =     -31.89598272 Ry
     estimated scf accuracy    <       0.07926389 Ry

     iteration # 18     ecut=    30.00 Ry     beta=0.70
     Davidson diagonalization with overlap
     ethr =  2.26E-05,  avg # of iterations =  1.0

     total cpu time spent up to now is        3.1 secs

     total energy              =     -31.89488095 Ry
     Harris-Foulkes estimate   =     -31.89509562 Ry
     estimated scf accuracy    <       0.00843510 Ry

     iteration # 19     ecut=    30.00 Ry     beta=0.70
     Davidson diagonalization with overlap
     ethr =  2.26E-05,  avg # of iterations =  1.0

     total cpu time spent up to now is        3.2 secs

     total energy              =     -31.89498195 Ry
     Harris-Foulkes estimate   =     -31.89498279 Ry
     estimated scf accuracy    <       0.00001462 Ry

     iteration # 20     ecut=    30.00 Ry     beta=0.70
     Davidson diagonalization with overlap
     ethr =  1.83E-07,  avg # of iterations = 11.0

     total cpu time spent up to now is        3.2 secs

     total energy              =     -31.89498314 Ry
     Harris-Foulkes estimate   =     -31.89498254 Ry
     estimated scf accuracy    <       0.00000759 Ry

     iteration # 21     ecut=    30.00 Ry     beta=0.70
     Davidson diagonalization with overlap
     ethr =  9.48E-08,  avg # of iterations =  1.0

     total cpu time spent up to now is        3.3 secs

     total energy              =     -31.89498136 Ry
     Harris-Foulkes estimate   =     -31.89498381 Ry
     estimated scf accuracy    <       0.00009901 Ry

     iteration # 22     ecut=    30.00 Ry     beta=0.70
     Davidson diagonalization with overlap
     ethr =  9.48E-08,  avg # of iterations =  1.0

     total cpu time spent up to now is        3.3 secs

     total energy              =     -31.89498276 Ry
     Harris-Foulkes estimate   =     -31.89498272 Ry
     estimated scf accuracy    <       0.00000008 Ry

     iteration # 23     ecut=    30.00 Ry     beta=0.70
     Davidson diagonalization with overlap
     ethr =  1.02E-09,  avg # of iterations =  1.0

     total cpu time spent up to now is        3.3 secs

     End of self-consistent calculation

          k = 0.0000 0.0000 0.0000 ( 22119 PWs)   bands (ev):

   -23.9974  -9.8972  -6.9271  -6.9263  -6.7872  -1.6026   0.0839   0.8371

     the Fermi energy is    -6.7563 ev

!    total energy              =     -31.89498277 Ry
     Harris-Foulkes estimate   =     -31.89498276 Ry
     estimated scf accuracy    <          3.5E-10 Ry

     convergence has been achieved in  23 iterations

     Forces acting on atoms (Ry/au):

     atom    1 type  1   force =    -0.00001956    0.00021554    0.00002760
     atom    2 type  1   force =    -0.09713171   -0.04832046   -0.15831057
     atom    3 type  2   force =     0.09715127    0.04810491    0.15828297

     Total force =     0.271363     Total SCF correction =     0.000019

     Entering Dynamics:    iteration =     3
                           time      =   0.0145 pico-seconds


     Andersen thermostat:    3 collisions

ATOMIC_POSITIONS (bohr)
H        2.605455236  12.245471558  12.286816521
H        6.146643148   1.804513045  15.725363316
O        5.872711656   1.695524939  15.195497602


     kinetic energy (Ekin) =     0.03132959 Ry
     temperature           =  1648.84842368 K 
     Ekin + Etot (const)   =   -31.86365318 Ry
     Message from routine dynamics:
     Total linear momentum <> 0

     Linear momentum :    0.3047675616   -0.3500624036   -0.1369358232

     Writing output data file pwscf.save

     second order wave-functions extrapolation
     Check: negative starting charge=   -0.344531
     second order charge density extrapolation
     Check: negative starting charge=   -0.350150

     negative rho (up, down):  1.693E-01 0.000E+00

     total cpu time spent up to now is        3.7 secs

     per-process dynamical memory:    20.4 Mb

     Self-consistent Calculation

     iteration #  1     ecut=    30.00 Ry     beta=0.70
     Davidson diagonalization with overlap
     ethr =  1.00E-06,  avg # of iterations = 17.0

     negative rho (up, down):  2.967E-02 0.000E+00

     total cpu time spent up to now is        3.8 secs

     total energy              =       0.66300981 Ry
     Harris-Foulkes estimate   =     -41.97158301 Ry
     estimated scf accuracy    <       7.13601037 Ry

     iteration #  2     ecut=    30.00 Ry     beta=0.70
     Davidson diagonalization with overlap
     ethr =  1.00E-02,  avg # of iterations =  4.0

     negative rho (up, down):  1.756E-02 0.000E+00

     total cpu time spent up to now is        3.9 secs

     total energy              =     -24.93145954 Ry
     Harris-Foulkes estimate   =     -27.81879996 Ry
     estimated scf accuracy    <       6.11479592 Ry

     iteration #  3     ecut=    30.00 Ry     beta=0.70
     Davidson diagonalization with overlap
     ethr =  1.00E-02,  avg # of iterations =  2.0

     negative rho (up, down):  1.506E-02 0.000E+00

     total cpu time spent up to now is        3.9 secs

     total energy              =     -25.24811691 Ry
     Harris-Foulkes estimate   =     -26.11617158 Ry
     estimated scf accuracy    <       3.54146663 Ry

     iteration #  4     ecut=    30.00 Ry     beta=0.70
     Davidson diagonalization with overlap
     ethr =  1.00E-02,  avg # of iterations =  1.0

     negative rho (up, down):  1.012E-02 0.000E+00

     total cpu time spent up to now is        3.9 secs

     total energy              =     -24.49675942 Ry
     Harris-Foulkes estimate   =     -25.27140394 Ry
     estimated scf accuracy    <       2.17611440 Ry

     iteration #  5     ecut=    30.00 Ry     beta=0.70
     Davidson diagonalization with overlap
     ethr =  1.00E-02,  avg # of iterations =  1.0

     negative rho (up, down):  7.627E-03 0.000E+00

     total cpu time spent up to now is        4.0 secs

     total energy              =     -25.01492705 Ry
     Harris-Foulkes estimate   =     -25.36075016 Ry
     estimated scf accuracy    <       2.74359009 Ry

     iteration #  6     ecut=    30.00 Ry     beta=0.70
     Davidson diagonalization with overlap
     ethr =  1.00E-02,  avg # of iterations =  1.0

     negative rho (up, down):  2.270E-03 0.000E+00

     total cpu time spent up to now is        4.0 secs

     total energy              =     -24.32353029 Ry
     Harris-Foulkes estimate   =     -25.01766837 Ry
     estimated scf accuracy    <       2.24518654 Ry

     iteration #  7     ecut=    30.00 Ry     beta=0.70
     Davidson diagonalization with overlap
     ethr =  1.00E-02,  avg # of iterations =  1.0

     negative rho (up, down):  7.408E-04 0.000E+00

     total cpu time spent up to now is        4.0 secs

     total energy              =     -24.53634711 Ry
     Harris-Foulkes estimate   =     -24.63199909 Ry
     estimated scf accuracy    <       1.03270429 Ry

     iteration #  8     ecut=    30.00 Ry     beta=0.70
     Davidson diagonalization with overlap
     ethr =  1.00E-02,  avg # of iterations =  1.0

     negative rho (up, down):  1.566E-04 0.000E+00

     total cpu time spent up to now is        4.0 secs

     total energy              =     -24.36148068 Ry
     Harris-Foulkes estimate   =     -24.53807993 Ry
     estimated scf accuracy    <       0.83853483 Ry

     iteration #  9     ecut=    30.00 Ry     beta=0.70
     Davidson diagonalization with overlap
     ethr =  1.00E-02,  avg # of iterations =  1.0

     negative rho (up, down):  2.929E-05 0.000E+00

     total cpu time spent up to now is        4.1 secs

     total energy              =     -24.59815102 Ry
     Harris-Foulkes estimate   =     -24.69791132 Ry
     estimated scf accuracy    <       1.68061149 Ry

     iteration # 10     ecut=    30.00 Ry     beta=0.70
     Davidson diagonalization with overlap
     ethr =  1.00E-02,  avg # of iterations =  1.0

     total cpu time spent up to now is        4.1 secs

     total energy              =     -24.40024732 Ry
     Harris-Foulkes estimate   =     -24.59899521 Ry
     estimated scf accuracy    <       1.52468501 Ry

     iteration # 11     ecut=    30.00 Ry     beta=0.70
     Davidson diagonalization with overlap
     ethr =  1.00E-02,  avg # of iterations =  1.0

     total cpu time spent up to now is        4.1 secs

     total energy              =     -24.50429708 Ry
     Harris-Foulkes estimate   =     -24.57655586 Ry
     estimated scf accuracy    <       0.86702709 Ry

     iteration # 12     ecut=    30.00 Ry     beta=0.70
     Davidson diagonalization with overlap
     ethr =  1.00E-02,  avg # of iterations =  1.0

     total cpu time spent up to now is        4.2 secs

     total energy              =     -24.51906058 Ry
     Harris-Foulkes estimate   =     -24.51373367 Ry
     estimated scf accuracy    <       0.04406316 Ry

     iteration # 13     ecut=    30.00 Ry     beta=0.70
     Davidson diagonalization with overlap
     ethr =  5.51E-04,  avg # of iterations =  1.0

     total cpu time spent up to now is        4.2 secs

     total energy              =     -24.50250109 Ry
     Harris-Foulkes estimate   =     -24.52726466 Ry
     estimated scf accuracy    <       0.62435743 Ry

     iteration # 14     ecut=    30.00 Ry     beta=0.70
     Davidson diagonalization with overlap
     ethr =  5.51E-04,  avg # of iterations =  1.0

     total cpu time spent up to now is        4.3 secs

     total energy              =     -24.51391332 Ry
     Harris-Foulkes estimate   =     -24.51319014 Ry
     estimated scf accuracy    <       0.00341604 Ry

     iteration # 15     ecut=    30.00 Ry     beta=0.70
     Davidson diagonalization with overlap
     ethr =  4.27E-05,  avg # of iterations =  1.0

     total cpu time spent up to now is        4.3 secs

     total energy              =     -24.51317751 Ry
     Harris-Foulkes estimate   =     -24.51666812 Ry
     estimated scf accuracy    <       0.29228420 Ry

     iteration # 16     ecut=    30.00 Ry     beta=0.70
     Davidson diagonalization with overlap
     ethr =  4.27E-05,  avg # of iterations =  1.0

     total cpu time spent up to now is        4.3 secs

     total energy              =     -24.50996413 Ry
     Harris-Foulkes estimate   =     -24.51404057 Ry
     estimated scf accuracy    <       0.07311118 Ry

     iteration # 17     ecut=    30.00 Ry     beta=0.70
     Davidson diagonalization with overlap
     ethr =  4.27E-05,  avg # of iterations =  1.0

     total cpu time spent up to now is        4.4 secs

     total energy              =     -24.51228005 Ry
     Harris-Foulkes estimate   =     -24.51454048 Ry
     estimated scf accuracy    <       0.09750429 Ry

     iteration # 18     ecut=    30.00 Ry     beta=0.70
     Davidson diagonalization with overlap
     ethr =  4.27E-05,  avg # of iterations =  1.0

     total cpu time spent up to now is        4.4 secs

     total energy              =     -24.51312945 Ry
     Harris-Foulkes estimate   =     -24.51318410 Ry
     estimated scf accuracy    <       0.00283665 Ry

     iteration # 19     ecut=    30.00 Ry     beta=0.70
     Davidson diagonalization with overlap
     ethr =  3.55E-05,  avg # of iterations =  1.0

     total cpu time spent up to now is        4.4 secs

     total energy              =     -24.51313610 Ry
     Harris-Foulkes estimate   =     -24.51315028 Ry
     estimated scf accuracy    <       0.00017015 Ry

     iteration # 20     ecut=    30.00 Ry     beta=0.70
     Davidson diagonalization with overlap
     ethr =  2.13E-06,  avg # of iterations = 12.0

     total cpu time spent up to now is        4.5 secs

     total energy              =     -24.51314571 Ry
     Harris-Foulkes estimate   =     -24.51316137 Ry
     estimated scf accuracy    <       0.00101246 Ry

     iteration # 21     ecut=    30.00 Ry     beta=0.70
     Davidson diagonalization with overlap
     ethr =  2.13E-06,  avg # of iterations =  1.0

     total cpu time spent up to now is        4.5 secs

     total energy              =     -24.51314720 Ry
     Harris-Foulkes estimate   =     -24.51315032 Ry
     estimated scf accuracy    <       0.00016113 Ry

     iteration # 22     ecut=    30.00 Ry     beta=0.70
     Davidson diagonalization with overlap
     ethr =  2.01E-06,  avg # of iterations =  1.0

     total cpu time spent up to now is        4.5 secs

     total energy              =     -24.51314804 Ry
     Harris-Foulkes estimate   =     -24.51314830 Ry
     estimated scf accuracy    <       0.00001155 Ry

     iteration # 23     ecut=    30.00 Ry     beta=0.70
     Davidson diagonalization with overlap
     ethr =  1.44E-07,  avg # of iterations =  1.0

     total cpu time spent up to now is        4.6 secs

     total energy              =     -24.51314807 Ry
     Harris-Foulkes estimate   =     -24.51314811 Ry
     estimated scf accuracy    <       0.00000091 Ry

     iteration # 24     ecut=    30.00 Ry     beta=0.70
     Davidson diagonalization with overlap
     ethr =  1.13E-08,  avg # of iterations =  1.0

     total cpu time spent up to now is        4.6 secs

     total energy              =     -24.51314803 Ry
     Harris-Foulkes estimate   =     -24.51314807 Ry
     estimated scf accuracy    <       0.00000078 Ry

     iteration # 25     ecut=    30.00 Ry     beta=0.70
     Davidson diagonalization with overlap
     ethr =  9.72E-09,  avg # of iterations =  1.0

     total cpu time spent up to now is        4.7 secs

     total energy              =     -24.51314803 Ry
     Harris-Foulkes estimate   =     -24.51314804 Ry
     estimated scf accuracy    <       0.00000004 Ry

     iteration # 26     ecut=    30.00 Ry     beta=0.70
     Davidson diagonalization with overlap
     ethr =  4.82E-10,  avg # of iterations =  1.0

     total cpu time spent up to now is        4.7 secs

     total energy              =     -24.51314803 Ry
     Harris-Foulkes estimate   =     -24.51314803 Ry
     estimated scf accuracy    <       0.00000001 Ry

     iteration # 27     ecut=    30.00 Ry     beta=0.70
     Davidson diagonalization with overlap
     ethr =  1.61E-10,  avg # of iterations =  1.0

     total cpu time spent up to now is        4.7 secs

     End of self-consistent calculation

          k = 0.0000 0.0000 0.0000 ( 22119 PWs)   bands (ev):

   -31.0128 -11.4651  -7.6403  -7.6390  -7.4725  -0.2905   0.6169   0.7872

     the Fermi energy is    -7.4598 ev

!    total energy              =     -24.51314800 Ry
     Harris-Foulkes estimate   =     -24.51314803 Ry
     estimated scf accuracy    <          1.8E-11 Ry

     convergence has been achieved in  27 iterations

     Forces acting on atoms (Ry/au):

     atom    1 type  1   force =     0.00023730    0.00012362    0.00072040
     atom    2 type  1   force =    13.38595501    5.32592102   25.89237101
     atom    3 type  2   force =   -13.38619230   -5.32604464  -25.89309141

     Total force =    41.904334     Total SCF correction =     0.000020

     Entering Dynamics:    iteration =     4
                           time      =   0.0194 pico-seconds


     Andersen thermostat:    3 collisions

ATOMIC_POSITIONS (bohr)
H        2.596450290  12.110678520  12.203697397
H      151.361013633  59.325005839 296.797873649
O       -3.293377043  -1.926947358  -2.541957719


     kinetic energy (Ekin) =  1262.29955587 Ry
     temperature           = ************** K 
     Ekin + Etot (const)   =  1237.78640787 Ry
     Message from routine dynamics:
     Total linear momentum <> 0

     Linear momentum :    0.6585480540    0.4524520681   -0.2987964083

     Writing output data file pwscf.save

     second order wave-functions extrapolation
     Check: negative starting charge=   -0.350150
     second order charge density extrapolation
     Check: negative starting charge=   -0.340713

     negative rho (up, down):  1.691E+02 0.000E+00

     total cpu time spent up to now is        5.0 secs

     per-process dynamical memory:    20.4 Mb

     Self-consistent Calculation

     iteration #  1     ecut=    30.00 Ry     beta=0.70
     Davidson diagonalization with overlap
     c_bands:  5 eigenvalues not converged
     ethr =  1.00E-06,  avg # of iterations = 20.0

     negative rho (up, down):  4.995E+01 0.000E+00

     total cpu time spent up to now is        5.2 secs

     total energy              =    -873.12705720 Ry
     Harris-Foulkes estimate   =  -58310.04740950 Ry
     estimated scf accuracy    <    8866.32753361 Ry

     iteration #  2     ecut=    30.00 Ry     beta=0.70
     Davidson diagonalization with overlap
     c_bands:  3 eigenvalues not converged
     ethr =  1.00E-02,  avg # of iterations = 20.0

     negative rho (up, down):  2.544E-01 0.000E+00

     total cpu time spent up to now is        5.3 secs

     total energy              =     159.95503316 Ry
     Harris-Foulkes estimate   =   -5655.91312084 Ry
     estimated scf accuracy    <     819.81131735 Ry

     iteration #  3     ecut=    30.00 Ry     beta=0.70
     Davidson diagonalization with overlap
     ethr =  1.00E-02,  avg # of iterations = 11.0

     negative rho (up, down):  1.895E-01 0.000E+00

     total cpu time spent up to now is        5.4 secs

     total energy              =     -21.33738856 Ry
     Harris-Foulkes estimate   =    -115.72870189 Ry
     estimated scf accuracy    <      62.73574774 Ry

     iteration #  4     ecut=    30.00 Ry     beta=0.70
     Davidson diagonalization with overlap
     ethr =  1.00E-02,  avg # of iterations =  5.0

     negative rho (up, down):  6.227E-02 0.000E+00

     total cpu time spent up to now is        5.4 secs

     total energy              =      34.28740290 Ry
     Harris-Foulkes estimate   =    -337.51199573 Ry
     estimated scf accuracy    <      25.23087166 Ry

     iteration #  5     ecut=    30.00 Ry     beta=0.70
     Davidson diagonalization with overlap
     ethr =  1.00E-02,  avg # of iterations = 11.0

     negative rho (up, down):  1.231E-01 0.000E+00

     total cpu time spent up to now is        5.4 secs

     total energy              =     -16.05004156 Ry
     Harris-Foulkes estimate   =     -64.96186693 Ry
     estimated scf accuracy    <      25.26845275 Ry

     iteration #  6     ecut=    30.00 Ry     beta=0.70
     Davidson diagonalization with overlap
     ethr =  1.00E-02,  avg # of iterations =  4.0

     negative rho (up, down):  4.725E-01 0.000E+00

     total cpu time spent up to now is        5.5 secs

     total energy              =       5.09217290 Ry
     Harris-Foulkes estimate   =   -1527.88223675 Ry
     estimated scf accuracy    <      13.38288364 Ry

     iteration #  7     ecut=    30.00 Ry     beta=0.70
     Davidson diagonalization with overlap
     ethr =  1.00E-02,  avg # of iterations =  7.0

     negative rho (up, down):  3.178E-01 0.000E+00

     total cpu time spent up to now is        5.5 secs

     total energy              =      31.64256320 Ry
     Harris-Foulkes estimate   =    -178.33123319 Ry
     estimated scf accuracy    <      21.45937096 Ry

     iteration #  8     ecut=    30.00 Ry     beta=0.70
     Davidson diagonalization with overlap
     ethr =  1.00E-02,  avg # of iterations = 11.0

     negative rho (up, down):  2.179E-01 0.000E+00

     total cpu time spent up to now is        5.6 secs

     total energy              =    -178.21665135 Ry
     Harris-Foulkes estimate   =    -113.32222089 Ry
     estimated scf accuracy    <      32.47243742 Ry

     iteration #  9     ecut=    30.00 Ry     beta=0.70
     Davidson diagonalization with overlap
     ethr =  1.00E-02,  avg # of iterations =  5.0

     negative rho (up, down):  1.677E-01 0.000E+00

     total cpu time spent up to now is        5.6 secs

     total energy              =      33.15254035 Ry
     Harris-Foulkes estimate   =  -11106.11237028 Ry
     estimated scf accuracy    <      14.93470644 Ry

     iteration # 10     ecut=    30.00 Ry     beta=0.70
     Davidson diagonalization with overlap
     ethr =  1.00E-02,  avg # of iterations =  8.0

     negative rho (up, down):  1.679E-01 0.000E+00

     total cpu time spent up to now is        5.7 secs

     total energy              =    -373.45487333 Ry
     Harris-Foulkes estimate   =     -98.73964731 Ry
     estimated scf accuracy    <      16.11616723 Ry

     iteration # 11     ecut=    30.00 Ry     beta=0.70
     Davidson diagonalization with overlap
     ethr =  1.00E-02,  avg # of iterations =  3.0

     negative rho (up, down):  1.522E-01 0.000E+00

     total cpu time spent up to now is        5.7 secs

     total energy              =   -1601.26122377 Ry
     Harris-Foulkes estimate   =   -4539.19613660 Ry
     estimated scf accuracy    <      13.46371280 Ry

     iteration # 12     ecut=    30.00 Ry     beta=0.70
     Davidson diagonalization with overlap
     ethr =  1.00E-02,  avg # of iterations =  4.0

     negative rho (up, down):  7.004E-02 0.000E+00

     total cpu time spent up to now is        5.8 secs

     total energy              =     -34.10924713 Ry
     Harris-Foulkes estimate   =   -3031.04094475 Ry
     estimated scf accuracy    <      27.34436580 Ry

     iteration # 13     ecut=    30.00 Ry     beta=0.70
     Davidson diagonalization with overlap
     ethr =  1.00E-02,  avg # of iterations =  6.0

     negative rho (up, down):  4.550E-01 0.000E+00

     total cpu time spent up to now is        5.8 secs

     total energy              =     -89.77112919 Ry
     Harris-Foulkes estimate   =   -4800.22546348 Ry
     estimated scf accuracy    <      22.86410741 Ry

     iteration # 14     ecut=    30.00 Ry     beta=0.70
     Davidson diagonalization with overlap
     ethr =  1.00E-02,  avg # of iterations = 11.0

     negative rho (up, down):  4.357E-01 0.000E+00

     total cpu time spent up to now is        5.9 secs

     total energy              =    -735.70054679 Ry
     Harris-Foulkes estimate   =   -1728.14227361 Ry
     estimated scf accuracy    <      38.49926943 Ry

     iteration # 15     ecut=    30.00 Ry     beta=0.70
     Davidson diagonalization with overlap
     ethr =  1.00E-02,  avg # of iterations =  7.0

     negative rho (up, down):  6.289E-01 0.000E+00

     total cpu time spent up to now is        5.9 secs

     total energy              =   -2807.99941581 Ry
     Harris-Foulkes estimate   =   -9194.54640583 Ry
     estimated scf accuracy    <      43.86034038 Ry

     iteration # 16     ecut=    30.00 Ry     beta=0.70
     Davidson diagonalization with overlap
     ethr =  1.00E-02,  avg # of iterations =  6.0

     negative rho (up, down):  6.007E-01 0.000E+00

     total cpu time spent up to now is        6.0 secs

     total energy              =     140.35012796 Ry
     Harris-Foulkes estimate   =   -8584.68111432 Ry
     estimated scf accuracy    <      34.95294313 Ry

     iteration # 17     ecut=    30.00 Ry     beta=0.70
     Davidson diagonalization with overlap
     ethr =  1.00E-02,  avg # of iterations =  7.0

     negative rho (up, down):  7.370E-01 0.000E+00

     total cpu time spent up to now is        6.0 secs

     total energy              =     105.41257601 Ry
     Harris-Foulkes estimate   =    -560.49968022 Ry
     estimated scf accuracy    <      38.40160421 Ry

     iteration # 18     ecut=    30.00 Ry     beta=0.70
     Davidson diagonalization with overlap
     ethr =  1.00E-02,  avg # of iterations = 13.0

     negative rho (up, down):  1.140E+00 0.000E+00

     total cpu time spent up to now is        6.1 secs

     total energy              =    -137.75218161 Ry
     Harris-Foulkes estimate   =   -3367.79652503 Ry
     estimated scf accuracy    <      39.13903445 Ry

     iteration # 19     ecut=    30.00 Ry     beta=0.70
     Davidson diagonalization with overlap
     ethr =  1.00E-02,  avg # of iterations =  6.0

     negative rho (up, down):  1.417E+00 0.000E+00

     total cpu time spent up to now is        6.1 secs

     total energy              =   -9013.59755637 Ry
     Harris-Foulkes estimate   =   -3440.26503785 Ry
     estimated scf accuracy    <      32.84428379 Ry

     iteration # 20     ecut=    30.00 Ry     beta=0.70
     Davidson diagonalization with overlap
     ethr =  1.00E-02,  avg # of iterations =  9.0

     negative rho (up, down):  1.459E+00 0.000E+00

     total cpu time spent up to now is        6.2 secs

     total energy              =   -1284.35685001 Ry
     Harris-Foulkes estimate   =  -24831.10305325 Ry
     estimated scf accuracy    <      30.25494027 Ry

     iteration # 21     ecut=    30.00 Ry     beta=0.70
     Davidson diagonalization with overlap
     ethr =  1.00E-02,  avg # of iterations =  9.0

     negative rho (up, down):  1.634E+00 0.000E+00

     total cpu time spent up to now is        6.3 secs

     total energy              =     103.25038605 Ry
     Harris-Foulkes estimate   =   -9441.60938369 Ry
     estimated scf accuracy    <      25.01670044 Ry

     iteration # 22     ecut=    30.00 Ry     beta=0.70
     Davidson diagonalization with overlap
     ethr =  1.00E-02,  avg # of iterations = 12.0

     negative rho (up, down):  1.145E+00 0.000E+00

     total cpu time spent up to now is        6.3 secs

     total energy              =      72.25247686 Ry
     Harris-Foulkes estimate   =    -397.95347324 Ry
     estimated scf accuracy    <      32.81551062 Ry

     iteration # 23     ecut=    30.00 Ry     beta=0.70
     Davidson diagonalization with overlap
     ethr =  1.00E-02,  avg # of iterations =  7.0

     negative rho (up, down):  4.125E-01 0.000E+00

     total cpu time spent up to now is        6.4 secs

     total energy              =      78.79101327 Ry
     Harris-Foulkes estimate   =  -34240.60510479 Ry
     estimated scf accuracy    <      30.52005434 Ry

     iteration # 24     ecut=    30.00 Ry     beta=0.70
     Davidson diagonalization with overlap
     ethr =  1.00E-02,  avg # of iterations = 10.0

     negative rho (up, down):  1.530E-01 0.000E+00

     total cpu time spent up to now is        6.4 secs

     total energy              =     142.97443575 Ry
     Harris-Foulkes estimate   =   -1950.95605579 Ry
     estimated scf accuracy    <      22.11452509 Ry

     iteration # 25     ecut=    30.00 Ry     beta=0.70
     Davidson diagonalization with overlap
     ethr =  1.00E-02,  avg # of iterations =  8.0

     negative rho (up, down):  1.999E-01 0.000E+00

     total cpu time spent up to now is        6.5 secs

     total energy              =     129.62662850 Ry
     Harris-Foulkes estimate   =    -327.05656558 Ry
     estimated scf accuracy    <      27.29329878 Ry

     iteration # 26     ecut=    30.00 Ry     beta=0.70
     Davidson diagonalization with overlap
     ethr =  1.00E-02,  avg # of iterations =  9.0

     negative rho (up, down):  1.221E-01 0.000E+00

     total cpu time spent up to now is        6.6 secs

     total energy              =      77.81648317 Ry
     Harris-Foulkes estimate   =    -302.90040816 Ry
     estimated scf accuracy    <      20.84142668 Ry

     iteration # 27     ecut=    30.00 Ry     beta=0.70
     Davidson diagonalization with overlap
     ethr =  1.00E-02,  avg # of iterations =  5.0

     negative rho (up, down):  9.098E-02 0.000E+00

     total cpu time spent up to now is        6.6 secs

     total energy              =     107.28469513 Ry
     Harris-Foulkes estimate   =   -3804.18951924 Ry
     estimated scf accuracy    <      22.16025714 Ry

     iteration # 28     ecut=    30.00 Ry     beta=0.70
     Davidson diagonalization with overlap
     ethr =  1.00E-02,  avg # of iterations =  5.0

     negative rho (up, down):  2.620E-02 0.000E+00

     total cpu time spent up to now is        6.7 secs

     total energy              =      27.08082356 Ry
     Harris-Foulkes estimate   =   -1160.78736069 Ry
     estimated scf accuracy    <      27.35847933 Ry

     iteration # 29     ecut=    30.00 Ry     beta=0.70
     Davidson diagonalization with overlap
     ethr =  1.00E-02,  avg # of iterations =  5.0

     negative rho (up, down):  8.114E-04 0.000E+00

     total cpu time spent up to now is        6.7 secs

     total energy              =     -80.38476158 Ry
     Harris-Foulkes estimate   =     -85.13621655 Ry
     estimated scf accuracy    <      70.93034864 Ry

     iteration # 30     ecut=    30.00 Ry     beta=0.70
     Davidson diagonalization with overlap
     ethr =  1.00E-02,  avg # of iterations =  1.0

     negative rho (up, down):  9.564E-05 0.000E+00

     total cpu time spent up to now is        6.7 secs

     total energy              =     -71.38242649 Ry
     Harris-Foulkes estimate   =     -80.39285154 Ry
     estimated scf accuracy    <      64.56994152 Ry

     iteration # 31     ecut=    30.00 Ry     beta=0.70
     Davidson diagonalization with overlap
     ethr =  1.00E-02,  avg # of iterations =  4.0

     negative rho (up, down):  2.478E-06 0.000E+00

     total cpu time spent up to now is        6.8 secs

     total energy              =     -12.96564590 Ry
     Harris-Foulkes estimate   =    -342.76267998 Ry
     estimated scf accuracy    <      27.56455165 Ry

     iteration # 32     ecut=    30.00 Ry     beta=0.70
     Davidson diagonalization with overlap
     ethr =  1.00E-02,  avg # of iterations =  4.0

     negative rho (up, down):  7.379E-02 0.000E+00

     total cpu time spent up to now is        6.8 secs

     total energy              =     -63.65230354 Ry
     Harris-Foulkes estimate   =     -71.00129435 Ry
     estimated scf accuracy    <      52.87106728 Ry

     iteration # 33     ecut=    30.00 Ry     beta=0.70
     Davidson diagonalization with overlap
     ethr =  1.00E-02,  avg # of iterations =  7.0

     negative rho (up, down):  8.881E-03 0.000E+00

     total cpu time spent up to now is        6.9 secs

     total energy              =     145.16405029 Ry
     Harris-Foulkes estimate   =    -757.81129577 Ry
     estimated scf accuracy    <      32.86515574 Ry

     iteration # 34     ecut=    30.00 Ry     beta=0.70
     Davidson diagonalization with overlap
     ethr =  1.00E-02,  avg # of iterations =  4.0

     negative rho (up, down):  3.158E-02 0.000E+00

     total cpu time spent up to now is        6.9 secs

     total energy              =     -59.85433469 Ry
     Harris-Foulkes estimate   =     -65.21188947 Ry
     estimated scf accuracy    <      45.85172823 Ry

     iteration # 35     ecut=    30.00 Ry     beta=0.70
     Davidson diagonalization with overlap
     ethr =  1.00E-02,  avg # of iterations =  1.0

     negative rho (up, down):  2.962E-02 0.000E+00

     total cpu time spent up to now is        6.9 secs

     total energy              =     -53.90999480 Ry
     Harris-Foulkes estimate   =     -59.87546959 Ry
     estimated scf accuracy    <      39.36669750 Ry

     iteration # 36     ecut=    30.00 Ry     beta=0.70
     Davidson diagonalization with overlap
     ethr =  1.00E-02,  avg # of iterations =  1.0

     negative rho (up, down):  1.469E-01 0.000E+00

     total cpu time spent up to now is        7.0 secs

     total energy              =     -41.07772168 Ry
     Harris-Foulkes estimate   =     -53.94104523 Ry
     estimated scf accuracy    <      32.00694872 Ry

     iteration # 37     ecut=    30.00 Ry     beta=0.70
     Davidson diagonalization with overlap
     ethr =  1.00E-02,  avg # of iterations = 11.0

     negative rho (up, down):  7.242E-02 0.000E+00

     total cpu time spent up to now is        7.0 secs

     total energy              =     131.07251776 Ry
     Harris-Foulkes estimate   =   -1517.21833401 Ry
     estimated scf accuracy    <      41.58620075 Ry

     iteration # 38     ecut=    30.00 Ry     beta=0.70
     Davidson diagonalization with overlap
     ethr =  1.00E-02,  avg # of iterations =  9.0

     negative rho (up, down):  9.046E-03 0.000E+00

     total cpu time spent up to now is        7.1 secs

     total energy              =      55.90587994 Ry
     Harris-Foulkes estimate   =    -145.91650670 Ry
     estimated scf accuracy    <      21.70196528 Ry

     iteration # 39     ecut=    30.00 Ry     beta=0.70
     Davidson diagonalization with overlap
     ethr =  1.00E-02,  avg # of iterations =  9.0

     negative rho (up, down):  3.689E-05 0.000E+00

     total cpu time spent up to now is        7.1 secs

     total energy              =     -18.62313445 Ry
     Harris-Foulkes estimate   =     -51.93729210 Ry
     estimated scf accuracy    <      14.14006705 Ry

     iteration # 40     ecut=    30.00 Ry     beta=0.70
     Davidson diagonalization with overlap
     ethr =  1.00E-02,  avg # of iterations =  7.0

     negative rho (up, down):  6.398E-02 0.000E+00

     total cpu time spent up to now is        7.2 secs

     total energy              =     -52.08118180 Ry
     Harris-Foulkes estimate   =     -49.88044297 Ry
     estimated scf accuracy    <      26.51867669 Ry

     iteration # 41     ecut=    30.00 Ry     beta=0.70
     Davidson diagonalization with overlap
     ethr =  1.00E-02,  avg # of iterations =  8.0

     negative rho (up, down):  3.196E-02 0.000E+00

     total cpu time spent up to now is        7.2 secs

     total energy              =      14.32866155 Ry
     Harris-Foulkes estimate   =    -166.06296215 Ry
     estimated scf accuracy    <      17.69866882 Ry

     iteration # 42     ecut=    30.00 Ry     beta=0.70
     Davidson diagonalization with overlap
     ethr =  1.00E-02,  avg # of iterations =  6.0

     negative rho (up, down):  3.305E-01 0.000E+00

     total cpu time spent up to now is        7.3 secs

     total energy              =      55.92222233 Ry
     Harris-Foulkes estimate   =    -478.95774658 Ry
     estimated scf accuracy    <      34.48571486 Ry

     iteration # 43     ecut=    30.00 Ry     beta=0.70
     Davidson diagonalization with overlap
     ethr =  1.00E-02,  avg # of iterations =  7.0

     negative rho (up, down):  2.752E-01 0.000E+00

     total cpu time spent up to now is        7.3 secs

     total energy              =       8.82111780 Ry
     Harris-Foulkes estimate   =    -290.28336184 Ry
     estimated scf accuracy    <      41.50436597 Ry

     iteration # 44     ecut=    30.00 Ry     beta=0.70
     Davidson diagonalization with overlap
     ethr =  1.00E-02,  avg # of iterations =  8.0

     negative rho (up, down):  3.572E-01 0.000E+00

     total cpu time spent up to now is        7.4 secs

     total energy              =      48.89294229 Ry
     Harris-Foulkes estimate   =    -538.09538609 Ry
     estimated scf accuracy    <      48.26282475 Ry

     iteration # 45     ecut=    30.00 Ry     beta=0.70
     Davidson diagonalization with overlap
     ethr =  1.00E-02,  avg # of iterations =  6.0

     negative rho (up, down):  6.673E-02 0.000E+00

     total cpu time spent up to now is        7.5 secs

     total energy              =      49.27069672 Ry
     Harris-Foulkes estimate   =    -684.30331591 Ry
     estimated scf accuracy    <      42.83098325 Ry

     iteration # 46     ecut=    30.00 Ry     beta=0.70
     Davidson diagonalization with overlap
     ethr =  1.00E-02,  avg # of iterations = 11.0

     negative rho (up, down):  2.153E-01 0.000E+00

     total cpu time spent up to now is        7.5 secs

     total energy              =     -72.53948013 Ry
     Harris-Foulkes estimate   =   -2274.76388832 Ry
     estimated scf accuracy    <      38.98130598 Ry

     iteration # 47     ecut=    30.00 Ry     beta=0.70
     Davidson diagonalization with overlap
     ethr =  1.00E-02,  avg # of iterations =  7.0

     negative rho (up, down):  3.977E-01 0.000E+00

     total cpu time spent up to now is        7.6 secs

     total energy              =     -32.23688318 Ry
     Harris-Foulkes estimate   =   -1821.91232666 Ry
     estimated scf accuracy    <      43.04640073 Ry

     iteration # 48     ecut=    30.00 Ry     beta=0.70
     Davidson diagonalization with overlap
     ethr =  1.00E-02,  avg # of iterations =  7.0

     negative rho (up, down):  3.751E-01 0.000E+00

     total cpu time spent up to now is        7.6 secs

     total energy              =    -293.97964232 Ry
     Harris-Foulkes estimate   =   -1379.95388546 Ry
     estimated scf accuracy    <      39.19449713 Ry

     iteration # 49     ecut=    30.00 Ry     beta=0.70
     Davidson diagonalization with overlap
     ethr =  1.00E-02,  avg # of iterations = 12.0

     negative rho (up, down):  5.738E-01 0.000E+00

     total cpu time spent up to now is        7.7 secs

     total energy              =      59.14833759 Ry
     Harris-Foulkes estimate   =   -1997.11029990 Ry
     estimated scf accuracy    <      38.68101617 Ry

     iteration # 50     ecut=    30.00 Ry     beta=0.70
     Davidson diagonalization with overlap
     ethr =  1.00E-02,  avg # of iterations =  7.0

     negative rho (up, down):  1.100E+00 0.000E+00

     total cpu time spent up to now is        7.7 secs

     total energy              =     103.59243199 Ry
     Harris-Foulkes estimate   =   -6380.24286087 Ry
     estimated scf accuracy    <      32.39008264 Ry

     iteration # 51     ecut=    30.00 Ry     beta=0.70
     Davidson diagonalization with overlap
     ethr =  1.00E-02,  avg # of iterations =  7.0

     negative rho (up, down):  7.123E-01 0.000E+00

     total cpu time spent up to now is        7.8 secs

     total energy              =      51.23004967 Ry
     Harris-Foulkes estimate   =   -5739.34620040 Ry
     estimated scf accuracy    <      21.37072236 Ry

     iteration # 52     ecut=    30.00 Ry     beta=0.70
     Davidson diagonalization with overlap
     ethr =  1.00E-02,  avg # of iterations =  9.0

     negative rho (up, down):  7.763E-01 0.000E+00

     total cpu time spent up to now is        7.9 secs

     total energy              =    -155.42841936 Ry
     Harris-Foulkes estimate   =   -6691.66366022 Ry
     estimated scf accuracy    <      20.56286615 Ry

     iteration # 53     ecut=    30.00 Ry     beta=0.70
     Davidson diagonalization with overlap
     ethr =  1.00E-02,  avg # of iterations =  8.0

     negative rho (up, down):  3.680E-01 0.000E+00

     total cpu time spent up to now is        7.9 secs

     total energy              =      35.29312540 Ry
     Harris-Foulkes estimate   =  -10866.44127270 Ry
     estimated scf accuracy    <      22.15795857 Ry

     iteration # 54     ecut=    30.00 Ry     beta=0.70
     Davidson diagonalization with overlap
     ethr =  1.00E-02,  avg # of iterations = 11.0

     negative rho (up, down):  6.852E-02 0.000E+00

     total cpu time spent up to now is        8.0 secs

     total energy              =     158.18770179 Ry
     Harris-Foulkes estimate   =  -34611.62059703 Ry
     estimated scf accuracy    <      26.23226731 Ry

     iteration # 55     ecut=    30.00 Ry     beta=0.70
     Davidson diagonalization with overlap
     ethr =  1.00E-02,  avg # of iterations =  9.0

     negative rho (up, down):  1.534E-02 0.000E+00

     total cpu time spent up to now is        8.1 secs

     total energy              =      94.19527959 Ry
     Harris-Foulkes estimate   =    -684.96275147 Ry
     estimated scf accuracy    <      26.16445579 Ry

     iteration # 56     ecut=    30.00 Ry     beta=0.70
     Davidson diagonalization with overlap
     ethr =  1.00E-02,  avg # of iterations =  5.0

     negative rho (up, down):  6.849E-05 0.000E+00

     total cpu time spent up to now is        8.1 secs

     total energy              =     -15.06475320 Ry
     Harris-Foulkes estimate   =    -138.55508551 Ry
     estimated scf accuracy    <      43.69513560 Ry

     iteration # 57     ecut=    30.00 Ry     beta=0.70
     Davidson diagonalization with overlap
     ethr =  1.00E-02,  avg # of iterations =  3.0

     negative rho (up, down):  1.360E-03 0.000E+00

     total cpu time spent up to now is        8.2 secs

     total energy              =     -63.70363538 Ry
     Harris-Foulkes estimate   =     -69.79325476 Ry
     estimated scf accuracy    <      51.69891019 Ry

     iteration # 58     ecut=    30.00 Ry     beta=0.70
     Davidson diagonalization with overlap
     ethr =  1.00E-02,  avg # of iterations =  1.0

     negative rho (up, down):  3.245E-02 0.000E+00

     total cpu time spent up to now is        8.2 secs

     total energy              =     -66.24871362 Ry
     Harris-Foulkes estimate   =     -63.72727740 Ry
     estimated scf accuracy    <      44.11430038 Ry

     iteration # 59     ecut=    30.00 Ry     beta=0.70
     Davidson diagonalization with overlap
     ethr =  1.00E-02,  avg # of iterations =  6.0

     negative rho (up, down):  7.154E-03 0.000E+00

     total cpu time spent up to now is        8.3 secs

     total energy              =      29.85854633 Ry
     Harris-Foulkes estimate   =   -1655.38919702 Ry
     estimated scf accuracy    <      15.41282853 Ry

     iteration # 60     ecut=    30.00 Ry     beta=0.70
     Davidson diagonalization with overlap
     ethr =  1.00E-02,  avg # of iterations =  8.0

     negative rho (up, down):  8.997E-02 0.000E+00

     total cpu time spent up to now is        8.3 secs

     total energy              =     -32.76974896 Ry
     Harris-Foulkes estimate   =     -83.08952449 Ry
     estimated scf accuracy    <      32.86185985 Ry

     iteration # 61     ecut=    30.00 Ry     beta=0.70
     Davidson diagonalization with overlap
     ethr =  1.00E-02,  avg # of iterations =  4.0

     negative rho (up, down):  2.640E-02 0.000E+00

     total cpu time spent up to now is        8.4 secs

     total energy              =      40.40272460 Ry
     Harris-Foulkes estimate   =   -2045.27918807 Ry
     estimated scf accuracy    <      24.82685499 Ry

     iteration # 62     ecut=    30.00 Ry     beta=0.70
     Davidson diagonalization with overlap
     ethr =  1.00E-02,  avg # of iterations =  5.0

     negative rho (up, down):  1.593E-01 0.000E+00

     total cpu time spent up to now is        8.4 secs

     total energy              =     -52.00348590 Ry
     Harris-Foulkes estimate   =    -195.13257273 Ry
     estimated scf accuracy    <      32.98805506 Ry

     iteration # 63     ecut=    30.00 Ry     beta=0.70
     Davidson diagonalization with overlap
     ethr =  1.00E-02,  avg # of iterations =  8.0

     negative rho (up, down):  1.994E-01 0.000E+00

     total cpu time spent up to now is        8.5 secs

     total energy              =      78.42100013 Ry
     Harris-Foulkes estimate   =    -641.36140063 Ry
     estimated scf accuracy    <      21.76433737 Ry

     iteration # 64     ecut=    30.00 Ry     beta=0.70
     Davidson diagonalization with overlap
     ethr =  1.00E-02,  avg # of iterations = 11.0

     negative rho (up, down):  2.140E-01 0.000E+00

     total cpu time spent up to now is        8.5 secs

     total energy              =      33.77473235 Ry
     Harris-Foulkes estimate   =    -260.47008296 Ry
     estimated scf accuracy    <      15.29246376 Ry

     iteration # 65     ecut=    30.00 Ry     beta=0.70
     Davidson diagonalization with overlap
     ethr =  1.00E-02,  avg # of iterations =  9.0

     negative rho (up, down):  3.249E-03 0.000E+00

     total cpu time spent up to now is        8.6 secs

     total energy              =     138.80794735 Ry
     Harris-Foulkes estimate   =    -728.96027325 Ry
     estimated scf accuracy    <      26.25185249 Ry

     iteration # 66     ecut=    30.00 Ry     beta=0.70
     Davidson diagonalization with overlap
     ethr =  1.00E-02,  avg # of iterations =  7.0

     negative rho (up, down):  1.523E-04 0.000E+00

     total cpu time spent up to now is        8.6 secs

     total energy              =     -18.02822537 Ry
     Harris-Foulkes estimate   =     -90.58816332 Ry
     estimated scf accuracy    <      26.42631106 Ry

     iteration # 67     ecut=    30.00 Ry     beta=0.70
     Davidson diagonalization with overlap
     ethr =  1.00E-02,  avg # of iterations =  4.0

     negative rho (up, down):  3.432E-02 0.000E+00

     total cpu time spent up to now is        8.6 secs

     total energy              =     -56.56974675 Ry
     Harris-Foulkes estimate   =     -60.76828300 Ry
     estimated scf accuracy    <      40.43947203 Ry

     iteration # 68     ecut=    30.00 Ry     beta=0.70
     Davidson diagonalization with overlap
     ethr =  1.00E-02,  avg # of iterations =  4.0

     negative rho (up, down):  2.693E-02 0.000E+00

     total cpu time spent up to now is        8.7 secs

     total energy              =      35.60666425 Ry
     Harris-Foulkes estimate   =   -4096.76696125 Ry
     estimated scf accuracy    <      11.09651099 Ry

     iteration # 69     ecut=    30.00 Ry     beta=0.70
     Davidson diagonalization with overlap
     ethr =  1.00E-02,  avg # of iterations =  4.0

     negative rho (up, down):  3.587E-03 0.000E+00

     total cpu time spent up to now is        8.7 secs

     total energy              =      41.83031975 Ry
     Harris-Foulkes estimate   =   -2223.49539919 Ry
     estimated scf accuracy    <      10.87551354 Ry

     iteration # 70     ecut=    30.00 Ry     beta=0.70
     Davidson diagonalization with overlap
     ethr =  1.00E-02,  avg # of iterations =  4.0

     negative rho (up, down):  4.050E-04 0.000E+00

     total cpu time spent up to now is        8.8 secs

     total energy              =     -10.56847462 Ry
     Harris-Foulkes estimate   =    -125.97815342 Ry
     estimated scf accuracy    <      20.81336021 Ry

     iteration # 71     ecut=    30.00 Ry     beta=0.70
     Davidson diagonalization with overlap
     ethr =  1.00E-02,  avg # of iterations =  4.0

     negative rho (up, down):  4.204E-02 0.000E+00

     total cpu time spent up to now is        8.8 secs

     total energy              =     -49.22179071 Ry
     Harris-Foulkes estimate   =     -54.22166689 Ry
     estimated scf accuracy    <      32.26673854 Ry

     iteration # 72     ecut=    30.00 Ry     beta=0.70
     Davidson diagonalization with overlap
     ethr =  1.00E-02,  avg # of iterations =  8.0

     negative rho (up, down):  1.876E-02 0.000E+00

     total cpu time spent up to now is        8.9 secs

     total energy              =      20.24316308 Ry
     Harris-Foulkes estimate   =    -233.37491145 Ry
     estimated scf accuracy    <      20.19406770 Ry

     iteration # 73     ecut=    30.00 Ry     beta=0.70
     Davidson diagonalization with overlap
     ethr =  1.00E-02,  avg # of iterations =  5.0

     negative rho (up, down):  1.063E-01 0.000E+00

     total cpu time spent up to now is        8.9 secs

     total energy              =      -6.19206049 Ry
     Harris-Foulkes estimate   =    -247.69884139 Ry
     estimated scf accuracy    <      14.21907715 Ry

     iteration # 74     ecut=    30.00 Ry     beta=0.70
     Davidson diagonalization with overlap
     ethr =  1.00E-02,  avg # of iterations =  6.0

     negative rho (up, down):  2.561E-01 0.000E+00

     total cpu time spent up to now is        9.0 secs

     total energy              =    -137.82913731 Ry
     Harris-Foulkes estimate   =     -78.64426836 Ry
     estimated scf accuracy    <      14.51659521 Ry

     iteration # 75     ecut=    30.00 Ry     beta=0.70
     Davidson diagonalization with overlap
     ethr =  1.00E-02,  avg # of iterations =  8.0

     negative rho (up, down):  7.624E-02 0.000E+00

     total cpu time spent up to now is        9.0 secs

     total energy              =     121.01654285 Ry
     Harris-Foulkes estimate   =  -12943.00845712 Ry
     estimated scf accuracy    <      44.64061522 Ry

     iteration # 76     ecut=    30.00 Ry     beta=0.70
     Davidson diagonalization with overlap
     ethr =  1.00E-02,  avg # of iterations = 10.0

     negative rho (up, down):  1.163E-01 0.000E+00

     total cpu time spent up to now is        9.1 secs

     total energy              =      68.54332344 Ry
     Harris-Foulkes estimate   =    -306.45776185 Ry
     estimated scf accuracy    <      39.93666228 Ry

     iteration # 77     ecut=    30.00 Ry     beta=0.70
     Davidson diagonalization with overlap
     ethr =  1.00E-02,  avg # of iterations =  6.0

     negative rho (up, down):  2.300E-01 0.000E+00

     total cpu time spent up to now is        9.1 secs

     total energy              =     120.54841728 Ry
     Harris-Foulkes estimate   =   -1395.29439233 Ry
     estimated scf accuracy    <      52.63658360 Ry

     iteration # 78     ecut=    30.00 Ry     beta=0.70
     Davidson diagonalization with overlap
     ethr =  1.00E-02,  avg # of iterations = 10.0

     negative rho (up, down):  3.138E-01 0.000E+00

     total cpu time spent up to now is        9.2 secs

     total energy              =     -12.80900818 Ry
     Harris-Foulkes estimate   =     -67.06086629 Ry
     estimated scf accuracy    <      13.31857467 Ry

     iteration # 79     ecut=    30.00 Ry     beta=0.70
     Davidson diagonalization with overlap
     ethr =  1.00E-02,  avg # of iterations = 11.0

     negative rho (up, down):  1.750E-01 0.000E+00

     total cpu time spent up to now is        9.3 secs

     total energy              =     -51.33803170 Ry
     Harris-Foulkes estimate   =    -348.03866802 Ry
     estimated scf accuracy    <      20.84371567 Ry

     iteration # 80     ecut=    30.00 Ry     beta=0.70
     Davidson diagonalization with overlap
     ethr =  1.00E-02,  avg # of iterations =  4.0

     negative rho (up, down):  3.076E-01 0.000E+00

     total cpu time spent up to now is        9.3 secs

     total energy              =     -48.70218962 Ry
     Harris-Foulkes estimate   =   -1543.41833146 Ry
     estimated scf accuracy    <      12.84824183 Ry

     iteration # 81     ecut=    30.00 Ry     beta=0.70
     Davidson diagonalization with overlap
     ethr =  1.00E-02,  avg # of iterations =  9.0

     negative rho (up, down):  5.006E-01 0.000E+00

     total cpu time spent up to now is        9.3 secs

     total energy              =     -11.47679775 Ry
     Harris-Foulkes estimate   =  -24962.52396805 Ry
     estimated scf accuracy    <      55.36802698 Ry

     iteration # 82     ecut=    30.00 Ry     beta=0.70
     Davidson diagonalization with overlap
     ethr =  1.00E-02,  avg # of iterations =  5.0

     negative rho (up, down):  5.528E-01 0.000E+00

     total cpu time spent up to now is        9.4 secs

     total energy              =      46.11112010 Ry
     Harris-Foulkes estimate   =   -1413.07458078 Ry
     estimated scf accuracy    <      46.98823699 Ry

     iteration # 83     ecut=    30.00 Ry     beta=0.70
     Davidson diagonalization with overlap
     ethr =  1.00E-02,  avg # of iterations = 12.0

     negative rho (up, down):  5.768E-01 0.000E+00

     total cpu time spent up to now is        9.5 secs

     total energy              =    -156.32334311 Ry
     Harris-Foulkes estimate   =    -940.56787927 Ry
     estimated scf accuracy    <      51.09068192 Ry

     iteration # 84     ecut=    30.00 Ry     beta=0.70
     Davidson diagonalization with overlap
     ethr =  1.00E-02,  avg # of iterations = 10.0

     negative rho (up, down):  5.226E-01 0.000E+00

     total cpu time spent up to now is        9.5 secs

     total energy              =     -48.91605241 Ry
     Harris-Foulkes estimate   =   -1590.98260468 Ry
     estimated scf accuracy    <      54.33682040 Ry

     iteration # 85     ecut=    30.00 Ry     beta=0.70
     Davidson diagonalization with overlap
     ethr =  1.00E-02,  avg # of iterations =  8.0

     negative rho (up, down):  4.127E-01 0.000E+00

     total cpu time spent up to now is        9.6 secs

     total energy              =      90.26328629 Ry
     Harris-Foulkes estimate   =    -313.49139604 Ry
     estimated scf accuracy    <      42.66483553 Ry

     iteration # 86     ecut=    30.00 Ry     beta=0.70
     Davidson diagonalization with overlap
     ethr =  1.00E-02,  avg # of iterations = 10.0

     negative rho (up, down):  2.807E-01 0.000E+00

     total cpu time spent up to now is        9.6 secs

     total energy              =      47.82213731 Ry
     Harris-Foulkes estimate   =    -334.77164065 Ry
     estimated scf accuracy    <      20.29923018 Ry

     iteration # 87     ecut=    30.00 Ry     beta=0.70
     Davidson diagonalization with overlap
     ethr =  1.00E-02,  avg # of iterations =  6.0

     negative rho (up, down):  8.384E-01 0.000E+00

     total cpu time spent up to now is        9.7 secs

     total energy              =    -270.81671800 Ry
     Harris-Foulkes estimate   =    -778.65671911 Ry
     estimated scf accuracy    <      17.81109888 Ry

     iteration # 88     ecut=    30.00 Ry     beta=0.70
     Davidson diagonalization with overlap
     ethr =  1.00E-02,  avg # of iterations = 11.0

     negative rho (up, down):  1.099E+00 0.000E+00

     total cpu time spent up to now is        9.8 secs

     total energy              =     -77.18146026 Ry
     Harris-Foulkes estimate   =   -4639.20989043 Ry
     estimated scf accuracy    <      38.32608148 Ry

     iteration # 89     ecut=    30.00 Ry     beta=0.70
     Davidson diagonalization with overlap
     ethr =  1.00E-02,  avg # of iterations =  7.0

     negative rho (up, down):  1.500E+00 0.000E+00

     total cpu time spent up to now is        9.8 secs

     total energy              =     111.47975194 Ry
     Harris-Foulkes estimate   =   -1413.65652661 Ry
     estimated scf accuracy    <      30.36476747 Ry

     iteration # 90     ecut=    30.00 Ry     beta=0.70
     Davidson diagonalization with overlap
     ethr =  1.00E-02,  avg # of iterations =  9.0

     negative rho (up, down):  1.448E+00 0.000E+00

     total cpu time spent up to now is        9.9 secs

     total energy              =    -765.88798432 Ry
     Harris-Foulkes estimate   =   -2234.64313650 Ry
     estimated scf accuracy    <      29.51872619 Ry

     iteration # 91     ecut=    30.00 Ry     beta=0.70
     Davidson diagonalization with overlap
     ethr =  1.00E-02,  avg # of iterations =  8.0

     negative rho (up, down):  9.320E-01 0.000E+00

     total cpu time spent up to now is        9.9 secs

     total energy              =    -236.41949482 Ry
     Harris-Foulkes estimate   =  -16591.61459768 Ry
     estimated scf accuracy    <      26.41176594 Ry

     iteration # 92     ecut=    30.00 Ry     beta=0.70
     Davidson diagonalization with overlap
     ethr =  1.00E-02,  avg # of iterations = 11.0

     negative rho (up, down):  1.218E+00 0.000E+00

     total cpu time spent up to now is       10.0 secs

     total energy              =     109.35240274 Ry
     Harris-Foulkes estimate   =   -2202.77101914 Ry
     estimated scf accuracy    <      31.50395759 Ry

     iteration # 93     ecut=    30.00 Ry     beta=0.70
     Davidson diagonalization with overlap
     ethr =  1.00E-02,  avg # of iterations =  7.0

     negative rho (up, down):  2.824E-01 0.000E+00

     total cpu time spent up to now is       10.1 secs

     total energy              =     114.22614089 Ry
     Harris-Foulkes estimate   =   -1530.39114140 Ry
     estimated scf accuracy    <      35.69014203 Ry

     iteration # 94     ecut=    30.00 Ry     beta=0.70
     Davidson diagonalization with overlap
     ethr =  1.00E-02,  avg # of iterations = 10.0

     negative rho (up, down):  7.791E-01 0.000E+00

     total cpu time spent up to now is       10.1 secs

     total energy              =      90.08878467 Ry
     Harris-Foulkes estimate   =    -692.18192079 Ry
     estimated scf accuracy    <      23.88411635 Ry

     iteration # 95     ecut=    30.00 Ry     beta=0.70
     Davidson diagonalization with overlap
     ethr =  1.00E-02,  avg # of iterations =  8.0

     negative rho (up, down):  7.719E-01 0.000E+00

     total cpu time spent up to now is       10.2 secs

     total energy              =    -964.20434120 Ry
     Harris-Foulkes estimate   =   -1856.94621560 Ry
     estimated scf accuracy    <      36.49999151 Ry

     iteration # 96     ecut=    30.00 Ry     beta=0.70
     Davidson diagonalization with overlap
     ethr =  1.00E-02,  avg # of iterations =  5.0

     negative rho (up, down):  9.223E-01 0.000E+00

     total cpu time spent up to now is       10.3 secs

     total energy              =     121.15049051 Ry
     Harris-Foulkes estimate   =  -21340.06560786 Ry
     estimated scf accuracy    <      19.85486245 Ry

     iteration # 97     ecut=    30.00 Ry     beta=0.70
     Davidson diagonalization with overlap
     ethr =  1.00E-02,  avg # of iterations =  9.0

     negative rho (up, down):  3.348E-01 0.000E+00

     total cpu time spent up to now is       10.3 secs

     total energy              =      88.42863573 Ry
     Harris-Foulkes estimate   =    -613.18730884 Ry
     estimated scf accuracy    <      23.68963058 Ry

     iteration # 98     ecut=    30.00 Ry     beta=0.70
     Davidson diagonalization with overlap
     ethr =  1.00E-02,  avg # of iterations = 11.0

     negative rho (up, down):  2.942E-01 0.000E+00

     total cpu time spent up to now is       10.4 secs

     total energy              =      71.25023888 Ry
     Harris-Foulkes estimate   =    -421.95661867 Ry
     estimated scf accuracy    <      25.91587231 Ry

     iteration # 99     ecut=    30.00 Ry     beta=0.70
     Davidson diagonalization with overlap
     ethr =  1.00E-02,  avg # of iterations =  6.0

     negative rho (up, down):  1.467E-01 0.000E+00

     total cpu time spent up to now is       10.4 secs

     total energy              =   62456.54836282 Ry
     Harris-Foulkes estimate   =    -840.82365953 Ry
     estimated scf accuracy    <      25.97259164 Ry

     iteration #100     ecut=    30.00 Ry     beta=0.70
     Davidson diagonalization with overlap
     ethr =  1.00E-02,  avg # of iterations =  9.0

     negative rho (up, down):  6.762E-03 0.000E+00

     total cpu time spent up to now is       10.5 secs

     total energy              =     -55.39331954 Ry
     Harris-Foulkes estimate   =   -3106.62359567 Ry
     estimated scf accuracy    <      20.45265143 Ry

     End of self-consistent calculation

     convergence NOT achieved after 100 iterations: stopping

     Writing output data file pwscf.save
 
     init_run     :      0.09s CPU      0.11s WALL (       1 calls)
     electrons    :      7.60s CPU      9.32s WALL (       5 calls)
     update_pot   :      0.45s CPU      0.65s WALL (       4 calls)
     forces       :      0.10s CPU      0.11s WALL (       4 calls)

     Called by init_run:
     wfcinit      :      0.01s CPU      0.02s WALL (       1 calls)
     potinit      :      0.03s CPU      0.03s WALL (       1 calls)

     Called by electrons:
     c_bands      :      3.90s CPU      4.07s WALL (     194 calls)
     sum_band     :      0.60s CPU      0.63s WALL (     194 calls)
     v_of_rho     :      1.45s CPU      1.52s WALL (     199 calls)
     mix_rho      :      1.42s CPU      2.39s WALL (     194 calls)

     Called by c_bands:
     init_us_2    :      0.02s CPU      0.02s WALL (     389 calls)
     cegterg      :      3.86s CPU      3.98s WALL (     194 calls)

     Called by sum_band:

     Called by *egterg:
     h_psi        :      3.21s CPU      3.30s WALL (    1198 calls)
     g_psi        :      0.03s CPU      0.04s WALL (    1003 calls)
     cdiaghg      :      0.25s CPU      0.26s WALL (    1193 calls)

     Called by h_psi:
     h_psi:pot    :      3.19s CPU      3.28s WALL (    1198 calls)
     h_psi:calbec :      0.05s CPU      0.06s WALL (    1198 calls)
     vloc_psi     :      3.13s CPU      3.21s WALL (    1198 calls)
     add_vuspsi   :      0.01s CPU      0.01s WALL (    1198 calls)

     General routines
     calbec       :      0.07s CPU      0.09s WALL (    1217 calls)
     fft          :      0.92s CPU      0.98s WALL (    2197 calls)
     fftw         :      3.23s CPU      3.32s WALL (   14088 calls)
     davcio       :      0.21s CPU      0.83s WALL (    3448 calls)
 
     Parallel routines
     fft_scatter  :      1.56s CPU      1.65s WALL (   16285 calls)
 
     PWSCF        :     8.44s CPU        10.59s WALL

 
   This run was terminated on:   8:16:27  14Feb2018            

=------------------------------------------------------------------------------=
   JOB DONE.
=------------------------------------------------------------------------------=
