
     Program PWSCF v.6.0 (svn rev. 13079) starts on 14Feb2018 at  8:17: 0 

     This program is part of the open-source Quantum ESPRESSO suite
     for quantum simulation of materials; please cite
         "P. Giannozzi et al., J. Phys.:Condens. Matter 21 395502 (2009);
          URL http://www.quantum-espresso.org", 
     in publications or presentations arising from this work. More details at
     http://www.quantum-espresso.org/quote

     Parallel version (MPI), running on    28 processors
     R & G space division:  proc/nbgrp/npool/nimage =      28
     Reading input from inputs/MD-H2O-2/319.in

     Current dimensions of program PWSCF are:
     Max number of different atomic species (ntypx) = 10
     Max number of k-points (npk) =  40000
     Max angular momentum in pseudopotentials (lmaxx) =  3

     Subspace diagonalization in iterative solution of the eigenvalue problem:
     a serial algorithm will be used

 
     Parallelization info
     --------------------
     sticks:   dense  smooth     PW     G-vecs:    dense   smooth      PW
     Min         136     136     33                 6338     6338     787
     Max         137     137     34                 6341     6341     792
     Sum        3809    3809    949               177509   177509   22119
 


     bravais-lattice index     =            1
     lattice parameter (alat)  =      20.0000  a.u.
     unit-cell volume          =    8000.0000 (a.u.)^3
     number of atoms/cell      =            3
     number of atomic types    =            2
     number of electrons       =         8.00
     number of Kohn-Sham states=            8
     kinetic-energy cutoff     =      30.0000  Ry
     charge density cutoff     =     120.0000  Ry
     convergence threshold     =      1.0E-08
     mixing beta               =       0.7000
     number of iterations used =            8  plain     mixing
     Exchange-correlation      = BLYP ( 1  3  1  3 0 0)
     nstep                     =         5000


     celldm(1)=  20.000000  celldm(2)=   0.000000  celldm(3)=   0.000000
     celldm(4)=   0.000000  celldm(5)=   0.000000  celldm(6)=   0.000000

     crystal axes: (cart. coord. in units of alat)
               a(1) = (   1.000000   0.000000   0.000000 )  
               a(2) = (   0.000000   1.000000   0.000000 )  
               a(3) = (   0.000000   0.000000   1.000000 )  

     reciprocal axes: (cart. coord. in units 2 pi/alat)
               b(1) = (  1.000000  0.000000  0.000000 )  
               b(2) = (  0.000000  1.000000  0.000000 )  
               b(3) = (  0.000000  0.000000  1.000000 )  


     PseudoPot. # 1 for  H read from file:
     ./H.blyp-hgh.UPF
     MD5 check sum: c576e69559cde411e611be972c763230
     Pseudo is Norm-conserving, Zval =  1.0
     Generated in analytical, separable form
     Using radial grid of  929 points,  0 beta functions with: 

     PseudoPot. # 2 for  O read from file:
     ./O.blyp-hgh.UPF
     MD5 check sum: d0b7156309aa9befef28faac7bc56342
     Pseudo is Norm-conserving, Zval =  6.0
     Generated in analytical, separable form
     Using radial grid of 1095 points,  1 beta functions with: 
                l(1) =   0

     atomic species   valence    mass     pseudopotential
        H              1.00     1.01000      H( 1.00)
        O              6.00    16.00000      O( 1.00)

     No symmetry found



   Cartesian axes

     site n.     atom                  positions (alat units)
         1           H   tau(   1) = (   0.0727112   0.8907751   0.1842893  )
         2           H   tau(   2) = (   0.1682113   0.7291148   0.9283683  )
         3           O   tau(   3) = (   0.1309695   0.8439615   0.2498589  )

     number of k points=     1  Marzari-Vanderbilt smearing, width (Ry)=  0.0250
                       cart. coord. in units 2pi/alat
        k(    1) = (   0.0000000   0.0000000   0.0000000), wk =   2.0000000

     Dense  grid:   177509 G-vectors     FFT dimensions: (  72,  72,  72)

     Estimated max dynamical RAM per process >       6.09Mb

     Estimated total allocated dynamical RAM >     170.64Mb

     Initial potential from superposition of free atoms
     Check: negative starting charge=   -0.344885

     starting charge    7.99998, renormalised to    8.00000

     negative rho (up, down):  3.449E-01 0.000E+00
     Starting wfc are    6 randomized atomic wfcs +    2 random wfc

     total cpu time spent up to now is        0.2 secs

     per-process dynamical memory:    18.8 Mb

     Self-consistent Calculation

     iteration #  1     ecut=    30.00 Ry     beta=0.70
     Davidson diagonalization with overlap
     ethr =  1.00E-02,  avg # of iterations =  9.0

     negative rho (up, down):  9.083E-02 0.000E+00

     total cpu time spent up to now is        0.3 secs

     total energy              =     -30.80250855 Ry
     Harris-Foulkes estimate   =     -32.23297963 Ry
     estimated scf accuracy    <       1.63108744 Ry

     iteration #  2     ecut=    30.00 Ry     beta=0.70
     Davidson diagonalization with overlap
     ethr =  1.00E-02,  avg # of iterations =  3.0

     negative rho (up, down):  6.688E-02 0.000E+00

     total cpu time spent up to now is        0.3 secs

     total energy              =     -32.11814316 Ry
     Harris-Foulkes estimate   =     -33.93775082 Ry
     estimated scf accuracy    <       4.59784893 Ry

     iteration #  3     ecut=    30.00 Ry     beta=0.70
     Davidson diagonalization with overlap
     ethr =  1.00E-02,  avg # of iterations =  2.0

     negative rho (up, down):  6.615E-02 0.000E+00

     total cpu time spent up to now is        0.4 secs

     total energy              =     -32.29596665 Ry
     Harris-Foulkes estimate   =     -32.31502577 Ry
     estimated scf accuracy    <       1.45495747 Ry

     iteration #  4     ecut=    30.00 Ry     beta=0.70
     Davidson diagonalization with overlap
     ethr =  1.00E-02,  avg # of iterations =  1.0

     negative rho (up, down):  3.211E-02 0.000E+00

     total cpu time spent up to now is        0.4 secs

     total energy              =     -31.62430235 Ry
     Harris-Foulkes estimate   =     -32.29620532 Ry
     estimated scf accuracy    <       1.42758521 Ry

     iteration #  5     ecut=    30.00 Ry     beta=0.70
     Davidson diagonalization with overlap
     ethr =  1.00E-02,  avg # of iterations =  2.0

     negative rho (up, down):  4.369E-03 0.000E+00

     total cpu time spent up to now is        0.4 secs

     total energy              =     -32.33556746 Ry
     Harris-Foulkes estimate   =     -32.31252445 Ry
     estimated scf accuracy    <       1.80492824 Ry

     iteration #  6     ecut=    30.00 Ry     beta=0.70
     Davidson diagonalization with overlap
     ethr =  1.00E-02,  avg # of iterations =  1.0

     negative rho (up, down):  1.137E-03 0.000E+00

     total cpu time spent up to now is        0.5 secs

     total energy              =     -32.13853509 Ry
     Harris-Foulkes estimate   =     -32.33920245 Ry
     estimated scf accuracy    <       1.80021060 Ry

     iteration #  7     ecut=    30.00 Ry     beta=0.70
     Davidson diagonalization with overlap
     ethr =  1.00E-02,  avg # of iterations =  1.0

     negative rho (up, down):  3.945E-05 0.000E+00

     total cpu time spent up to now is        0.5 secs

     total energy              =     -31.83324551 Ry
     Harris-Foulkes estimate   =     -32.14241830 Ry
     estimated scf accuracy    <       1.44706891 Ry

     iteration #  8     ecut=    30.00 Ry     beta=0.70
     Davidson diagonalization with overlap
     ethr =  1.00E-02,  avg # of iterations =  1.0

     negative rho (up, down):  5.503E-04 0.000E+00

     total cpu time spent up to now is        0.5 secs

     total energy              =     -31.89809844 Ry
     Harris-Foulkes estimate   =     -32.01754465 Ry
     estimated scf accuracy    <       0.84111887 Ry

     iteration #  9     ecut=    30.00 Ry     beta=0.70
     Davidson diagonalization with overlap
     ethr =  1.00E-02,  avg # of iterations =  1.0

     negative rho (up, down):  1.236E-04 0.000E+00

     total cpu time spent up to now is        0.6 secs

     total energy              =     -31.96303993 Ry
     Harris-Foulkes estimate   =     -31.98117164 Ry
     estimated scf accuracy    <       1.21988634 Ry

     iteration # 10     ecut=    30.00 Ry     beta=0.70
     Davidson diagonalization with overlap
     ethr =  1.00E-02,  avg # of iterations =  1.0

     negative rho (up, down):  1.169E-03 0.000E+00

     total cpu time spent up to now is        0.6 secs

     total energy              =     -32.05329739 Ry
     Harris-Foulkes estimate   =     -31.96457508 Ry
     estimated scf accuracy    <       0.74815356 Ry

     iteration # 11     ecut=    30.00 Ry     beta=0.70
     Davidson diagonalization with overlap
     ethr =  9.35E-03,  avg # of iterations =  1.0

     negative rho (up, down):  5.362E-04 0.000E+00

     total cpu time spent up to now is        0.6 secs

     total energy              =     -32.07127507 Ry
     Harris-Foulkes estimate   =     -32.07264960 Ry
     estimated scf accuracy    <       1.28753151 Ry

     iteration # 12     ecut=    30.00 Ry     beta=0.70
     Davidson diagonalization with overlap
     ethr =  9.35E-03,  avg # of iterations =  1.0

     negative rho (up, down):  4.002E-05 0.000E+00

     total cpu time spent up to now is        0.6 secs

     total energy              =     -32.04761163 Ry
     Harris-Foulkes estimate   =     -32.07133172 Ry
     estimated scf accuracy    <       1.28579381 Ry

     iteration # 13     ecut=    30.00 Ry     beta=0.70
     Davidson diagonalization with overlap
     ethr =  9.35E-03,  avg # of iterations =  1.0

     negative rho (up, down):  3.665E-03 0.000E+00

     total cpu time spent up to now is        0.7 secs

     total energy              =     -32.14777853 Ry
     Harris-Foulkes estimate   =     -32.04778809 Ry
     estimated scf accuracy    <       1.23936726 Ry

     iteration # 14     ecut=    30.00 Ry     beta=0.70
     Davidson diagonalization with overlap
     ethr =  9.35E-03,  avg # of iterations =  1.0

     negative rho (up, down):  2.248E-03 0.000E+00

     total cpu time spent up to now is        0.7 secs

     total energy              =     -32.11986866 Ry
     Harris-Foulkes estimate   =     -32.14961129 Ry
     estimated scf accuracy    <       1.45125704 Ry

     iteration # 15     ecut=    30.00 Ry     beta=0.70
     Davidson diagonalization with overlap
     ethr =  9.35E-03,  avg # of iterations =  1.0

     negative rho (up, down):  1.616E-03 0.000E+00

     total cpu time spent up to now is        0.7 secs

     total energy              =     -32.10897518 Ry
     Harris-Foulkes estimate   =     -32.12002152 Ry
     estimated scf accuracy    <       1.40037123 Ry

     iteration # 16     ecut=    30.00 Ry     beta=0.70
     Davidson diagonalization with overlap
     ethr =  9.35E-03,  avg # of iterations =  1.0

     negative rho (up, down):  4.496E-05 0.000E+00

     total cpu time spent up to now is        0.8 secs

     total energy              =     -32.04424677 Ry
     Harris-Foulkes estimate   =     -32.10901068 Ry
     estimated scf accuracy    <       1.37668659 Ry

     iteration # 17     ecut=    30.00 Ry     beta=0.70
     Davidson diagonalization with overlap
     ethr =  9.35E-03,  avg # of iterations =  1.0

     negative rho (up, down):  1.498E-03 0.000E+00

     total cpu time spent up to now is        0.8 secs

     total energy              =     -31.64430200 Ry
     Harris-Foulkes estimate   =     -32.04500157 Ry
     estimated scf accuracy    <       1.23644243 Ry

     iteration # 18     ecut=    30.00 Ry     beta=0.70
     Davidson diagonalization with overlap
     ethr =  9.35E-03,  avg # of iterations =  1.0

     negative rho (up, down):  2.411E-04 0.000E+00

     total cpu time spent up to now is        0.8 secs

     total energy              =     -32.06832135 Ry
     Harris-Foulkes estimate   =     -32.23864621 Ry
     estimated scf accuracy    <       1.26611164 Ry

     iteration # 19     ecut=    30.00 Ry     beta=0.70
     Davidson diagonalization with overlap
     ethr =  9.35E-03,  avg # of iterations =  1.0

     negative rho (up, down):  1.728E-06 0.000E+00

     total cpu time spent up to now is        0.9 secs

     total energy              =     -31.98672231 Ry
     Harris-Foulkes estimate   =     -32.07187114 Ry
     estimated scf accuracy    <       0.99099788 Ry

     iteration # 20     ecut=    30.00 Ry     beta=0.70
     Davidson diagonalization with overlap
     ethr =  9.35E-03,  avg # of iterations =  1.0

     negative rho (up, down):  1.830E-07 0.000E+00

     total cpu time spent up to now is        0.9 secs

     total energy              =     -31.97851113 Ry
     Harris-Foulkes estimate   =     -31.98899035 Ry
     estimated scf accuracy    <       0.77737893 Ry

     iteration # 21     ecut=    30.00 Ry     beta=0.70
     Davidson diagonalization with overlap
     ethr =  9.35E-03,  avg # of iterations =  1.0

     negative rho (up, down):  1.413E-06 0.000E+00

     total cpu time spent up to now is        0.9 secs

     total energy              =     -31.97930829 Ry
     Harris-Foulkes estimate   =     -31.97866974 Ry
     estimated scf accuracy    <       0.71966635 Ry

     iteration # 22     ecut=    30.00 Ry     beta=0.70
     Davidson diagonalization with overlap
     ethr =  9.00E-03,  avg # of iterations =  1.0

     negative rho (up, down):  1.503E-05 0.000E+00

     total cpu time spent up to now is        1.0 secs

     total energy              =     -31.97102386 Ry
     Harris-Foulkes estimate   =     -31.97931264 Ry
     estimated scf accuracy    <       0.72373519 Ry

     iteration # 23     ecut=    30.00 Ry     beta=0.70
     Davidson diagonalization with overlap
     ethr =  9.00E-03,  avg # of iterations =  1.0

     negative rho (up, down):  1.827E-06 0.000E+00

     total cpu time spent up to now is        1.0 secs

     total energy              =     -31.98178286 Ry
     Harris-Foulkes estimate   =     -31.97121051 Ry
     estimated scf accuracy    <       0.63977963 Ry

     iteration # 24     ecut=    30.00 Ry     beta=0.70
     Davidson diagonalization with overlap
     ethr =  8.00E-03,  avg # of iterations =  1.0

     negative rho (up, down):  5.369E-07 0.000E+00

     total cpu time spent up to now is        1.0 secs

     total energy              =     -31.98531478 Ry
     Harris-Foulkes estimate   =     -31.98218952 Ry
     estimated scf accuracy    <       0.74258847 Ry

     iteration # 25     ecut=    30.00 Ry     beta=0.70
     Davidson diagonalization with overlap
     ethr =  8.00E-03,  avg # of iterations =  1.0

     negative rho (up, down):  3.957E-07 0.000E+00

     total cpu time spent up to now is        1.1 secs

     total energy              =     -31.97250557 Ry
     Harris-Foulkes estimate   =     -31.98532925 Ry
     estimated scf accuracy    <       0.75960830 Ry

     iteration # 26     ecut=    30.00 Ry     beta=0.70
     Davidson diagonalization with overlap
     ethr =  8.00E-03,  avg # of iterations =  1.0

     negative rho (up, down):  2.297E-05 0.000E+00

     total cpu time spent up to now is        1.1 secs

     total energy              =     -31.84532340 Ry
     Harris-Foulkes estimate   =     -31.97285554 Ry
     estimated scf accuracy    <       0.65470043 Ry

     iteration # 27     ecut=    30.00 Ry     beta=0.70
     Davidson diagonalization with overlap
     ethr =  8.00E-03,  avg # of iterations =  1.0

     negative rho (up, down):  1.040E-07 0.000E+00

     total cpu time spent up to now is        1.1 secs

     total energy              =     -31.97434829 Ry
     Harris-Foulkes estimate   =     -32.07488934 Ry
     estimated scf accuracy    <       1.30565987 Ry

     iteration # 28     ecut=    30.00 Ry     beta=0.70
     Davidson diagonalization with overlap
     ethr =  8.00E-03,  avg # of iterations =  1.0

     negative rho (up, down):  2.124E-07 0.000E+00

     total cpu time spent up to now is        1.2 secs

     total energy              =     -31.90802428 Ry
     Harris-Foulkes estimate   =     -31.97522320 Ry
     estimated scf accuracy    <       1.15580647 Ry

     iteration # 29     ecut=    30.00 Ry     beta=0.70
     Davidson diagonalization with overlap
     ethr =  8.00E-03,  avg # of iterations =  1.0

     negative rho (up, down):  5.506E-07 0.000E+00

     total cpu time spent up to now is        1.2 secs

     total energy              =     -31.96283313 Ry
     Harris-Foulkes estimate   =     -31.96112414 Ry
     estimated scf accuracy    <       0.40963564 Ry

     iteration # 30     ecut=    30.00 Ry     beta=0.70
     Davidson diagonalization with overlap
     ethr =  5.12E-03,  avg # of iterations =  1.0

     negative rho (up, down):  3.769E-07 0.000E+00

     total cpu time spent up to now is        1.2 secs

     total energy              =     -32.00073228 Ry
     Harris-Foulkes estimate   =     -31.96291127 Ry
     estimated scf accuracy    <       0.46300244 Ry

     iteration # 31     ecut=    30.00 Ry     beta=0.70
     Davidson diagonalization with overlap
     ethr =  5.12E-03,  avg # of iterations =  1.0

     total cpu time spent up to now is        1.3 secs

     total energy              =     -31.99050374 Ry
     Harris-Foulkes estimate   =     -32.00882155 Ry
     estimated scf accuracy    <       0.84138498 Ry

     iteration # 32     ecut=    30.00 Ry     beta=0.70
     Davidson diagonalization with overlap
     ethr =  5.12E-03,  avg # of iterations =  1.0

     total cpu time spent up to now is        1.3 secs

     total energy              =     -31.98650127 Ry
     Harris-Foulkes estimate   =     -31.99070694 Ry
     estimated scf accuracy    <       0.78208521 Ry

     iteration # 33     ecut=    30.00 Ry     beta=0.70
     Davidson diagonalization with overlap
     ethr =  5.12E-03,  avg # of iterations =  1.0

     total cpu time spent up to now is        1.3 secs

     total energy              =     -31.98171820 Ry
     Harris-Foulkes estimate   =     -31.98653007 Ry
     estimated scf accuracy    <       0.76091722 Ry

     iteration # 34     ecut=    30.00 Ry     beta=0.70
     Davidson diagonalization with overlap
     ethr =  5.12E-03,  avg # of iterations =  1.0

     total cpu time spent up to now is        1.4 secs

     total energy              =     -31.97697287 Ry
     Harris-Foulkes estimate   =     -31.98174692 Ry
     estimated scf accuracy    <       0.73561996 Ry

     iteration # 35     ecut=    30.00 Ry     beta=0.70
     Davidson diagonalization with overlap
     ethr =  5.12E-03,  avg # of iterations =  1.0

     total cpu time spent up to now is        1.4 secs

     total energy              =     -32.00705028 Ry
     Harris-Foulkes estimate   =     -31.97701692 Ry
     estimated scf accuracy    <       0.70029118 Ry

     iteration # 36     ecut=    30.00 Ry     beta=0.70
     Davidson diagonalization with overlap
     ethr =  5.12E-03,  avg # of iterations =  1.0

     total cpu time spent up to now is        1.4 secs

     total energy              =     -32.00019723 Ry
     Harris-Foulkes estimate   =     -32.00820415 Ry
     estimated scf accuracy    <       0.83094138 Ry

     iteration # 37     ecut=    30.00 Ry     beta=0.70
     Davidson diagonalization with overlap
     ethr =  5.12E-03,  avg # of iterations =  1.0

     negative rho (up, down):  9.393E-07 0.000E+00

     total cpu time spent up to now is        1.5 secs

     total energy              =     -31.82227488 Ry
     Harris-Foulkes estimate   =     -32.00022340 Ry
     estimated scf accuracy    <       0.80984448 Ry

     iteration # 38     ecut=    30.00 Ry     beta=0.70
     Davidson diagonalization with overlap
     ethr =  5.12E-03,  avg # of iterations =  1.0

     negative rho (up, down):  7.326E-06 0.000E+00

     total cpu time spent up to now is        1.5 secs

     total energy              =     -32.21004106 Ry
     Harris-Foulkes estimate   =     -32.09393122 Ry
     estimated scf accuracy    <       1.33041320 Ry

     iteration # 39     ecut=    30.00 Ry     beta=0.70
     Davidson diagonalization with overlap
     ethr =  5.12E-03,  avg # of iterations =  1.0

     negative rho (up, down):  5.730E-06 0.000E+00

     total cpu time spent up to now is        1.5 secs

     total energy              =     -32.20190610 Ry
     Harris-Foulkes estimate   =     -32.21187120 Ry
     estimated scf accuracy    <       1.56459827 Ry

     iteration # 40     ecut=    30.00 Ry     beta=0.70
     Davidson diagonalization with overlap
     ethr =  5.12E-03,  avg # of iterations =  1.0

     negative rho (up, down):  2.978E-06 0.000E+00

     total cpu time spent up to now is        1.6 secs

     total energy              =     -32.17748479 Ry
     Harris-Foulkes estimate   =     -32.20193736 Ry
     estimated scf accuracy    <       1.54812285 Ry

     iteration # 41     ecut=    30.00 Ry     beta=0.70
     Davidson diagonalization with overlap
     ethr =  5.12E-03,  avg # of iterations =  1.0

     negative rho (up, down):  1.212E-07 0.000E+00

     total cpu time spent up to now is        1.6 secs

     total energy              =     -32.08696429 Ry
     Harris-Foulkes estimate   =     -32.17755447 Ry
     estimated scf accuracy    <       1.50061306 Ry

     iteration # 42     ecut=    30.00 Ry     beta=0.70
     Davidson diagonalization with overlap
     ethr =  5.12E-03,  avg # of iterations =  1.0

     total cpu time spent up to now is        1.6 secs

     total energy              =     -31.94234300 Ry
     Harris-Foulkes estimate   =     -32.08787819 Ry
     estimated scf accuracy    <       1.32476080 Ry

     iteration # 43     ecut=    30.00 Ry     beta=0.70
     Davidson diagonalization with overlap
     ethr =  5.12E-03,  avg # of iterations =  1.0

     negative rho (up, down):  1.439E-08 0.000E+00

     total cpu time spent up to now is        1.7 secs

     total energy              =     -31.95631470 Ry
     Harris-Foulkes estimate   =     -31.95336327 Ry
     estimated scf accuracy    <       0.09218303 Ry

     iteration # 44     ecut=    30.00 Ry     beta=0.70
     Davidson diagonalization with overlap
     ethr =  1.15E-03,  avg # of iterations =  1.0

     negative rho (up, down):  2.252E-08 0.000E+00

     total cpu time spent up to now is        1.7 secs

     total energy              =     -31.95115210 Ry
     Harris-Foulkes estimate   =     -31.95791697 Ry
     estimated scf accuracy    <       0.39151562 Ry

     iteration # 45     ecut=    30.00 Ry     beta=0.70
     Davidson diagonalization with overlap
     ethr =  1.15E-03,  avg # of iterations =  1.0

     negative rho (up, down):  1.040E-07 0.000E+00

     total cpu time spent up to now is        1.7 secs

     total energy              =     -31.95136058 Ry
     Harris-Foulkes estimate   =     -31.95309593 Ry
     estimated scf accuracy    <       0.06846610 Ry

     iteration # 46     ecut=    30.00 Ry     beta=0.70
     Davidson diagonalization with overlap
     ethr =  8.56E-04,  avg # of iterations =  1.0

     negative rho (up, down):  2.392E-07 0.000E+00

     total cpu time spent up to now is        1.8 secs

     total energy              =     -31.95338185 Ry
     Harris-Foulkes estimate   =     -31.95219378 Ry
     estimated scf accuracy    <       0.00138075 Ry

     iteration # 47     ecut=    30.00 Ry     beta=0.70
     Davidson diagonalization with overlap
     ethr =  1.73E-05,  avg # of iterations =  5.0

     negative rho (up, down):  4.038E-07 0.000E+00

     total cpu time spent up to now is        1.8 secs

     total energy              =     -31.98510755 Ry
     Harris-Foulkes estimate   =     -31.97785335 Ry
     estimated scf accuracy    <       1.19552647 Ry

     iteration # 48     ecut=    30.00 Ry     beta=0.70
     Davidson diagonalization with overlap
     ethr =  1.73E-05,  avg # of iterations =  1.0

     negative rho (up, down):  6.178E-07 0.000E+00

     total cpu time spent up to now is        1.8 secs

     total energy              =     -31.96911179 Ry
     Harris-Foulkes estimate   =     -31.98521483 Ry
     estimated scf accuracy    <       1.25368322 Ry

     iteration # 49     ecut=    30.00 Ry     beta=0.70
     Davidson diagonalization with overlap
     ethr =  1.73E-05,  avg # of iterations =  1.0

     negative rho (up, down):  3.427E-06 0.000E+00

     total cpu time spent up to now is        1.9 secs

     total energy              =     -31.97488155 Ry
     Harris-Foulkes estimate   =     -31.96964836 Ry
     estimated scf accuracy    <       0.98955307 Ry

     iteration # 50     ecut=    30.00 Ry     beta=0.70
     Davidson diagonalization with overlap
     ethr =  1.73E-05,  avg # of iterations =  1.0

     total cpu time spent up to now is        1.9 secs

     total energy              =     -31.96927664 Ry
     Harris-Foulkes estimate   =     -31.97510344 Ry
     estimated scf accuracy    <       1.15100432 Ry

     iteration # 51     ecut=    30.00 Ry     beta=0.70
     Davidson diagonalization with overlap
     ethr =  1.73E-05,  avg # of iterations =  2.0

     total cpu time spent up to now is        1.9 secs

     total energy              =     -31.97041719 Ry
     Harris-Foulkes estimate   =     -31.96957649 Ry
     estimated scf accuracy    <       0.97986220 Ry

     iteration # 52     ecut=    30.00 Ry     beta=0.70
     Davidson diagonalization with overlap
     ethr =  1.73E-05,  avg # of iterations =  1.0

     total cpu time spent up to now is        2.0 secs

     total energy              =     -31.95986618 Ry
     Harris-Foulkes estimate   =     -31.97042640 Ry
     estimated scf accuracy    <       1.00963705 Ry

     iteration # 53     ecut=    30.00 Ry     beta=0.70
     Davidson diagonalization with overlap
     ethr =  1.73E-05,  avg # of iterations =  1.0

     total cpu time spent up to now is        2.0 secs

     total energy              =     -31.95504585 Ry
     Harris-Foulkes estimate   =     -31.96101746 Ry
     estimated scf accuracy    <       0.57892667 Ry

     iteration # 54     ecut=    30.00 Ry     beta=0.70
     Davidson diagonalization with overlap
     ethr =  1.73E-05,  avg # of iterations =  1.0

     total cpu time spent up to now is        2.0 secs

     total energy              =     -31.95493646 Ry
     Harris-Foulkes estimate   =     -31.95596737 Ry
     estimated scf accuracy    <       0.26687162 Ry

     iteration # 55     ecut=    30.00 Ry     beta=0.70
     Davidson diagonalization with overlap
     ethr =  1.73E-05,  avg # of iterations =  1.0

     total cpu time spent up to now is        2.1 secs

     total energy              =     -31.94591025 Ry
     Harris-Foulkes estimate   =     -31.95500161 Ry
     estimated scf accuracy    <       0.20308533 Ry

     iteration # 56     ecut=    30.00 Ry     beta=0.70
     Davidson diagonalization with overlap
     ethr =  1.73E-05,  avg # of iterations =  1.0

     total cpu time spent up to now is        2.1 secs

     total energy              =     -31.95144291 Ry
     Harris-Foulkes estimate   =     -31.95281877 Ry
     estimated scf accuracy    <       0.04945805 Ry

     iteration # 57     ecut=    30.00 Ry     beta=0.70
     Davidson diagonalization with overlap
     ethr =  1.73E-05,  avg # of iterations =  1.0

     total cpu time spent up to now is        2.1 secs

     total energy              =     -31.95198539 Ry
     Harris-Foulkes estimate   =     -31.95201907 Ry
     estimated scf accuracy    <       0.00097211 Ry

     iteration # 58     ecut=    30.00 Ry     beta=0.70
     Davidson diagonalization with overlap
     ethr =  1.22E-05,  avg # of iterations =  1.0

     total cpu time spent up to now is        2.2 secs

     total energy              =     -31.95200371 Ry
     Harris-Foulkes estimate   =     -31.95200440 Ry
     estimated scf accuracy    <       0.00001574 Ry

     iteration # 59     ecut=    30.00 Ry     beta=0.70
     Davidson diagonalization with overlap
     ethr =  1.97E-07,  avg # of iterations = 13.0

     total cpu time spent up to now is        2.2 secs

     total energy              =     -31.95200411 Ry
     Harris-Foulkes estimate   =     -31.95200393 Ry
     estimated scf accuracy    <       0.00000179 Ry

     iteration # 60     ecut=    30.00 Ry     beta=0.70
     Davidson diagonalization with overlap
     ethr =  2.24E-08,  avg # of iterations =  1.0

     total cpu time spent up to now is        2.3 secs

     total energy              =     -31.95200434 Ry
     Harris-Foulkes estimate   =     -31.95200454 Ry
     estimated scf accuracy    <       0.00001377 Ry

     iteration # 61     ecut=    30.00 Ry     beta=0.70
     Davidson diagonalization with overlap
     ethr =  2.24E-08,  avg # of iterations =  1.0

     total cpu time spent up to now is        2.3 secs

     total energy              =     -31.95200436 Ry
     Harris-Foulkes estimate   =     -31.95200443 Ry
     estimated scf accuracy    <       0.00000209 Ry

     iteration # 62     ecut=    30.00 Ry     beta=0.70
     Davidson diagonalization with overlap
     ethr =  2.24E-08,  avg # of iterations =  1.0

     total cpu time spent up to now is        2.3 secs

     total energy              =     -31.95200430 Ry
     Harris-Foulkes estimate   =     -31.95200437 Ry
     estimated scf accuracy    <       0.00000044 Ry

     iteration # 63     ecut=    30.00 Ry     beta=0.70
     Davidson diagonalization with overlap
     ethr =  5.45E-09,  avg # of iterations =  1.0

     total cpu time spent up to now is        2.3 secs

     End of self-consistent calculation

          k = 0.0000 0.0000 0.0000 ( 22119 PWs)   bands (ev):

   -24.8489 -10.6919  -7.1950  -7.0994  -6.8694  -0.6560   0.2575   0.8236

     the Fermi energy is    -6.9282 ev

!    total energy              =     -31.95200430 Ry
     Harris-Foulkes estimate   =     -31.95200431 Ry
     estimated scf accuracy    <          5.2E-09 Ry

     convergence has been achieved in  63 iterations

     Forces acting on atoms (Ry/au):

     atom    1 type  1   force =    -0.01181485    0.00943698   -0.01012563
     atom    2 type  1   force =    -0.00117875    0.00316543    0.00981770
     atom    3 type  2   force =     0.01299360   -0.01260241    0.00030793

     Total force =     0.027690     Total SCF correction =     0.000035

     Molecular Dynamics Calculation

     Starting temperature  =  1000.00 K

     temperature is controlled by Andersen thermostat
     Collision frequency = 1.0000/timestep
     mass H                =     1.01
     mass O                =    16.00
     Time step             =   100.00 a.u.,  4.8378 femto-seconds

     Entering Dynamics:    iteration =     1
                           time      =   0.0048 pico-seconds


     Andersen thermostat:    3 collisions

ATOMIC_POSITIONS (bohr)
H        1.621609931  18.143297958   3.432660935
H        3.364355001  14.828502979  18.431794557
O        2.608816620  16.842996001   5.021715467


     kinetic energy (Ekin) =     0.01319564 Ry
     temperature           =   694.47456190 K 
     Ekin + Etot (const)   =   -31.93880866 Ry

     Linear momentum :   -0.0000000000    0.0000000000   -0.0000000000

     Writing output data file pwscf.save
     Check: negative starting charge=   -0.344885
     NEW-OLD atomic charge density approx. for the potential
     Check: negative starting charge=   -0.344738

     negative rho (up, down):  8.851E-02 0.000E+00

     total cpu time spent up to now is        2.6 secs

     per-process dynamical memory:    20.4 Mb

     Self-consistent Calculation

     iteration #  1     ecut=    30.00 Ry     beta=0.70
     Davidson diagonalization with overlap
     c_bands:  1 eigenvalues not converged
     ethr =  1.00E-06,  avg # of iterations = 20.0

     negative rho (up, down):  2.214E-02 0.000E+00

     total cpu time spent up to now is        2.7 secs

     total energy              =     -31.26553020 Ry
     Harris-Foulkes estimate   =     -31.87093203 Ry
     estimated scf accuracy    <       0.82161777 Ry

     iteration #  2     ecut=    30.00 Ry     beta=0.70
     Davidson diagonalization with overlap
     ethr =  1.00E-02,  avg # of iterations =  3.0

     negative rho (up, down):  1.700E-02 0.000E+00

     total cpu time spent up to now is        2.8 secs

     total energy              =     -32.11440553 Ry
     Harris-Foulkes estimate   =     -33.41290646 Ry
     estimated scf accuracy    <       3.69754798 Ry

     iteration #  3     ecut=    30.00 Ry     beta=0.70
     Davidson diagonalization with overlap
     ethr =  1.00E-02,  avg # of iterations =  2.0

     negative rho (up, down):  1.476E-02 0.000E+00

     total cpu time spent up to now is        2.8 secs

     total energy              =     -32.07099162 Ry
     Harris-Foulkes estimate   =     -32.25494757 Ry
     estimated scf accuracy    <       1.32548494 Ry

     iteration #  4     ecut=    30.00 Ry     beta=0.70
     Davidson diagonalization with overlap
     ethr =  1.00E-02,  avg # of iterations =  1.0

     negative rho (up, down):  1.041E-02 0.000E+00

     total cpu time spent up to now is        2.8 secs

     total energy              =     -31.75942488 Ry
     Harris-Foulkes estimate   =     -32.06439323 Ry
     estimated scf accuracy    <       1.05924204 Ry

     iteration #  5     ecut=    30.00 Ry     beta=0.70
     Davidson diagonalization with overlap
     ethr =  1.00E-02,  avg # of iterations =  1.0

     negative rho (up, down):  1.713E-03 0.000E+00

     total cpu time spent up to now is        2.9 secs

     total energy              =     -32.06901265 Ry
     Harris-Foulkes estimate   =     -32.07324103 Ry
     estimated scf accuracy    <       1.33829069 Ry

     iteration #  6     ecut=    30.00 Ry     beta=0.70
     Davidson diagonalization with overlap
     ethr =  1.00E-02,  avg # of iterations =  1.0

     negative rho (up, down):  7.774E-04 0.000E+00

     total cpu time spent up to now is        2.9 secs

     total energy              =     -31.99897099 Ry
     Harris-Foulkes estimate   =     -32.07063462 Ry
     estimated scf accuracy    <       1.32674418 Ry

     iteration #  7     ecut=    30.00 Ry     beta=0.70
     Davidson diagonalization with overlap
     ethr =  1.00E-02,  avg # of iterations =  1.0

     negative rho (up, down):  2.305E-04 0.000E+00

     total cpu time spent up to now is        2.9 secs

     total energy              =     -31.84955771 Ry
     Harris-Foulkes estimate   =     -31.99961928 Ry
     estimated scf accuracy    <       1.18496994 Ry

     iteration #  8     ecut=    30.00 Ry     beta=0.70
     Davidson diagonalization with overlap
     ethr =  1.00E-02,  avg # of iterations =  1.0

     negative rho (up, down):  2.984E-05 0.000E+00

     total cpu time spent up to now is        3.0 secs

     total energy              =     -31.93393951 Ry
     Harris-Foulkes estimate   =     -31.96223666 Ry
     estimated scf accuracy    <       0.79091456 Ry

     iteration #  9     ecut=    30.00 Ry     beta=0.70
     Davidson diagonalization with overlap
     ethr =  9.89E-03,  avg # of iterations =  1.0

     negative rho (up, down):  3.074E-05 0.000E+00

     total cpu time spent up to now is        3.0 secs

     total energy              =     -31.93519160 Ry
     Harris-Foulkes estimate   =     -31.93587042 Ry
     estimated scf accuracy    <       0.46714442 Ry

     iteration # 10     ecut=    30.00 Ry     beta=0.70
     Davidson diagonalization with overlap
     ethr =  5.84E-03,  avg # of iterations =  1.0

     negative rho (up, down):  2.269E-04 0.000E+00

     total cpu time spent up to now is        3.0 secs

     total energy              =     -31.93582337 Ry
     Harris-Foulkes estimate   =     -31.93520204 Ry
     estimated scf accuracy    <       0.44650120 Ry

     iteration # 11     ecut=    30.00 Ry     beta=0.70
     Davidson diagonalization with overlap
     ethr =  5.58E-03,  avg # of iterations =  1.0

     negative rho (up, down):  2.452E-04 0.000E+00

     total cpu time spent up to now is        3.1 secs

     total energy              =     -31.87844799 Ry
     Harris-Foulkes estimate   =     -31.93583134 Ry
     estimated scf accuracy    <       0.46568521 Ry

     iteration # 12     ecut=    30.00 Ry     beta=0.70
     Davidson diagonalization with overlap
     ethr =  5.58E-03,  avg # of iterations =  1.0

     negative rho (up, down):  5.460E-05 0.000E+00

     total cpu time spent up to now is        3.1 secs

     total energy              =     -31.95092159 Ry
     Harris-Foulkes estimate   =     -31.97286439 Ry
     estimated scf accuracy    <       1.20414996 Ry

     iteration # 13     ecut=    30.00 Ry     beta=0.70
     Davidson diagonalization with overlap
     ethr =  5.58E-03,  avg # of iterations =  1.0

     negative rho (up, down):  2.952E-05 0.000E+00

     total cpu time spent up to now is        3.1 secs

     total energy              =     -31.88269184 Ry
     Harris-Foulkes estimate   =     -31.95042422 Ry
     estimated scf accuracy    <       1.20957959 Ry

     iteration # 14     ecut=    30.00 Ry     beta=0.70
     Davidson diagonalization with overlap
     ethr =  5.58E-03,  avg # of iterations =  1.0

     negative rho (up, down):  1.493E-05 0.000E+00

     total cpu time spent up to now is        3.2 secs

     total energy              =     -31.92751883 Ry
     Harris-Foulkes estimate   =     -31.93275073 Ry
     estimated scf accuracy    <       0.36777759 Ry

     iteration # 15     ecut=    30.00 Ry     beta=0.70
     Davidson diagonalization with overlap
     ethr =  4.60E-03,  avg # of iterations =  1.0

     negative rho (up, down):  3.736E-06 0.000E+00

     total cpu time spent up to now is        3.2 secs

     total energy              =     -31.92389494 Ry
     Harris-Foulkes estimate   =     -31.92827154 Ry
     estimated scf accuracy    <       0.17501492 Ry

     iteration # 16     ecut=    30.00 Ry     beta=0.70
     Davidson diagonalization with overlap
     ethr =  2.19E-03,  avg # of iterations =  1.0

     negative rho (up, down):  5.301E-06 0.000E+00

     total cpu time spent up to now is        3.2 secs

     total energy              =     -31.92487954 Ry
     Harris-Foulkes estimate   =     -31.92537452 Ry
     estimated scf accuracy    <       0.01399584 Ry

     iteration # 17     ecut=    30.00 Ry     beta=0.70
     Davidson diagonalization with overlap
     ethr =  1.75E-04,  avg # of iterations =  1.0

     total cpu time spent up to now is        3.3 secs

     total energy              =     -31.92537748 Ry
     Harris-Foulkes estimate   =     -31.92516447 Ry
     estimated scf accuracy    <       0.00050574 Ry

     iteration # 18     ecut=    30.00 Ry     beta=0.70
     Davidson diagonalization with overlap
     ethr =  6.32E-06,  avg # of iterations = 18.0

     total cpu time spent up to now is        3.3 secs

     total energy              =     -31.92625849 Ry
     Harris-Foulkes estimate   =     -31.92713903 Ry
     estimated scf accuracy    <       0.13806936 Ry

     iteration # 19     ecut=    30.00 Ry     beta=0.70
     Davidson diagonalization with overlap
     ethr =  6.32E-06,  avg # of iterations =  1.0

     total cpu time spent up to now is        3.4 secs

     total energy              =     -31.92474109 Ry
     Harris-Foulkes estimate   =     -31.92635450 Ry
     estimated scf accuracy    <       0.08376525 Ry

     iteration # 20     ecut=    30.00 Ry     beta=0.70
     Davidson diagonalization with overlap
     ethr =  6.32E-06,  avg # of iterations =  1.0

     negative rho (up, down):  5.986E-08 0.000E+00

     total cpu time spent up to now is        3.4 secs

     total energy              =     -31.92482512 Ry
     Harris-Foulkes estimate   =     -31.92527731 Ry
     estimated scf accuracy    <       0.00912036 Ry

     iteration # 21     ecut=    30.00 Ry     beta=0.70
     Davidson diagonalization with overlap
     ethr =  6.32E-06,  avg # of iterations =  1.0

     total cpu time spent up to now is        3.4 secs

     total energy              =     -31.92512460 Ry
     Harris-Foulkes estimate   =     -31.92520938 Ry
     estimated scf accuracy    <       0.00429177 Ry

     iteration # 22     ecut=    30.00 Ry     beta=0.70
     Davidson diagonalization with overlap
     ethr =  6.32E-06,  avg # of iterations =  1.0

     total cpu time spent up to now is        3.5 secs

     total energy              =     -31.92513438 Ry
     Harris-Foulkes estimate   =     -31.92515151 Ry
     estimated scf accuracy    <       0.00054383 Ry

     iteration # 23     ecut=    30.00 Ry     beta=0.70
     Davidson diagonalization with overlap
     ethr =  6.32E-06,  avg # of iterations =  1.0

     total cpu time spent up to now is        3.5 secs

     total energy              =     -31.92514315 Ry
     Harris-Foulkes estimate   =     -31.92514308 Ry
     estimated scf accuracy    <       0.00000084 Ry

     iteration # 24     ecut=    30.00 Ry     beta=0.70
     Davidson diagonalization with overlap
     ethr =  1.05E-08,  avg # of iterations =  1.0

     total cpu time spent up to now is        3.5 secs

     total energy              =     -31.92514319 Ry
     Harris-Foulkes estimate   =     -31.92514318 Ry
     estimated scf accuracy    <       0.00000477 Ry

     iteration # 25     ecut=    30.00 Ry     beta=0.70
     Davidson diagonalization with overlap
     ethr =  1.05E-08,  avg # of iterations =  1.0

     total cpu time spent up to now is        3.5 secs

     End of self-consistent calculation

          k = 0.0000 0.0000 0.0000 ( 22119 PWs)   bands (ev):

   -24.2844 -10.2280  -7.1290  -7.0428  -6.8241  -1.2199   0.0999   0.8137

     the Fermi energy is    -6.8727 ev

!    total energy              =     -31.92514330 Ry
     Harris-Foulkes estimate   =     -31.92514326 Ry
     estimated scf accuracy    <          1.4E-09 Ry

     convergence has been achieved in  25 iterations

     Forces acting on atoms (Ry/au):

     atom    1 type  1   force =     0.07055680   -0.09216921    0.11672601
     atom    2 type  1   force =    -0.00106581    0.00254651    0.00862930
     atom    3 type  2   force =    -0.06949099    0.08962269   -0.12535531

     Total force =     0.236126     Total SCF correction =     0.000055

     Entering Dynamics:    iteration =     2
                           time      =   0.0097 pico-seconds


     Andersen thermostat:    3 collisions

ATOMIC_POSITIONS (bohr)
H        2.440479870  17.318216614   4.845782626
H        3.416033608  14.702315021  18.701775554
O        2.553863243  16.903044876   4.915469610


     kinetic energy (Ekin) =     0.05202521 Ry
     temperature           =  2738.04016217 K 
     Ekin + Etot (const)   =   -31.87311809 Ry
     Message from routine dynamics:
     Total linear momentum <> 0

     Linear momentum :   -0.0482643422    0.4839037204    0.0463385468

     Writing output data file pwscf.save

     first order wave-functions extrapolation
     Check: negative starting charge=   -0.344738
     first order charge density extrapolation
     Check: negative starting charge=   -0.351425

     negative rho (up, down):  4.477E-01 0.000E+00

     total cpu time spent up to now is        3.8 secs

     per-process dynamical memory:    20.4 Mb

     Self-consistent Calculation

     iteration #  1     ecut=    30.00 Ry     beta=0.70
     Davidson diagonalization with overlap
     ethr =  1.00E-06,  avg # of iterations = 12.0

     negative rho (up, down):  9.447E-02 0.000E+00

     total cpu time spent up to now is        3.9 secs

     total energy              =      18.12693330 Ry
     Harris-Foulkes estimate   =    -171.29463424 Ry
     estimated scf accuracy    <       6.32143375 Ry

     iteration #  2     ecut=    30.00 Ry     beta=0.70
     Davidson diagonalization with overlap
     ethr =  1.00E-02,  avg # of iterations =  5.0

     negative rho (up, down):  5.781E-02 0.000E+00

     total cpu time spent up to now is        4.0 secs

     total energy              =      -4.81959357 Ry
     Harris-Foulkes estimate   =     -20.85321632 Ry
     estimated scf accuracy    <       8.09126010 Ry

     iteration #  3     ecut=    30.00 Ry     beta=0.70
     Davidson diagonalization with overlap
     ethr =  1.00E-02,  avg # of iterations =  3.0

     negative rho (up, down):  4.127E-02 0.000E+00

     total cpu time spent up to now is        4.0 secs

     total energy              =     -18.26667962 Ry
     Harris-Foulkes estimate   =     -20.54523423 Ry
     estimated scf accuracy    <       6.42632026 Ry

     iteration #  4     ecut=    30.00 Ry     beta=0.70
     Davidson diagonalization with overlap
     ethr =  1.00E-02,  avg # of iterations =  2.0

     negative rho (up, down):  2.663E-02 0.000E+00

     total cpu time spent up to now is        4.0 secs

     total energy              =     -17.23950671 Ry
     Harris-Foulkes estimate   =     -18.37817682 Ry
     estimated scf accuracy    <       2.93248463 Ry

     iteration #  5     ecut=    30.00 Ry     beta=0.70
     Davidson diagonalization with overlap
     ethr =  1.00E-02,  avg # of iterations =  1.0

     negative rho (up, down):  2.637E-02 0.000E+00

     total cpu time spent up to now is        4.1 secs

     total energy              =     -17.54303535 Ry
     Harris-Foulkes estimate   =     -17.81140536 Ry
     estimated scf accuracy    <       2.60571654 Ry

     iteration #  6     ecut=    30.00 Ry     beta=0.70
     Davidson diagonalization with overlap
     ethr =  1.00E-02,  avg # of iterations =  1.0

     negative rho (up, down):  2.683E-02 0.000E+00

     total cpu time spent up to now is        4.1 secs

     total energy              =     -17.60597002 Ry
     Harris-Foulkes estimate   =     -17.54578814 Ry
     estimated scf accuracy    <       2.16457897 Ry

     iteration #  7     ecut=    30.00 Ry     beta=0.70
     Davidson diagonalization with overlap
     ethr =  1.00E-02,  avg # of iterations =  1.0

     negative rho (up, down):  6.315E-02 0.000E+00

     total cpu time spent up to now is        4.1 secs

     total energy              =     -16.69445959 Ry
     Harris-Foulkes estimate   =     -17.60617590 Ry
     estimated scf accuracy    <       2.25438798 Ry

     iteration #  8     ecut=    30.00 Ry     beta=0.70
     Davidson diagonalization with overlap
     ethr =  1.00E-02,  avg # of iterations =  4.0

     negative rho (up, down):  5.118E-02 0.000E+00

     total cpu time spent up to now is        4.2 secs

     total energy              =     -14.54211233 Ry
     Harris-Foulkes estimate   =     -18.05229254 Ry
     estimated scf accuracy    <       2.13693127 Ry

     iteration #  9     ecut=    30.00 Ry     beta=0.70
     Davidson diagonalization with overlap
     ethr =  1.00E-02,  avg # of iterations =  3.0

     negative rho (up, down):  5.575E-02 0.000E+00

     total cpu time spent up to now is        4.2 secs

     total energy              =     -16.57740321 Ry
     Harris-Foulkes estimate   =     -17.68096377 Ry
     estimated scf accuracy    <       1.10823973 Ry

     iteration # 10     ecut=    30.00 Ry     beta=0.70
     Davidson diagonalization with overlap
     ethr =  1.00E-02,  avg # of iterations =  3.0

     negative rho (up, down):  2.071E-01 0.000E+00

     total cpu time spent up to now is        4.3 secs

     total energy              =     -18.37248897 Ry
     Harris-Foulkes estimate   =     -17.53352085 Ry
     estimated scf accuracy    <       1.14551268 Ry

     iteration # 11     ecut=    30.00 Ry     beta=0.70
     Davidson diagonalization with overlap
     ethr =  1.00E-02,  avg # of iterations =  4.0

     negative rho (up, down):  3.602E-03 0.000E+00

     total cpu time spent up to now is        4.3 secs

     total energy              =      30.15397406 Ry
     Harris-Foulkes estimate   =     -66.59116263 Ry
     estimated scf accuracy    <      19.47861016 Ry

     iteration # 12     ecut=    30.00 Ry     beta=0.70
     Davidson diagonalization with overlap
     ethr =  1.00E-02,  avg # of iterations =  5.0

     negative rho (up, down):  2.769E-04 0.000E+00

     total cpu time spent up to now is        4.4 secs

     total energy              =     -17.32131044 Ry
     Harris-Foulkes estimate   =     -17.40350005 Ry
     estimated scf accuracy    <       1.95407086 Ry

     iteration # 13     ecut=    30.00 Ry     beta=0.70
     Davidson diagonalization with overlap
     ethr =  1.00E-02,  avg # of iterations =  1.0

     negative rho (up, down):  3.261E-05 0.000E+00

     total cpu time spent up to now is        4.4 secs

     total energy              =     -17.27425904 Ry
     Harris-Foulkes estimate   =     -17.33157632 Ry
     estimated scf accuracy    <       1.82202285 Ry

     iteration # 14     ecut=    30.00 Ry     beta=0.70
     Davidson diagonalization with overlap
     ethr =  1.00E-02,  avg # of iterations =  1.0

     negative rho (up, down):  1.230E-02 0.000E+00

     total cpu time spent up to now is        4.4 secs

     total energy              =     -16.97063248 Ry
     Harris-Foulkes estimate   =     -17.27578203 Ry
     estimated scf accuracy    <       1.70412872 Ry

     iteration # 15     ecut=    30.00 Ry     beta=0.70
     Davidson diagonalization with overlap
     ethr =  1.00E-02,  avg # of iterations =  1.0

     negative rho (up, down):  8.374E-04 0.000E+00

     total cpu time spent up to now is        4.5 secs

     total energy              =     -17.14897147 Ry
     Harris-Foulkes estimate   =     -17.25662704 Ry
     estimated scf accuracy    <       0.77190807 Ry

     iteration # 16     ecut=    30.00 Ry     beta=0.70
     Davidson diagonalization with overlap
     ethr =  9.65E-03,  avg # of iterations =  1.0

     negative rho (up, down):  5.144E-08 0.000E+00

     total cpu time spent up to now is        4.5 secs

     total energy              =     -17.10767758 Ry
     Harris-Foulkes estimate   =     -17.16781716 Ry
     estimated scf accuracy    <       0.69703024 Ry

     iteration # 17     ecut=    30.00 Ry     beta=0.70
     Davidson diagonalization with overlap
     ethr =  8.71E-03,  avg # of iterations =  1.0

     negative rho (up, down):  7.521E-08 0.000E+00

     total cpu time spent up to now is        4.5 secs

     total energy              =     -17.11820954 Ry
     Harris-Foulkes estimate   =     -17.11722043 Ry
     estimated scf accuracy    <       0.07380907 Ry

     iteration # 18     ecut=    30.00 Ry     beta=0.70
     Davidson diagonalization with overlap
     ethr =  9.23E-04,  avg # of iterations =  1.0

     negative rho (up, down):  2.399E-07 0.000E+00

     total cpu time spent up to now is        4.6 secs

     total energy              =     -17.12124283 Ry
     Harris-Foulkes estimate   =     -17.11850314 Ry
     estimated scf accuracy    <       0.15125330 Ry

     iteration # 19     ecut=    30.00 Ry     beta=0.70
     Davidson diagonalization with overlap
     ethr =  9.23E-04,  avg # of iterations =  1.0

     negative rho (up, down):  3.466E-07 0.000E+00

     total cpu time spent up to now is        4.6 secs

     total energy              =     -17.08748362 Ry
     Harris-Foulkes estimate   =     -17.12220927 Ry
     estimated scf accuracy    <       0.33805524 Ry

     iteration # 20     ecut=    30.00 Ry     beta=0.70
     Davidson diagonalization with overlap
     ethr =  9.23E-04,  avg # of iterations =  1.0

     negative rho (up, down):  8.524E-06 0.000E+00

     total cpu time spent up to now is        4.6 secs

     total energy              =     -16.98250711 Ry
     Harris-Foulkes estimate   =     -17.13502137 Ry
     estimated scf accuracy    <       1.35944578 Ry

     iteration # 21     ecut=    30.00 Ry     beta=0.70
     Davidson diagonalization with overlap
     ethr =  9.23E-04,  avg # of iterations =  1.0

     negative rho (up, down):  9.734E-07 0.000E+00

     total cpu time spent up to now is        4.7 secs

     total energy              =     -17.19899027 Ry
     Harris-Foulkes estimate   =     -17.19056307 Ry
     estimated scf accuracy    <       0.74699727 Ry

     iteration # 22     ecut=    30.00 Ry     beta=0.70
     Davidson diagonalization with overlap
     ethr =  9.23E-04,  avg # of iterations =  1.0

     negative rho (up, down):  2.248E-07 0.000E+00

     total cpu time spent up to now is        4.7 secs

     total energy              =     -17.18500201 Ry
     Harris-Foulkes estimate   =     -17.19907991 Ry
     estimated scf accuracy    <       0.76180852 Ry

     iteration # 23     ecut=    30.00 Ry     beta=0.70
     Davidson diagonalization with overlap
     ethr =  9.23E-04,  avg # of iterations =  1.0

     negative rho (up, down):  2.367E-07 0.000E+00

     total cpu time spent up to now is        4.7 secs

     total energy              =     -17.18058537 Ry
     Harris-Foulkes estimate   =     -17.18505087 Ry
     estimated scf accuracy    <       0.73522124 Ry

     iteration # 24     ecut=    30.00 Ry     beta=0.70
     Davidson diagonalization with overlap
     ethr =  9.23E-04,  avg # of iterations =  1.0

     negative rho (up, down):  1.397E-07 0.000E+00

     total cpu time spent up to now is        4.8 secs

     total energy              =     -17.18973839 Ry
     Harris-Foulkes estimate   =     -17.18059622 Ry
     estimated scf accuracy    <       0.72447731 Ry

     iteration # 25     ecut=    30.00 Ry     beta=0.70
     Davidson diagonalization with overlap
     ethr =  9.23E-04,  avg # of iterations =  1.0

     total cpu time spent up to now is        4.8 secs

     total energy              =     -17.21965198 Ry
     Harris-Foulkes estimate   =     -17.18976564 Ry
     estimated scf accuracy    <       0.74392679 Ry

     iteration # 26     ecut=    30.00 Ry     beta=0.70
     Davidson diagonalization with overlap
     ethr =  9.23E-04,  avg # of iterations =  1.0

     total cpu time spent up to now is        4.8 secs

     total energy              =     -17.24218872 Ry
     Harris-Foulkes estimate   =     -17.21982759 Ry
     estimated scf accuracy    <       0.80007788 Ry

     iteration # 27     ecut=    30.00 Ry     beta=0.70
     Davidson diagonalization with overlap
     ethr =  9.23E-04,  avg # of iterations =  1.0

     total cpu time spent up to now is        4.9 secs

     total energy              =     -17.14448652 Ry
     Harris-Foulkes estimate   =     -17.24225537 Ry
     estimated scf accuracy    <       0.83865237 Ry

     iteration # 28     ecut=    30.00 Ry     beta=0.70
     Davidson diagonalization with overlap
     ethr =  9.23E-04,  avg # of iterations =  1.0

     negative rho (up, down):  3.650E-04 0.000E+00

     total cpu time spent up to now is        4.9 secs

     total energy              =     -16.72256412 Ry
     Harris-Foulkes estimate   =     -17.14637991 Ry
     estimated scf accuracy    <       0.62398063 Ry

     iteration # 29     ecut=    30.00 Ry     beta=0.70
     Davidson diagonalization with overlap
     ethr =  9.23E-04,  avg # of iterations =  4.0

     negative rho (up, down):  1.366E-05 0.000E+00

     total cpu time spent up to now is        4.9 secs

     total energy              =     -17.94807656 Ry
     Harris-Foulkes estimate   =     -18.24547348 Ry
     estimated scf accuracy    <       3.91502823 Ry

     iteration # 30     ecut=    30.00 Ry     beta=0.70
     Davidson diagonalization with overlap
     ethr =  9.23E-04,  avg # of iterations =  2.0

     negative rho (up, down):  1.232E-05 0.000E+00

     total cpu time spent up to now is        5.0 secs

     total energy              =     -17.94585018 Ry
     Harris-Foulkes estimate   =     -17.95767423 Ry
     estimated scf accuracy    <       3.00363138 Ry

     iteration # 31     ecut=    30.00 Ry     beta=0.70
     Davidson diagonalization with overlap
     ethr =  9.23E-04,  avg # of iterations =  1.0

     negative rho (up, down):  2.728E-05 0.000E+00

     total cpu time spent up to now is        5.0 secs

     total energy              =     -17.98126722 Ry
     Harris-Foulkes estimate   =     -17.94595046 Ry
     estimated scf accuracy    <       2.98008247 Ry

     iteration # 32     ecut=    30.00 Ry     beta=0.70
     Davidson diagonalization with overlap
     ethr =  9.23E-04,  avg # of iterations =  1.0

     negative rho (up, down):  3.326E-06 0.000E+00

     total cpu time spent up to now is        5.0 secs

     total energy              =     -17.77265289 Ry
     Harris-Foulkes estimate   =     -17.98131510 Ry
     estimated scf accuracy    <       3.05037382 Ry

     iteration # 33     ecut=    30.00 Ry     beta=0.70
     Davidson diagonalization with overlap
     ethr =  9.23E-04,  avg # of iterations =  1.0

     negative rho (up, down):  6.885E-07 0.000E+00

     total cpu time spent up to now is        5.1 secs

     total energy              =     -17.42130059 Ry
     Harris-Foulkes estimate   =     -17.77463853 Ry
     estimated scf accuracy    <       2.62690234 Ry

     iteration # 34     ecut=    30.00 Ry     beta=0.70
     Davidson diagonalization with overlap
     ethr =  9.23E-04,  avg # of iterations =  2.0

     negative rho (up, down):  2.405E-07 0.000E+00

     total cpu time spent up to now is        5.1 secs

     total energy              =     -17.21847104 Ry
     Harris-Foulkes estimate   =     -17.42820649 Ry
     estimated scf accuracy    <       1.96971112 Ry

     iteration # 35     ecut=    30.00 Ry     beta=0.70
     Davidson diagonalization with overlap
     ethr =  9.23E-04,  avg # of iterations =  1.0

     negative rho (up, down):  4.953E-08 0.000E+00

     total cpu time spent up to now is        5.1 secs

     total energy              =     -16.98290806 Ry
     Harris-Foulkes estimate   =     -17.22173932 Ry
     estimated scf accuracy    <       1.57589764 Ry

     iteration # 36     ecut=    30.00 Ry     beta=0.70
     Davidson diagonalization with overlap
     ethr =  9.23E-04,  avg # of iterations =  3.0

     negative rho (up, down):  1.740E-07 0.000E+00

     total cpu time spent up to now is        5.2 secs

     total energy              =     -17.13618143 Ry
     Harris-Foulkes estimate   =     -17.18565129 Ry
     estimated scf accuracy    <       0.73365391 Ry

     iteration # 37     ecut=    30.00 Ry     beta=0.70
     Davidson diagonalization with overlap
     ethr =  9.23E-04,  avg # of iterations =  1.0

     negative rho (up, down):  5.563E-07 0.000E+00

     total cpu time spent up to now is        5.2 secs

     total energy              =     -17.13738809 Ry
     Harris-Foulkes estimate   =     -17.13743928 Ry
     estimated scf accuracy    <       0.56313388 Ry

     iteration # 38     ecut=    30.00 Ry     beta=0.70
     Davidson diagonalization with overlap
     ethr =  9.23E-04,  avg # of iterations =  1.0

     total cpu time spent up to now is        5.3 secs

     total energy              =     -17.14708450 Ry
     Harris-Foulkes estimate   =     -17.13739580 Ry
     estimated scf accuracy    <       0.56157517 Ry

     iteration # 39     ecut=    30.00 Ry     beta=0.70
     Davidson diagonalization with overlap
     ethr =  9.23E-04,  avg # of iterations =  1.0

     total cpu time spent up to now is        5.3 secs

     total energy              =     -17.14594883 Ry
     Harris-Foulkes estimate   =     -17.14734120 Ry
     estimated scf accuracy    <       0.62633260 Ry

     iteration # 40     ecut=    30.00 Ry     beta=0.70
     Davidson diagonalization with overlap
     ethr =  9.23E-04,  avg # of iterations =  1.0

     total cpu time spent up to now is        5.4 secs

     total energy              =     -17.09792894 Ry
     Harris-Foulkes estimate   =     -17.14595184 Ry
     estimated scf accuracy    <       0.61985080 Ry

     iteration # 41     ecut=    30.00 Ry     beta=0.70
     Davidson diagonalization with overlap
     ethr =  9.23E-04,  avg # of iterations =  1.0

     total cpu time spent up to now is        5.4 secs

     total energy              =     -17.11262310 Ry
     Harris-Foulkes estimate   =     -17.12030366 Ry
     estimated scf accuracy    <       0.15939608 Ry

     iteration # 42     ecut=    30.00 Ry     beta=0.70
     Davidson diagonalization with overlap
     ethr =  9.23E-04,  avg # of iterations =  1.0

     total cpu time spent up to now is        5.4 secs

     total energy              =     -17.12175395 Ry
     Harris-Foulkes estimate   =     -17.11931071 Ry
     estimated scf accuracy    <       0.06912725 Ry

     iteration # 43     ecut=    30.00 Ry     beta=0.70
     Davidson diagonalization with overlap
     ethr =  8.64E-04,  avg # of iterations =  1.0

     total cpu time spent up to now is        5.5 secs

     total energy              =     -17.12946029 Ry
     Harris-Foulkes estimate   =     -17.12279728 Ry
     estimated scf accuracy    <       0.23466008 Ry

     iteration # 44     ecut=    30.00 Ry     beta=0.70
     Davidson diagonalization with overlap
     ethr =  8.64E-04,  avg # of iterations =  1.0

     total cpu time spent up to now is        5.5 secs

     total energy              =     -17.20218193 Ry
     Harris-Foulkes estimate   =     -17.13092830 Ry
     estimated scf accuracy    <       0.46859570 Ry

     iteration # 45     ecut=    30.00 Ry     beta=0.70
     Davidson diagonalization with overlap
     ethr =  8.64E-04,  avg # of iterations =  1.0

     total cpu time spent up to now is        5.5 secs

     total energy              =     -17.19849054 Ry
     Harris-Foulkes estimate   =     -17.21288738 Ry
     estimated scf accuracy    <       0.78674393 Ry

     iteration # 46     ecut=    30.00 Ry     beta=0.70
     Davidson diagonalization with overlap
     ethr =  8.64E-04,  avg # of iterations =  1.0

     total cpu time spent up to now is        5.6 secs

     total energy              =     -17.22547397 Ry
     Harris-Foulkes estimate   =     -17.19854218 Ry
     estimated scf accuracy    <       0.76079076 Ry

     iteration # 47     ecut=    30.00 Ry     beta=0.70
     Davidson diagonalization with overlap
     ethr =  8.64E-04,  avg # of iterations =  1.0

     total cpu time spent up to now is        5.6 secs

     total energy              =     -17.23013118 Ry
     Harris-Foulkes estimate   =     -17.22560063 Ry
     estimated scf accuracy    <       0.80930494 Ry

     iteration # 48     ecut=    30.00 Ry     beta=0.70
     Davidson diagonalization with overlap
     ethr =  8.64E-04,  avg # of iterations =  1.0

     total cpu time spent up to now is        5.6 secs

     total energy              =     -17.22714731 Ry
     Harris-Foulkes estimate   =     -17.23013684 Ry
     estimated scf accuracy    <       0.81755453 Ry

     iteration # 49     ecut=    30.00 Ry     beta=0.70
     Davidson diagonalization with overlap
     ethr =  8.64E-04,  avg # of iterations =  1.0

     total cpu time spent up to now is        5.7 secs

     total energy              =     -17.21328043 Ry
     Harris-Foulkes estimate   =     -17.22714838 Ry
     estimated scf accuracy    <       0.81286696 Ry

     iteration # 50     ecut=    30.00 Ry     beta=0.70
     Davidson diagonalization with overlap
     ethr =  8.64E-04,  avg # of iterations =  1.0

     negative rho (up, down):  6.084E-08 0.000E+00

     total cpu time spent up to now is        5.7 secs

     total energy              =     -17.29253249 Ry
     Harris-Foulkes estimate   =     -17.21330715 Ry
     estimated scf accuracy    <       0.78857072 Ry

     iteration # 51     ecut=    30.00 Ry     beta=0.70
     Davidson diagonalization with overlap
     ethr =  8.64E-04,  avg # of iterations =  1.0

     negative rho (up, down):  2.969E-08 0.000E+00

     total cpu time spent up to now is        5.7 secs

     total energy              =     -17.03714012 Ry
     Harris-Foulkes estimate   =     -17.29327406 Ry
     estimated scf accuracy    <       0.92046959 Ry

     iteration # 52     ecut=    30.00 Ry     beta=0.70
     Davidson diagonalization with overlap
     ethr =  8.64E-04,  avg # of iterations =  2.0

     total cpu time spent up to now is        5.8 secs

     total energy              =     -17.09751934 Ry
     Harris-Foulkes estimate   =     -17.19395584 Ry
     estimated scf accuracy    <       1.51397198 Ry

     iteration # 53     ecut=    30.00 Ry     beta=0.70
     Davidson diagonalization with overlap
     ethr =  8.64E-04,  avg # of iterations =  1.0

     total cpu time spent up to now is        5.8 secs

     total energy              =     -17.13520329 Ry
     Harris-Foulkes estimate   =     -17.11808422 Ry
     estimated scf accuracy    <       0.00133824 Ry

     iteration # 54     ecut=    30.00 Ry     beta=0.70
     Davidson diagonalization with overlap
     ethr =  1.67E-05,  avg # of iterations =  6.0

     total cpu time spent up to now is        5.9 secs

     total energy              =     -17.13953740 Ry
     Harris-Foulkes estimate   =     -17.26070515 Ry
     estimated scf accuracy    <       0.87097175 Ry

     iteration # 55     ecut=    30.00 Ry     beta=0.70
     Davidson diagonalization with overlap
     ethr =  1.67E-05,  avg # of iterations =  5.0

     total cpu time spent up to now is        5.9 secs

     total energy              =     -17.06916072 Ry
     Harris-Foulkes estimate   =     -17.14231922 Ry
     estimated scf accuracy    <       0.60075526 Ry

     iteration # 56     ecut=    30.00 Ry     beta=0.70
     Davidson diagonalization with overlap
     c_bands:  1 eigenvalues not converged
     ethr =  1.67E-05,  avg # of iterations = 20.0

     total cpu time spent up to now is        6.0 secs

     total energy              =     -17.07127357 Ry
     Harris-Foulkes estimate   =     -17.16002665 Ry
     estimated scf accuracy    <       1.63244846 Ry

     iteration # 57     ecut=    30.00 Ry     beta=0.70
     Davidson diagonalization with overlap
     ethr =  1.67E-05,  avg # of iterations =  4.0

     total cpu time spent up to now is        6.0 secs

     total energy              =     -17.12500470 Ry
     Harris-Foulkes estimate   =     -17.12347506 Ry
     estimated scf accuracy    <       0.26395331 Ry

     iteration # 58     ecut=    30.00 Ry     beta=0.70
     Davidson diagonalization with overlap
     ethr =  1.67E-05,  avg # of iterations =  1.0

     total cpu time spent up to now is        6.1 secs

     total energy              =     -17.12539117 Ry
     Harris-Foulkes estimate   =     -17.12508270 Ry
     estimated scf accuracy    <       0.32124255 Ry

     iteration # 59     ecut=    30.00 Ry     beta=0.70
     Davidson diagonalization with overlap
     ethr =  1.67E-05,  avg # of iterations =  1.0

     total cpu time spent up to now is        6.1 secs

     total energy              =     -17.12482157 Ry
     Harris-Foulkes estimate   =     -17.12539361 Ry
     estimated scf accuracy    <       0.33150126 Ry

     iteration # 60     ecut=    30.00 Ry     beta=0.70
     Davidson diagonalization with overlap
     ethr =  1.67E-05,  avg # of iterations =  1.0

     total cpu time spent up to now is        6.1 secs

     total energy              =     -17.12452123 Ry
     Harris-Foulkes estimate   =     -17.12482917 Ry
     estimated scf accuracy    <       0.31335588 Ry

     iteration # 61     ecut=    30.00 Ry     beta=0.70
     Davidson diagonalization with overlap
     ethr =  1.67E-05,  avg # of iterations =  1.0

     total cpu time spent up to now is        6.2 secs

     total energy              =     -17.12529778 Ry
     Harris-Foulkes estimate   =     -17.12452376 Ry
     estimated scf accuracy    <       0.30339076 Ry

     iteration # 62     ecut=    30.00 Ry     beta=0.70
     Davidson diagonalization with overlap
     ethr =  1.67E-05,  avg # of iterations =  1.0

     total cpu time spent up to now is        6.2 secs

     total energy              =     -17.15501840 Ry
     Harris-Foulkes estimate   =     -17.12531391 Ry
     estimated scf accuracy    <       0.32998032 Ry

     iteration # 63     ecut=    30.00 Ry     beta=0.70
     Davidson diagonalization with overlap
     ethr =  1.67E-05,  avg # of iterations =  3.0

     negative rho (up, down):  1.117E-08 0.000E+00

     total cpu time spent up to now is        6.2 secs

     total energy              =     -17.02366694 Ry
     Harris-Foulkes estimate   =     -17.16316611 Ry
     estimated scf accuracy    <       0.68120045 Ry

     iteration # 64     ecut=    30.00 Ry     beta=0.70
     Davidson diagonalization with overlap
     ethr =  1.67E-05,  avg # of iterations =  5.0

     total cpu time spent up to now is        6.3 secs

     total energy              =     -17.13756492 Ry
     Harris-Foulkes estimate   =     -17.23371948 Ry
     estimated scf accuracy    <       1.60671686 Ry

     iteration # 65     ecut=    30.00 Ry     beta=0.70
     Davidson diagonalization with overlap
     ethr =  1.67E-05,  avg # of iterations =  3.0

     negative rho (up, down):  2.306E-07 0.000E+00

     total cpu time spent up to now is        6.3 secs

     total energy              =     -17.26069958 Ry
     Harris-Foulkes estimate   =     -17.13747540 Ry
     estimated scf accuracy    <       1.22880815 Ry

     iteration # 66     ecut=    30.00 Ry     beta=0.70
     Davidson diagonalization with overlap
     ethr =  1.67E-05,  avg # of iterations =  5.0

     total cpu time spent up to now is        6.4 secs

     total energy              =     -17.16805401 Ry
     Harris-Foulkes estimate   =     -17.27297955 Ry
     estimated scf accuracy    <       1.68954210 Ry

     iteration # 67     ecut=    30.00 Ry     beta=0.70
     Davidson diagonalization with overlap
     ethr =  1.67E-05,  avg # of iterations =  4.0

     total cpu time spent up to now is        6.4 secs

     total energy              =     -17.11985566 Ry
     Harris-Foulkes estimate   =     -17.16921182 Ry
     estimated scf accuracy    <       1.58482732 Ry

     iteration # 68     ecut=    30.00 Ry     beta=0.70
     Davidson diagonalization with overlap
     ethr =  1.67E-05,  avg # of iterations =  4.0

     total cpu time spent up to now is        6.5 secs

     total energy              =     -17.13446500 Ry
     Harris-Foulkes estimate   =     -17.12464372 Ry
     estimated scf accuracy    <       0.47856292 Ry

     iteration # 69     ecut=    30.00 Ry     beta=0.70
     Davidson diagonalization with overlap
     ethr =  1.67E-05,  avg # of iterations =  1.0

     total cpu time spent up to now is        6.5 secs

     total energy              =     -17.11159039 Ry
     Harris-Foulkes estimate   =     -17.13757394 Ry
     estimated scf accuracy    <       1.23213522 Ry

     iteration # 70     ecut=    30.00 Ry     beta=0.70
     Davidson diagonalization with overlap
     ethr =  1.67E-05,  avg # of iterations =  2.0

     total cpu time spent up to now is        6.5 secs

     total energy              =     -17.12049557 Ry
     Harris-Foulkes estimate   =     -17.11972787 Ry
     estimated scf accuracy    <       0.12137527 Ry

     iteration # 71     ecut=    30.00 Ry     beta=0.70
     Davidson diagonalization with overlap
     ethr =  1.67E-05,  avg # of iterations =  1.0

     total cpu time spent up to now is        6.6 secs

     total energy              =     -17.11360232 Ry
     Harris-Foulkes estimate   =     -17.12058405 Ry
     estimated scf accuracy    <       0.18434044 Ry

     iteration # 72     ecut=    30.00 Ry     beta=0.70
     Davidson diagonalization with overlap
     ethr =  1.67E-05,  avg # of iterations =  1.0

     total cpu time spent up to now is        6.6 secs

     total energy              =     -17.11428678 Ry
     Harris-Foulkes estimate   =     -17.11842315 Ry
     estimated scf accuracy    <       0.02168375 Ry

     iteration # 73     ecut=    30.00 Ry     beta=0.70
     Davidson diagonalization with overlap
     ethr =  1.67E-05,  avg # of iterations =  2.0

     total cpu time spent up to now is        6.6 secs

     total energy              =     -17.12521683 Ry
     Harris-Foulkes estimate   =     -17.12944574 Ry
     estimated scf accuracy    <       0.79646890 Ry

     iteration # 74     ecut=    30.00 Ry     beta=0.70
     Davidson diagonalization with overlap
     ethr =  1.67E-05,  avg # of iterations =  1.0

     total cpu time spent up to now is        6.7 secs

     total energy              =     -17.11877817 Ry
     Harris-Foulkes estimate   =     -17.12557423 Ry
     estimated scf accuracy    <       0.54281778 Ry

     iteration # 75     ecut=    30.00 Ry     beta=0.70
     Davidson diagonalization with overlap
     ethr =  1.67E-05,  avg # of iterations =  1.0

     total cpu time spent up to now is        6.7 secs

     total energy              =     -17.12253246 Ry
     Harris-Foulkes estimate   =     -17.12028215 Ry
     estimated scf accuracy    <       0.16229975 Ry

     iteration # 76     ecut=    30.00 Ry     beta=0.70
     Davidson diagonalization with overlap
     ethr =  1.67E-05,  avg # of iterations =  1.0

     total cpu time spent up to now is        6.7 secs

     total energy              =     -17.11572909 Ry
     Harris-Foulkes estimate   =     -17.12309301 Ry
     estimated scf accuracy    <       0.36777156 Ry

     iteration # 77     ecut=    30.00 Ry     beta=0.70
     Davidson diagonalization with overlap
     ethr =  1.67E-05,  avg # of iterations =  1.0

     total cpu time spent up to now is        6.8 secs

     total energy              =     -17.11834787 Ry
     Harris-Foulkes estimate   =     -17.11841572 Ry
     estimated scf accuracy    <       0.02580293 Ry

     iteration # 78     ecut=    30.00 Ry     beta=0.70
     Davidson diagonalization with overlap
     ethr =  1.67E-05,  avg # of iterations =  1.0

     total cpu time spent up to now is        6.8 secs

     total energy              =     -17.11833497 Ry
     Harris-Foulkes estimate   =     -17.11835133 Ry
     estimated scf accuracy    <       0.02133557 Ry

     iteration # 79     ecut=    30.00 Ry     beta=0.70
     Davidson diagonalization with overlap
     ethr =  1.67E-05,  avg # of iterations =  1.0

     total cpu time spent up to now is        6.8 secs

     total energy              =     -17.11847730 Ry
     Harris-Foulkes estimate   =     -17.11833625 Ry
     estimated scf accuracy    <       0.02070096 Ry

     iteration # 80     ecut=    30.00 Ry     beta=0.70
     Davidson diagonalization with overlap
     ethr =  1.67E-05,  avg # of iterations =  1.0

     total cpu time spent up to now is        6.9 secs

     total energy              =     -17.11838595 Ry
     Harris-Foulkes estimate   =     -17.11849450 Ry
     estimated scf accuracy    <       0.03204544 Ry

     iteration # 81     ecut=    30.00 Ry     beta=0.70
     Davidson diagonalization with overlap
     ethr =  1.67E-05,  avg # of iterations =  1.0

     total cpu time spent up to now is        6.9 secs

     total energy              =     -17.11814705 Ry
     Harris-Foulkes estimate   =     -17.11839281 Ry
     estimated scf accuracy    <       0.02464361 Ry

     iteration # 82     ecut=    30.00 Ry     beta=0.70
     Davidson diagonalization with overlap
     ethr =  1.67E-05,  avg # of iterations =  1.0

     total cpu time spent up to now is        6.9 secs

     total energy              =     -17.11797356 Ry
     Harris-Foulkes estimate   =     -17.11818981 Ry
     estimated scf accuracy    <       0.01036254 Ry

     iteration # 83     ecut=    30.00 Ry     beta=0.70
     Davidson diagonalization with overlap
     ethr =  1.67E-05,  avg # of iterations =  1.0

     total cpu time spent up to now is        6.9 secs

     total energy              =     -17.11803239 Ry
     Harris-Foulkes estimate   =     -17.11805356 Ry
     estimated scf accuracy    <       0.00083612 Ry

     iteration # 84     ecut=    30.00 Ry     beta=0.70
     Davidson diagonalization with overlap
     ethr =  1.05E-05,  avg # of iterations =  1.0

     total cpu time spent up to now is        7.0 secs

     total energy              =     -17.11804458 Ry
     Harris-Foulkes estimate   =     -17.11804416 Ry
     estimated scf accuracy    <       0.00000143 Ry

     iteration # 85     ecut=    30.00 Ry     beta=0.70
     Davidson diagonalization with overlap
     ethr =  1.79E-08,  avg # of iterations =  1.0

     total cpu time spent up to now is        7.0 secs

     total energy              =     -17.11804452 Ry
     Harris-Foulkes estimate   =     -17.11804463 Ry
     estimated scf accuracy    <       0.00000015 Ry

     iteration # 86     ecut=    30.00 Ry     beta=0.70
     Davidson diagonalization with overlap
     ethr =  1.83E-09,  avg # of iterations =  1.0

     total cpu time spent up to now is        7.0 secs

     total energy              =     -17.11804442 Ry
     Harris-Foulkes estimate   =     -17.11804452 Ry
     estimated scf accuracy    <       0.00000002 Ry

     iteration # 87     ecut=    30.00 Ry     beta=0.70
     Davidson diagonalization with overlap
     ethr =  2.31E-10,  avg # of iterations =  2.0

     total cpu time spent up to now is        7.1 secs

     End of self-consistent calculation

          k = 0.0000 0.0000 0.0000 ( 22119 PWs)   bands (ev):

   -29.8760 -10.5619  -7.9844  -7.8995  -7.6410  -0.2534   0.5931   0.7612

     the Fermi energy is    -7.7160 ev

!    total energy              =     -17.11804445 Ry
     Harris-Foulkes estimate   =     -17.11804443 Ry
     estimated scf accuracy    <          1.7E-09 Ry

     convergence has been achieved in  87 iterations

     Forces acting on atoms (Ry/au):

     atom    1 type  1   force =   -16.17839164   59.23999708   -9.94421155
     atom    2 type  1   force =    -0.00165816    0.00498574    0.01011888
     atom    3 type  2   force =    16.18004981  -59.24498282    9.93409268

     Total force =    87.979846     Total SCF correction =     0.000038

     Entering Dynamics:    iteration =     3
                           time      =   0.0145 pico-seconds


     Andersen thermostat:    3 collisions

ATOMIC_POSITIONS (bohr)
H     -173.083266538 660.557720149-103.089426635
H        3.541378148  14.829032022  19.150646771
O       13.625887361 -23.709447795  11.700544699


     kinetic energy (Ekin) =  5575.42424346 Ry
     temperature           = ************** K 
     Ekin + Etot (const)   =  5558.30619901 Ry
     Message from routine dynamics:
     Total linear momentum <> 0

     Linear momentum :    0.3047675616   -0.3500624036   -0.1369358232

     Writing output data file pwscf.save

     second order wave-functions extrapolation
     Check: negative starting charge=   -0.351425
     second order charge density extrapolation
     Check: negative starting charge=   -0.351537

     negative rho (up, down):  2.510E+02 0.000E+00

     total cpu time spent up to now is        7.4 secs

     per-process dynamical memory:    20.4 Mb

     Self-consistent Calculation

     iteration #  1     ecut=    30.00 Ry     beta=0.70
     Davidson diagonalization with overlap
     c_bands:  1 eigenvalues not converged
     ethr =  1.00E-06,  avg # of iterations = 20.0

     negative rho (up, down):  7.400E+01 0.000E+00

     total cpu time spent up to now is        7.5 secs

     total energy              =   -4225.76762988 Ry
     Harris-Foulkes estimate   = -382932.32862284 Ry
     estimated scf accuracy    <   18640.51158339 Ry

     iteration #  2     ecut=    30.00 Ry     beta=0.70
     Davidson diagonalization with overlap
     ethr =  1.00E-02,  avg # of iterations = 14.0

     negative rho (up, down):  3.906E-01 0.000E+00

     total cpu time spent up to now is        7.6 secs

     total energy              =     151.30713151 Ry
     Harris-Foulkes estimate   =  -47081.67661245 Ry
     estimated scf accuracy    <    1651.12061607 Ry

     iteration #  3     ecut=    30.00 Ry     beta=0.70
     Davidson diagonalization with overlap
[...]
     Harris-Foulkes estimate   =   -1041.90453823 Ry
     estimated scf accuracy    <      33.24797592 Ry

     iteration # 59     ecut=    30.00 Ry     beta=0.70
     Davidson diagonalization with overlap
     ethr =  1.00E-02,  avg # of iterations =  9.0

     negative rho (up, down):  3.676E-02 0.000E+00

     total cpu time spent up to now is       10.7 secs

     total energy              =     143.40080321 Ry
     Harris-Foulkes estimate   =   -2587.70588840 Ry
     estimated scf accuracy    <      54.33041115 Ry

     iteration # 60     ecut=    30.00 Ry     beta=0.70
     Davidson diagonalization with overlap
     ethr =  1.00E-02,  avg # of iterations =  8.0

     negative rho (up, down):  8.683E-02 0.000E+00

     total cpu time spent up to now is       10.8 secs

     total energy              =    -119.76951288 Ry
     Harris-Foulkes estimate   =    -365.64024943 Ry
     estimated scf accuracy    <      27.63090404 Ry

     iteration # 61     ecut=    30.00 Ry     beta=0.70
     Davidson diagonalization with overlap
     ethr =  1.00E-02,  avg # of iterations =  8.0

     negative rho (up, down):  5.149E-02 0.000E+00

     total cpu time spent up to now is       10.8 secs

     total energy              =     -33.21517168 Ry
     Harris-Foulkes estimate   =   -1076.20868618 Ry
     estimated scf accuracy    <      22.00652638 Ry

     iteration # 62     ecut=    30.00 Ry     beta=0.70
     Davidson diagonalization with overlap
     ethr =  1.00E-02,  avg # of iterations =  5.0

     negative rho (up, down):  1.332E-04 0.000E+00

     total cpu time spent up to now is       10.9 secs

     total energy              =      36.47371445 Ry
     Harris-Foulkes estimate   =    -276.43693403 Ry
     estimated scf accuracy    <      17.61084885 Ry

     iteration # 63     ecut=    30.00 Ry     beta=0.70
     Davidson diagonalization with overlap
     ethr =  1.00E-02,  avg # of iterations =  7.0

     negative rho (up, down):  1.026E-02 0.000E+00

     total cpu time spent up to now is       10.9 secs

     total energy              =     -41.35870944 Ry
     Harris-Foulkes estimate   =     -44.18049865 Ry
     estimated scf accuracy    <      21.79722241 Ry

     iteration # 64     ecut=    30.00 Ry     beta=0.70
     Davidson diagonalization with overlap
     ethr =  1.00E-02,  avg # of iterations =  8.0

     negative rho (up, down):  2.940E-04 0.000E+00

     total cpu time spent up to now is       11.0 secs

     total energy              =      64.20226506 Ry
     Harris-Foulkes estimate   =    -100.10107840 Ry
     estimated scf accuracy    <      23.17500478 Ry

     iteration # 65     ecut=    30.00 Ry     beta=0.70
     Davidson diagonalization with overlap
     ethr =  1.00E-02,  avg # of iterations =  6.0

     negative rho (up, down):  4.758E-01 0.000E+00

     total cpu time spent up to now is       11.0 secs

     total energy              =     -62.17066106 Ry
     Harris-Foulkes estimate   =     -40.87298223 Ry
     estimated scf accuracy    <      16.89849780 Ry

     iteration # 66     ecut=    30.00 Ry     beta=0.70
     Davidson diagonalization with overlap
     ethr =  1.00E-02,  avg # of iterations =  8.0

     negative rho (up, down):  4.808E-01 0.000E+00

     total cpu time spent up to now is       11.1 secs

     total energy              =    -350.41787171 Ry
     Harris-Foulkes estimate   =   -1084.86923467 Ry
     estimated scf accuracy    <      30.80908510 Ry

     iteration # 67     ecut=    30.00 Ry     beta=0.70
     Davidson diagonalization with overlap
     ethr =  1.00E-02,  avg # of iterations =  7.0

     negative rho (up, down):  3.136E-01 0.000E+00

     total cpu time spent up to now is       11.2 secs

     total energy              =      84.99285115 Ry
     Harris-Foulkes estimate   =   -1149.64455872 Ry
     estimated scf accuracy    <      30.07546643 Ry

     iteration # 68     ecut=    30.00 Ry     beta=0.70
     Davidson diagonalization with overlap
     ethr =  1.00E-02,  avg # of iterations =  8.0

     negative rho (up, down):  6.088E-01 0.000E+00

     total cpu time spent up to now is       11.2 secs

     total energy              =      12.07354030 Ry
     Harris-Foulkes estimate   =    -190.99848280 Ry
     estimated scf accuracy    <      24.13359227 Ry

     iteration # 69     ecut=    30.00 Ry     beta=0.70
     Davidson diagonalization with overlap
     ethr =  1.00E-02,  avg # of iterations = 11.0

     negative rho (up, down):  3.417E-01 0.000E+00

     total cpu time spent up to now is       11.3 secs

     total energy              =    -154.87779941 Ry
     Harris-Foulkes estimate   =    -699.92964629 Ry
     estimated scf accuracy    <      19.50492968 Ry

     iteration # 70     ecut=    30.00 Ry     beta=0.70
     Davidson diagonalization with overlap
     ethr =  1.00E-02,  avg # of iterations =  8.0

     negative rho (up, down):  2.869E-01 0.000E+00

     total cpu time spent up to now is       11.3 secs

     total energy              =    -138.67597668 Ry
     Harris-Foulkes estimate   =   -1404.58727569 Ry
     estimated scf accuracy    <      28.57501326 Ry

     iteration # 71     ecut=    30.00 Ry     beta=0.70
     Davidson diagonalization with overlap
     ethr =  1.00E-02,  avg # of iterations =  7.0

     negative rho (up, down):  4.776E-01 0.000E+00

     total cpu time spent up to now is       11.4 secs

     total energy              =      21.94360407 Ry
     Harris-Foulkes estimate   =    -831.63668043 Ry
     estimated scf accuracy    <      34.74029969 Ry

     iteration # 72     ecut=    30.00 Ry     beta=0.70
     Davidson diagonalization with overlap
     ethr =  1.00E-02,  avg # of iterations =  6.0

     negative rho (up, down):  4.382E-01 0.000E+00

     total cpu time spent up to now is       11.4 secs

     total energy              =      64.05400477 Ry
     Harris-Foulkes estimate   =   -1806.29223643 Ry
     estimated scf accuracy    <      34.77321562 Ry

     iteration # 73     ecut=    30.00 Ry     beta=0.70
     Davidson diagonalization with overlap
     ethr =  1.00E-02,  avg # of iterations = 12.0

     negative rho (up, down):  5.243E-01 0.000E+00

     total cpu time spent up to now is       11.5 secs

     total energy              =      78.79150071 Ry
     Harris-Foulkes estimate   =    -857.84352657 Ry
     estimated scf accuracy    <      38.65168206 Ry

     iteration # 74     ecut=    30.00 Ry     beta=0.70
     Davidson diagonalization with overlap
     ethr =  1.00E-02,  avg # of iterations =  9.0

     negative rho (up, down):  6.624E-01 0.000E+00

     total cpu time spent up to now is       11.6 secs

     total energy              =      87.73433730 Ry
     Harris-Foulkes estimate   =   -3415.02889421 Ry
     estimated scf accuracy    <      39.64714215 Ry

     iteration # 75     ecut=    30.00 Ry     beta=0.70
     Davidson diagonalization with overlap
     ethr =  1.00E-02,  avg # of iterations = 11.0

     negative rho (up, down):  2.500E-01 0.000E+00

     total cpu time spent up to now is       11.6 secs

     total energy              =      -0.88286323 Ry
     Harris-Foulkes estimate   =    -895.29814043 Ry
     estimated scf accuracy    <      30.99965514 Ry

     iteration # 76     ecut=    30.00 Ry     beta=0.70
     Davidson diagonalization with overlap
     ethr =  1.00E-02,  avg # of iterations =  6.0

     negative rho (up, down):  6.351E-01 0.000E+00

     total cpu time spent up to now is       11.7 secs

     total energy              =    -197.01026127 Ry
     Harris-Foulkes estimate   =   -5376.98682295 Ry
     estimated scf accuracy    <      25.40213273 Ry

     iteration # 77     ecut=    30.00 Ry     beta=0.70
     Davidson diagonalization with overlap
     ethr =  1.00E-02,  avg # of iterations =  7.0

     negative rho (up, down):  5.907E-01 0.000E+00

     total cpu time spent up to now is       11.7 secs

     total energy              =     -67.33080202 Ry
     Harris-Foulkes estimate   =   -5215.37002054 Ry
     estimated scf accuracy    <      31.23586433 Ry

     iteration # 78     ecut=    30.00 Ry     beta=0.70
     Davidson diagonalization with overlap
     ethr =  1.00E-02,  avg # of iterations = 10.0

     negative rho (up, down):  7.725E-01 0.000E+00

     total cpu time spent up to now is       11.8 secs

     total energy              =     -21.28722846 Ry
     Harris-Foulkes estimate   =   -3702.87942257 Ry
     estimated scf accuracy    <      40.15970818 Ry

     iteration # 79     ecut=    30.00 Ry     beta=0.70
     Davidson diagonalization with overlap
     ethr =  1.00E-02,  avg # of iterations =  9.0

     negative rho (up, down):  5.133E-01 0.000E+00

     total cpu time spent up to now is       11.9 secs

     total energy              =       0.50398453 Ry
     Harris-Foulkes estimate   =    -963.97766733 Ry
     estimated scf accuracy    <      21.74574334 Ry

     iteration # 80     ecut=    30.00 Ry     beta=0.70
     Davidson diagonalization with overlap
     ethr =  1.00E-02,  avg # of iterations =  9.0

     negative rho (up, down):  3.201E-01 0.000E+00

     total cpu time spent up to now is       11.9 secs

     total energy              =      71.76731789 Ry
     Harris-Foulkes estimate   =    -715.14417074 Ry
     estimated scf accuracy    <      31.02088582 Ry

     iteration # 81     ecut=    30.00 Ry     beta=0.70
     Davidson diagonalization with overlap
     ethr =  1.00E-02,  avg # of iterations = 13.0

     negative rho (up, down):  1.892E-03 0.000E+00

     total cpu time spent up to now is       12.0 secs

     total energy              =     106.59420773 Ry
     Harris-Foulkes estimate   =   -1356.77045117 Ry
     estimated scf accuracy    <      18.73532160 Ry

     iteration # 82     ecut=    30.00 Ry     beta=0.70
     Davidson diagonalization with overlap
     ethr =  1.00E-02,  avg # of iterations =  7.0

     negative rho (up, down):  2.943E-04 0.000E+00

     total cpu time spent up to now is       12.0 secs

     total energy              =     -21.12065675 Ry
     Harris-Foulkes estimate   =     -62.55761089 Ry
     estimated scf accuracy    <      32.91494229 Ry

     iteration # 83     ecut=    30.00 Ry     beta=0.70
     Davidson diagonalization with overlap
     ethr =  1.00E-02,  avg # of iterations =  6.0

     negative rho (up, down):  3.884E-04 0.000E+00

     total cpu time spent up to now is       12.1 secs

     total energy              =     -41.82534017 Ry
     Harris-Foulkes estimate   =     -42.52081195 Ry
     estimated scf accuracy    <      23.00365940 Ry

     iteration # 84     ecut=    30.00 Ry     beta=0.70
     Davidson diagonalization with overlap
     ethr =  1.00E-02,  avg # of iterations =  3.0

     negative rho (up, down):  2.304E-01 0.000E+00

     total cpu time spent up to now is       12.1 secs

     total energy              =     -43.63982377 Ry
     Harris-Foulkes estimate   =     -41.84060703 Ry
     estimated scf accuracy    <      21.54206824 Ry

     iteration # 85     ecut=    30.00 Ry     beta=0.70
     Davidson diagonalization with overlap
     ethr =  1.00E-02,  avg # of iterations =  4.0

     negative rho (up, down):  5.531E-01 0.000E+00

     total cpu time spent up to now is       12.2 secs

     total energy              =     -74.78438045 Ry
     Harris-Foulkes estimate   =    -485.75520134 Ry
     estimated scf accuracy    <      25.65713437 Ry

     iteration # 86     ecut=    30.00 Ry     beta=0.70
     Davidson diagonalization with overlap
     ethr =  1.00E-02,  avg # of iterations = 11.0

     negative rho (up, down):  5.070E-01 0.000E+00

     total cpu time spent up to now is       12.2 secs

     total energy              =      43.34421243 Ry
     Harris-Foulkes estimate   =    -629.46419963 Ry
     estimated scf accuracy    <      40.08818916 Ry

     iteration # 87     ecut=    30.00 Ry     beta=0.70
     Davidson diagonalization with overlap
     ethr =  1.00E-02,  avg # of iterations =  7.0

     negative rho (up, down):  5.370E-01 0.000E+00

     total cpu time spent up to now is       12.3 secs

     total energy              =    -238.79428919 Ry
     Harris-Foulkes estimate   =    -121.97659780 Ry
     estimated scf accuracy    <      27.48711002 Ry

     iteration # 88     ecut=    30.00 Ry     beta=0.70
     Davidson diagonalization with overlap
     ethr =  1.00E-02,  avg # of iterations =  8.0

     negative rho (up, down):  6.197E-01 0.000E+00

     total cpu time spent up to now is       12.3 secs

     total energy              =      30.86819647 Ry
     Harris-Foulkes estimate   =   -1369.83818595 Ry
     estimated scf accuracy    <      36.17336670 Ry

     iteration # 89     ecut=    30.00 Ry     beta=0.70
     Davidson diagonalization with overlap
     ethr =  1.00E-02,  avg # of iterations =  6.0

     negative rho (up, down):  7.274E-01 0.000E+00

     total cpu time spent up to now is       12.4 secs

     total energy              =     -40.72331515 Ry
     Harris-Foulkes estimate   =    -199.11375898 Ry
     estimated scf accuracy    <      19.23405581 Ry

     iteration # 90     ecut=    30.00 Ry     beta=0.70
     Davidson diagonalization with overlap
     ethr =  1.00E-02,  avg # of iterations =  4.0

     negative rho (up, down):  6.249E-01 0.000E+00

     total cpu time spent up to now is       12.4 secs

     total energy              =      -5.45088725 Ry
     Harris-Foulkes estimate   =    -149.65119182 Ry
     estimated scf accuracy    <      20.59096225 Ry

     iteration # 91     ecut=    30.00 Ry     beta=0.70
     Davidson diagonalization with overlap
     ethr =  1.00E-02,  avg # of iterations =  7.0

     negative rho (up, down):  3.732E-01 0.000E+00

     total cpu time spent up to now is       12.5 secs

     total energy              =     -80.12947717 Ry
     Harris-Foulkes estimate   =    -385.12843544 Ry
     estimated scf accuracy    <      24.10016178 Ry

     iteration # 92     ecut=    30.00 Ry     beta=0.70
     Davidson diagonalization with overlap
     ethr =  1.00E-02,  avg # of iterations = 10.0

     negative rho (up, down):  6.097E-01 0.000E+00

     total cpu time spent up to now is       12.6 secs

     total energy              =   -3522.34685983 Ry
     Harris-Foulkes estimate   =   -1236.83365877 Ry
     estimated scf accuracy    <      36.14654000 Ry

     iteration # 93     ecut=    30.00 Ry     beta=0.70
     Davidson diagonalization with overlap
     ethr =  1.00E-02,  avg # of iterations = 11.0

     negative rho (up, down):  9.103E-01 0.000E+00

     total cpu time spent up to now is       12.6 secs

     total energy              =    -150.64167341 Ry
     Harris-Foulkes estimate   =   -9503.39156920 Ry
     estimated scf accuracy    <      18.72917630 Ry

     iteration # 94     ecut=    30.00 Ry     beta=0.70
     Davidson diagonalization with overlap
     ethr =  1.00E-02,  avg # of iterations =  7.0

     negative rho (up, down):  1.087E+00 0.000E+00

     total cpu time spent up to now is       12.7 secs

     total energy              =       6.91063651 Ry
     Harris-Foulkes estimate   =    -839.43601148 Ry
     estimated scf accuracy    <      27.61444443 Ry

     iteration # 95     ecut=    30.00 Ry     beta=0.70
     Davidson diagonalization with overlap
     ethr =  1.00E-02,  avg # of iterations =  7.0

     negative rho (up, down):  1.089E+00 0.000E+00

     total cpu time spent up to now is       12.7 secs

     total energy              =      84.26825813 Ry
     Harris-Foulkes estimate   =   -3572.48972699 Ry
     estimated scf accuracy    <      30.90618499 Ry

     iteration # 96     ecut=    30.00 Ry     beta=0.70
     Davidson diagonalization with overlap
     ethr =  1.00E-02,  avg # of iterations = 12.0

     negative rho (up, down):  1.077E+00 0.000E+00

     total cpu time spent up to now is       12.8 secs

     total energy              =     -11.45854269 Ry
     Harris-Foulkes estimate   =    -676.44095762 Ry
     estimated scf accuracy    <      31.96722031 Ry

     iteration # 97     ecut=    30.00 Ry     beta=0.70
     Davidson diagonalization with overlap
     ethr =  1.00E-02,  avg # of iterations =  7.0

     negative rho (up, down):  4.143E-01 0.000E+00

     total cpu time spent up to now is       12.8 secs

     total energy              =    1198.62196181 Ry
     Harris-Foulkes estimate   =   -2113.63915060 Ry
     estimated scf accuracy    <      28.53798139 Ry

     iteration # 98     ecut=    30.00 Ry     beta=0.70
     Davidson diagonalization with overlap
     ethr =  1.00E-02,  avg # of iterations =  7.0

     negative rho (up, down):  5.299E-01 0.000E+00

     total cpu time spent up to now is       12.9 secs

     total energy              =      56.21171501 Ry
     Harris-Foulkes estimate   =    -335.39453954 Ry
     estimated scf accuracy    <      25.39077762 Ry

     iteration # 99     ecut=    30.00 Ry     beta=0.70
     Davidson diagonalization with overlap
     ethr =  1.00E-02,  avg # of iterations =  9.0

     negative rho (up, down):  1.097E+00 0.000E+00

     total cpu time spent up to now is       13.0 secs

     total energy              =    -811.35420960 Ry
     Harris-Foulkes estimate   =   -2082.89097413 Ry
     estimated scf accuracy    <      24.69999259 Ry

     iteration #100     ecut=    30.00 Ry     beta=0.70
     Davidson diagonalization with overlap
     ethr =  1.00E-02,  avg # of iterations =  9.0

     negative rho (up, down):  1.247E+00 0.000E+00

     total cpu time spent up to now is       13.0 secs

     total energy              =   -2932.05848298 Ry
     Harris-Foulkes estimate   =   -4677.96261136 Ry
     estimated scf accuracy    <      24.74431153 Ry

     End of self-consistent calculation

     convergence NOT achieved after 100 iterations: stopping

     Writing output data file pwscf.save
 
     init_run     :      0.09s CPU      0.10s WALL (       1 calls)
     electrons    :      9.84s CPU     12.11s WALL (       4 calls)
     update_pot   :      0.32s CPU      0.45s WALL (       3 calls)
     forces       :      0.07s CPU      0.08s WALL (       3 calls)

     Called by init_run:
     wfcinit      :      0.01s CPU      0.02s WALL (       1 calls)
     potinit      :      0.02s CPU      0.03s WALL (       1 calls)

     Called by electrons:
     c_bands      :      4.82s CPU      5.09s WALL (     275 calls)
     sum_band     :      0.80s CPU      0.88s WALL (     275 calls)
     v_of_rho     :      1.97s CPU      2.08s WALL (     279 calls)
     mix_rho      :      2.01s CPU      3.47s WALL (     275 calls)

     Called by c_bands:
     init_us_2    :      0.03s CPU      0.03s WALL (     551 calls)
     cegterg      :      4.76s CPU      4.95s WALL (     275 calls)

     Called by sum_band:

     Called by *egterg:
     h_psi        :      3.98s CPU      4.15s WALL (    1392 calls)
     g_psi        :      0.04s CPU      0.04s WALL (    1116 calls)
     cdiaghg      :      0.28s CPU      0.29s WALL (    1388 calls)

     Called by h_psi:
     h_psi:pot    :      3.96s CPU      4.12s WALL (    1392 calls)
     h_psi:calbec :      0.07s CPU      0.07s WALL (    1392 calls)
     vloc_psi     :      3.87s CPU      4.03s WALL (    1392 calls)
     add_vuspsi   :      0.01s CPU      0.01s WALL (    1392 calls)

     General routines
     calbec       :      0.08s CPU      0.10s WALL (    1406 calls)
     fft          :      1.22s CPU      1.30s WALL (    3075 calls)
     fftw         :      4.00s CPU      4.20s WALL (   18002 calls)
     davcio       :      0.31s CPU      1.27s WALL (    5157 calls)
 
     Parallel routines
     fft_scatter  :      2.01s CPU      2.21s WALL (   21077 calls)
 
     PWSCF        :    10.49s CPU        13.11s WALL

 
   This run was terminated on:   8:17:13  14Feb2018            

=------------------------------------------------------------------------------=
   JOB DONE.
=------------------------------------------------------------------------------=
