
     Program PWSCF v.6.0 (svn rev. 13079) starts on 14Feb2018 at  8:18:20 

     This program is part of the open-source Quantum ESPRESSO suite
     for quantum simulation of materials; please cite
         "P. Giannozzi et al., J. Phys.:Condens. Matter 21 395502 (2009);
          URL http://www.quantum-espresso.org", 
     in publications or presentations arising from this work. More details at
     http://www.quantum-espresso.org/quote

     Parallel version (MPI), running on    28 processors
     R & G space division:  proc/nbgrp/npool/nimage =      28
     Reading input from inputs/MD-H2O-2/325.in

     Current dimensions of program PWSCF are:
     Max number of different atomic species (ntypx) = 10
     Max number of k-points (npk) =  40000
     Max angular momentum in pseudopotentials (lmaxx) =  3

     Subspace diagonalization in iterative solution of the eigenvalue problem:
     a serial algorithm will be used

 
     Parallelization info
     --------------------
     sticks:   dense  smooth     PW     G-vecs:    dense   smooth      PW
     Min         136     136     33                 6338     6338     787
     Max         137     137     34                 6341     6341     792
     Sum        3809    3809    949               177509   177509   22119
 


     bravais-lattice index     =            1
     lattice parameter (alat)  =      20.0000  a.u.
     unit-cell volume          =    8000.0000 (a.u.)^3
     number of atoms/cell      =            3
     number of atomic types    =            2
     number of electrons       =         8.00
     number of Kohn-Sham states=            8
     kinetic-energy cutoff     =      30.0000  Ry
     charge density cutoff     =     120.0000  Ry
     convergence threshold     =      1.0E-08
     mixing beta               =       0.7000
     number of iterations used =            8  plain     mixing
     Exchange-correlation      = BLYP ( 1  3  1  3 0 0)
     nstep                     =         5000


     celldm(1)=  20.000000  celldm(2)=   0.000000  celldm(3)=   0.000000
     celldm(4)=   0.000000  celldm(5)=   0.000000  celldm(6)=   0.000000

     crystal axes: (cart. coord. in units of alat)
               a(1) = (   1.000000   0.000000   0.000000 )  
               a(2) = (   0.000000   1.000000   0.000000 )  
               a(3) = (   0.000000   0.000000   1.000000 )  

     reciprocal axes: (cart. coord. in units 2 pi/alat)
               b(1) = (  1.000000  0.000000  0.000000 )  
               b(2) = (  0.000000  1.000000  0.000000 )  
               b(3) = (  0.000000  0.000000  1.000000 )  


     PseudoPot. # 1 for  H read from file:
     ./H.blyp-hgh.UPF
     MD5 check sum: c576e69559cde411e611be972c763230
     Pseudo is Norm-conserving, Zval =  1.0
     Generated in analytical, separable form
     Using radial grid of  929 points,  0 beta functions with: 

     PseudoPot. # 2 for  O read from file:
     ./O.blyp-hgh.UPF
     MD5 check sum: d0b7156309aa9befef28faac7bc56342
     Pseudo is Norm-conserving, Zval =  6.0
     Generated in analytical, separable form
     Using radial grid of 1095 points,  1 beta functions with: 
                l(1) =   0

     atomic species   valence    mass     pseudopotential
        H              1.00     1.01000      H( 1.00)
        O              6.00    16.00000      O( 1.00)

     No symmetry found



   Cartesian axes

     site n.     atom                  positions (alat units)
         1           H   tau(   1) = (   0.5211776   0.8037349   0.3269621  )
         2           H   tau(   2) = (   0.2377305   0.4394605   0.2205309  )
         3           O   tau(   3) = (   0.5596260   0.8281040   0.4154541  )

     number of k points=     1  Marzari-Vanderbilt smearing, width (Ry)=  0.0250
                       cart. coord. in units 2pi/alat
        k(    1) = (   0.0000000   0.0000000   0.0000000), wk =   2.0000000

     Dense  grid:   177509 G-vectors     FFT dimensions: (  72,  72,  72)

     Estimated max dynamical RAM per process >       6.09Mb

     Estimated total allocated dynamical RAM >     170.64Mb

     Initial potential from superposition of free atoms
     Check: negative starting charge=   -0.349152

     starting charge    7.99998, renormalised to    8.00000

     negative rho (up, down):  3.492E-01 0.000E+00
     Starting wfc are    6 randomized atomic wfcs +    2 random wfc

     total cpu time spent up to now is        0.2 secs

     per-process dynamical memory:    18.8 Mb

     Self-consistent Calculation

     iteration #  1     ecut=    30.00 Ry     beta=0.70
     Davidson diagonalization with overlap
     ethr =  1.00E-02,  avg # of iterations =  6.0

     negative rho (up, down):  9.134E-02 0.000E+00

     total cpu time spent up to now is        0.3 secs

     total energy              =     -30.35644768 Ry
     Harris-Foulkes estimate   =     -32.23601143 Ry
     estimated scf accuracy    <       2.16274831 Ry

     iteration #  2     ecut=    30.00 Ry     beta=0.70
     Davidson diagonalization with overlap
     ethr =  1.00E-02,  avg # of iterations =  3.0

     negative rho (up, down):  6.650E-02 0.000E+00

     total cpu time spent up to now is        0.3 secs

     total energy              =     -32.28986382 Ry
     Harris-Foulkes estimate   =     -34.58255540 Ry
     estimated scf accuracy    <       5.58911410 Ry

     iteration #  3     ecut=    30.00 Ry     beta=0.70
     Davidson diagonalization with overlap
     ethr =  1.00E-02,  avg # of iterations =  2.0

     negative rho (up, down):  6.396E-02 0.000E+00

     total cpu time spent up to now is        0.4 secs

     total energy              =     -32.43916311 Ry
     Harris-Foulkes estimate   =     -32.52518840 Ry
     estimated scf accuracy    <       1.81581165 Ry

     iteration #  4     ecut=    30.00 Ry     beta=0.70
     Davidson diagonalization with overlap
     ethr =  1.00E-02,  avg # of iterations =  1.0

     negative rho (up, down):  1.227E-02 0.000E+00

     total cpu time spent up to now is        0.4 secs

     total energy              =     -31.29935909 Ry
     Harris-Foulkes estimate   =     -32.43949221 Ry
     estimated scf accuracy    <       1.69656159 Ry

     iteration #  5     ecut=    30.00 Ry     beta=0.70
     Davidson diagonalization with overlap
     ethr =  1.00E-02,  avg # of iterations =  4.0

     negative rho (up, down):  2.298E-02 0.000E+00

     total cpu time spent up to now is        0.4 secs

     total energy              =     -33.33370965 Ry
     Harris-Foulkes estimate   =     -33.19320776 Ry
     estimated scf accuracy    <       7.75783090 Ry

     iteration #  6     ecut=    30.00 Ry     beta=0.70
     Davidson diagonalization with overlap
     ethr =  1.00E-02,  avg # of iterations =  1.0

     negative rho (up, down):  1.548E-02 0.000E+00

     total cpu time spent up to now is        0.5 secs

     total energy              =     -32.96796767 Ry
     Harris-Foulkes estimate   =     -33.34439194 Ry
     estimated scf accuracy    <       9.29706967 Ry

     iteration #  7     ecut=    30.00 Ry     beta=0.70
     Davidson diagonalization with overlap
     ethr =  1.00E-02,  avg # of iterations =  1.0

     negative rho (up, down):  1.493E-02 0.000E+00

     total cpu time spent up to now is        0.5 secs

     total energy              =     -32.87304274 Ry
     Harris-Foulkes estimate   =     -33.02885990 Ry
     estimated scf accuracy    <       3.55999789 Ry

     iteration #  8     ecut=    30.00 Ry     beta=0.70
     Davidson diagonalization with overlap
     ethr =  1.00E-02,  avg # of iterations =  1.0

     negative rho (up, down):  4.357E-02 0.000E+00

     total cpu time spent up to now is        0.5 secs

     total energy              =     -32.68399039 Ry
     Harris-Foulkes estimate   =     -32.88202038 Ry
     estimated scf accuracy    <       2.91758792 Ry

     iteration #  9     ecut=    30.00 Ry     beta=0.70
     Davidson diagonalization with overlap
     ethr =  1.00E-02,  avg # of iterations =  1.0

     negative rho (up, down):  8.948E-02 0.000E+00

     total cpu time spent up to now is        0.5 secs

     total energy              =     -31.91282472 Ry
     Harris-Foulkes estimate   =     -32.68622352 Ry
     estimated scf accuracy    <       2.54686622 Ry

     iteration # 10     ecut=    30.00 Ry     beta=0.70
     Davidson diagonalization with overlap
     ethr =  1.00E-02,  avg # of iterations =  1.0

     negative rho (up, down):  5.959E-02 0.000E+00

     total cpu time spent up to now is        0.6 secs

     total energy              =     -32.19835488 Ry
     Harris-Foulkes estimate   =     -31.95176167 Ry
     estimated scf accuracy    <       0.81800881 Ry

     iteration # 11     ecut=    30.00 Ry     beta=0.70
     Davidson diagonalization with overlap
     ethr =  1.00E-02,  avg # of iterations =  1.0

     negative rho (up, down):  9.146E-02 0.000E+00

     total cpu time spent up to now is        0.6 secs

     total energy              =     -32.19516600 Ry
     Harris-Foulkes estimate   =     -32.26248302 Ry
     estimated scf accuracy    <       1.70584059 Ry

     iteration # 12     ecut=    30.00 Ry     beta=0.70
     Davidson diagonalization with overlap
     ethr =  1.00E-02,  avg # of iterations =  1.0

     negative rho (up, down):  3.910E-02 0.000E+00

     total cpu time spent up to now is        0.6 secs

     total energy              =     -31.58036136 Ry
     Harris-Foulkes estimate   =     -32.19570518 Ry
     estimated scf accuracy    <       1.60991630 Ry

     iteration # 13     ecut=    30.00 Ry     beta=0.70
     Davidson diagonalization with overlap
     ethr =  1.00E-02,  avg # of iterations =  1.0

     negative rho (up, down):  3.785E-02 0.000E+00

     total cpu time spent up to now is        0.7 secs

     total energy              =     -32.20178097 Ry
     Harris-Foulkes estimate   =     -32.27608335 Ry
     estimated scf accuracy    <       1.36032700 Ry

     iteration # 14     ecut=    30.00 Ry     beta=0.70
     Davidson diagonalization with overlap
     ethr =  1.00E-02,  avg # of iterations =  1.0

     negative rho (up, down):  4.633E-02 0.000E+00

     total cpu time spent up to now is        0.7 secs

     total energy              =     -32.15211111 Ry
     Harris-Foulkes estimate   =     -32.20343520 Ry
     estimated scf accuracy    <       1.25235879 Ry

     iteration # 15     ecut=    30.00 Ry     beta=0.70
     Davidson diagonalization with overlap
     ethr =  1.00E-02,  avg # of iterations =  1.0

     negative rho (up, down):  4.362E-02 0.000E+00

     total cpu time spent up to now is        0.7 secs

     total energy              =     -32.17287948 Ry
     Harris-Foulkes estimate   =     -32.15231540 Ry
     estimated scf accuracy    <       1.17821017 Ry

     iteration # 16     ecut=    30.00 Ry     beta=0.70
     Davidson diagonalization with overlap
     ethr =  1.00E-02,  avg # of iterations =  1.0

     negative rho (up, down):  2.888E-02 0.000E+00

     total cpu time spent up to now is        0.8 secs

     total energy              =     -32.35454723 Ry
     Harris-Foulkes estimate   =     -32.17289632 Ry
     estimated scf accuracy    <       1.20361695 Ry

     iteration # 17     ecut=    30.00 Ry     beta=0.70
     Davidson diagonalization with overlap
     ethr =  1.00E-02,  avg # of iterations =  1.0

     negative rho (up, down):  2.996E-02 0.000E+00

     total cpu time spent up to now is        0.8 secs

     total energy              =     -32.45974312 Ry
     Harris-Foulkes estimate   =     -32.36436250 Ry
     estimated scf accuracy    <       1.47656602 Ry

     iteration # 18     ecut=    30.00 Ry     beta=0.70
     Davidson diagonalization with overlap
     ethr =  1.00E-02,  avg # of iterations =  1.0

     negative rho (up, down):  2.465E-03 0.000E+00

     total cpu time spent up to now is        0.8 secs

     total energy              =     -31.94047674 Ry
     Harris-Foulkes estimate   =     -32.46010899 Ry
     estimated scf accuracy    <       1.61480278 Ry

     iteration # 19     ecut=    30.00 Ry     beta=0.70
     Davidson diagonalization with overlap
     ethr =  1.00E-02,  avg # of iterations =  1.0

     negative rho (up, down):  3.670E-03 0.000E+00

     total cpu time spent up to now is        0.9 secs

     total energy              =     -31.90106229 Ry
     Harris-Foulkes estimate   =     -31.94750626 Ry
     estimated scf accuracy    <       0.14789533 Ry

     iteration # 20     ecut=    30.00 Ry     beta=0.70
     Davidson diagonalization with overlap
     ethr =  1.85E-03,  avg # of iterations =  1.0

     negative rho (up, down):  2.350E-03 0.000E+00

     total cpu time spent up to now is        0.9 secs

     total energy              =     -31.89839311 Ry
     Harris-Foulkes estimate   =     -32.07761114 Ry
     estimated scf accuracy    <       1.35528987 Ry

     iteration # 21     ecut=    30.00 Ry     beta=0.70
     Davidson diagonalization with overlap
     ethr =  1.85E-03,  avg # of iterations =  1.0

     negative rho (up, down):  6.177E-04 0.000E+00

     total cpu time spent up to now is        0.9 secs

     total energy              =     -31.88010825 Ry
     Harris-Foulkes estimate   =     -31.96228389 Ry
     estimated scf accuracy    <       0.73478285 Ry

     iteration # 22     ecut=    30.00 Ry     beta=0.70
     Davidson diagonalization with overlap
     ethr =  1.85E-03,  avg # of iterations =  1.0

     negative rho (up, down):  8.689E-05 0.000E+00

     total cpu time spent up to now is        1.0 secs

     total energy              =     -31.89910253 Ry
     Harris-Foulkes estimate   =     -32.00892694 Ry
     estimated scf accuracy    <       1.30141173 Ry

     iteration # 23     ecut=    30.00 Ry     beta=0.70
     Davidson diagonalization with overlap
     ethr =  1.85E-03,  avg # of iterations =  1.0

     negative rho (up, down):  4.036E-06 0.000E+00

     total cpu time spent up to now is        1.0 secs

     total energy              =     -31.92443508 Ry
     Harris-Foulkes estimate   =     -31.96099663 Ry
     estimated scf accuracy    <       0.69284001 Ry

     iteration # 24     ecut=    30.00 Ry     beta=0.70
     Davidson diagonalization with overlap
     ethr =  1.85E-03,  avg # of iterations =  1.0

     negative rho (up, down):  2.542E-06 0.000E+00

     total cpu time spent up to now is        1.0 secs

     total energy              =     -31.92657650 Ry
     Harris-Foulkes estimate   =     -31.94974051 Ry
     estimated scf accuracy    <       0.29898993 Ry

     iteration # 25     ecut=    30.00 Ry     beta=0.70
     Davidson diagonalization with overlap
     ethr =  1.85E-03,  avg # of iterations =  1.0

     negative rho (up, down):  2.517E-06 0.000E+00

     total cpu time spent up to now is        1.1 secs

     total energy              =     -31.92083993 Ry
     Harris-Foulkes estimate   =     -31.95994723 Ry
     estimated scf accuracy    <       0.66426772 Ry

     iteration # 26     ecut=    30.00 Ry     beta=0.70
     Davidson diagonalization with overlap
     ethr =  1.85E-03,  avg # of iterations =  1.0

     negative rho (up, down):  3.625E-07 0.000E+00

     total cpu time spent up to now is        1.1 secs

     total energy              =     -31.94315735 Ry
     Harris-Foulkes estimate   =     -31.95332000 Ry
     estimated scf accuracy    <       0.57300620 Ry

     iteration # 27     ecut=    30.00 Ry     beta=0.70
     Davidson diagonalization with overlap
     ethr =  1.85E-03,  avg # of iterations =  1.0

     negative rho (up, down):  1.887E-07 0.000E+00

     total cpu time spent up to now is        1.1 secs

     total energy              =     -31.94799017 Ry
     Harris-Foulkes estimate   =     -31.94662486 Ry
     estimated scf accuracy    <       0.05186894 Ry

     iteration # 28     ecut=    30.00 Ry     beta=0.70
     Davidson diagonalization with overlap
     ethr =  6.48E-04,  avg # of iterations =  1.0

     negative rho (up, down):  3.341E-08 0.000E+00

     total cpu time spent up to now is        1.2 secs

     total energy              =     -31.94146004 Ry
     Harris-Foulkes estimate   =     -31.94869260 Ry
     estimated scf accuracy    <       0.21821973 Ry

     iteration # 29     ecut=    30.00 Ry     beta=0.70
     Davidson diagonalization with overlap
     ethr =  6.48E-04,  avg # of iterations =  1.0

     negative rho (up, down):  1.409E-08 0.000E+00

     total cpu time spent up to now is        1.2 secs

     total energy              =     -31.94624756 Ry
     Harris-Foulkes estimate   =     -31.94627559 Ry
     estimated scf accuracy    <       0.02213630 Ry

     iteration # 30     ecut=    30.00 Ry     beta=0.70
     Davidson diagonalization with overlap
     ethr =  2.77E-04,  avg # of iterations =  1.0

     negative rho (up, down):  1.132E-08 0.000E+00

     total cpu time spent up to now is        1.2 secs

     total energy              =     -31.94625350 Ry
     Harris-Foulkes estimate   =     -31.94624908 Ry
     estimated scf accuracy    <       0.02028401 Ry

     iteration # 31     ecut=    30.00 Ry     beta=0.70
     Davidson diagonalization with overlap
     ethr =  2.54E-04,  avg # of iterations =  1.0

     total cpu time spent up to now is        1.2 secs

     total energy              =     -31.94626906 Ry
     Harris-Foulkes estimate   =     -31.94625370 Ry
     estimated scf accuracy    <       0.02066520 Ry

     iteration # 32     ecut=    30.00 Ry     beta=0.70
     Davidson diagonalization with overlap
     ethr =  2.54E-04,  avg # of iterations =  1.0

     total cpu time spent up to now is        1.3 secs

     total energy              =     -31.94577455 Ry
     Harris-Foulkes estimate   =     -31.94626930 Ry
     estimated scf accuracy    <       0.02181182 Ry

     iteration # 33     ecut=    30.00 Ry     beta=0.70
     Davidson diagonalization with overlap
     ethr =  2.54E-04,  avg # of iterations =  1.0

     total cpu time spent up to now is        1.3 secs

     total energy              =     -31.94597867 Ry
     Harris-Foulkes estimate   =     -31.94598266 Ry
     estimated scf accuracy    <       0.00044786 Ry

     iteration # 34     ecut=    30.00 Ry     beta=0.70
     Davidson diagonalization with overlap
     ethr =  5.60E-06,  avg # of iterations =  1.0

     total cpu time spent up to now is        1.3 secs

     total energy              =     -31.94597710 Ry
     Harris-Foulkes estimate   =     -31.94597940 Ry
     estimated scf accuracy    <       0.00019018 Ry

     iteration # 35     ecut=    30.00 Ry     beta=0.70
     Davidson diagonalization with overlap
     ethr =  2.38E-06,  avg # of iterations =  6.0

     total cpu time spent up to now is        1.4 secs

     total energy              =     -31.94597634 Ry
     Harris-Foulkes estimate   =     -31.94597760 Ry
     estimated scf accuracy    <       0.00005817 Ry

     iteration # 36     ecut=    30.00 Ry     beta=0.70
     Davidson diagonalization with overlap
     ethr =  7.27E-07,  avg # of iterations =  1.0

     total cpu time spent up to now is        1.4 secs

     total energy              =     -31.94597625 Ry
     Harris-Foulkes estimate   =     -31.94597658 Ry
     estimated scf accuracy    <       0.00001764 Ry

     iteration # 37     ecut=    30.00 Ry     beta=0.70
     Davidson diagonalization with overlap
     ethr =  2.21E-07,  avg # of iterations =  1.0

     total cpu time spent up to now is        1.4 secs

     total energy              =     -31.94597654 Ry
     Harris-Foulkes estimate   =     -31.94597663 Ry
     estimated scf accuracy    <       0.00000129 Ry

     iteration # 38     ecut=    30.00 Ry     beta=0.70
     Davidson diagonalization with overlap
     ethr =  1.62E-08,  avg # of iterations =  1.0

     total cpu time spent up to now is        1.5 secs

     total energy              =     -31.94597692 Ry
     Harris-Foulkes estimate   =     -31.94597661 Ry
     estimated scf accuracy    <       0.00000085 Ry

     iteration # 39     ecut=    30.00 Ry     beta=0.70
     Davidson diagonalization with overlap
     ethr =  1.06E-08,  avg # of iterations =  1.0

     total cpu time spent up to now is        1.5 secs

     total energy              =     -31.94597698 Ry
     Harris-Foulkes estimate   =     -31.94597694 Ry
     estimated scf accuracy    <       0.00000035 Ry

     iteration # 40     ecut=    30.00 Ry     beta=0.70
     Davidson diagonalization with overlap
     ethr =  4.43E-09,  avg # of iterations =  1.0

     total cpu time spent up to now is        1.6 secs

     total energy              =     -31.94597723 Ry
     Harris-Foulkes estimate   =     -31.94597699 Ry
     estimated scf accuracy    <       0.00000018 Ry

     iteration # 41     ecut=    30.00 Ry     beta=0.70
     Davidson diagonalization with overlap
     ethr =  2.25E-09,  avg # of iterations =  1.0

     total cpu time spent up to now is        1.6 secs

     total energy              =     -31.94597726 Ry
     Harris-Foulkes estimate   =     -31.94597723 Ry
     estimated scf accuracy    <       0.00000003 Ry

     iteration # 42     ecut=    30.00 Ry     beta=0.70
     Davidson diagonalization with overlap
     ethr =  3.64E-10,  avg # of iterations =  2.0

     total cpu time spent up to now is        1.6 secs

     End of self-consistent calculation

          k = 0.0000 0.0000 0.0000 ( 22119 PWs)   bands (ev):

   -24.8124 -10.6569  -7.0705  -7.0700  -6.9312  -0.7194   0.3030   0.8015

     the Fermi energy is    -6.9000 ev

!    total energy              =     -31.94597726 Ry
     Harris-Foulkes estimate   =     -31.94597726 Ry
     estimated scf accuracy    <          4.4E-11 Ry

     convergence has been achieved in  42 iterations

     Forces acting on atoms (Ry/au):

     atom    1 type  1   force =    -0.00603391   -0.00306150   -0.01278548
     atom    2 type  1   force =    -0.00037584    0.00020167    0.00031069
     atom    3 type  2   force =     0.00640975    0.00285982    0.01247479

     Total force =     0.020357     Total SCF correction =     0.000065

     Molecular Dynamics Calculation

     Starting temperature  =  1000.00 K

     temperature is controlled by Andersen thermostat
     Collision frequency = 1.0000/timestep
     mass H                =     1.01
     mass O                =    16.00
     Time step             =   100.00 a.u.,  4.8378 femto-seconds

     Entering Dynamics:    iteration =     1
                           time      =   0.0048 pico-seconds


     Andersen thermostat:    3 collisions

ATOMIC_POSITIONS (bohr)
H       10.166802205  16.159336410   6.622866071
H        5.343446171   8.030812218   4.383416618
O       11.171558048  16.604610060   8.305521255


     kinetic energy (Ekin) =     0.04821296 Ry
     temperature           =  2537.40532822 K 
     Ekin + Etot (const)   =   -31.89776430 Ry

     Linear momentum :   -0.0000000000    0.0000000000    0.0000000000

     Writing output data file pwscf.save
     Check: negative starting charge=   -0.349152
     NEW-OLD atomic charge density approx. for the potential
     Check: negative starting charge=   -0.348434

     negative rho (up, down):  9.562E-02 0.000E+00

     total cpu time spent up to now is        1.9 secs

     per-process dynamical memory:    20.4 Mb

     Self-consistent Calculation

     iteration #  1     ecut=    30.00 Ry     beta=0.70
     Davidson diagonalization with overlap
     c_bands:  1 eigenvalues not converged
     ethr =  1.00E-06,  avg # of iterations = 20.0

     negative rho (up, down):  2.510E-02 0.000E+00

     total cpu time spent up to now is        2.0 secs

     total energy              =     -29.39010507 Ry
     Harris-Foulkes estimate   =     -32.66044452 Ry
     estimated scf accuracy    <       1.76375299 Ry

     iteration #  2     ecut=    30.00 Ry     beta=0.70
     Davidson diagonalization with overlap
     ethr =  1.00E-02,  avg # of iterations =  3.0

     negative rho (up, down):  1.819E-02 0.000E+00

     total cpu time spent up to now is        2.0 secs

     total energy              =     -32.34504985 Ry
     Harris-Foulkes estimate   =     -34.24716215 Ry
     estimated scf accuracy    <       4.65606218 Ry

     iteration #  3     ecut=    30.00 Ry     beta=0.70
     Davidson diagonalization with overlap
     ethr =  1.00E-02,  avg # of iterations =  2.0

     negative rho (up, down):  1.439E-02 0.000E+00

     total cpu time spent up to now is        2.1 secs

     total energy              =     -32.13967456 Ry
     Harris-Foulkes estimate   =     -32.52101558 Ry
     estimated scf accuracy    <       1.64096047 Ry

     iteration #  4     ecut=    30.00 Ry     beta=0.70
     Davidson diagonalization with overlap
     ethr =  1.00E-02,  avg # of iterations =  1.0

     negative rho (up, down):  2.951E-03 0.000E+00

     total cpu time spent up to now is        2.1 secs

     total energy              =     -31.36201298 Ry
     Harris-Foulkes estimate   =     -32.13302650 Ry
     estimated scf accuracy    <       1.15974179 Ry

     iteration #  5     ecut=    30.00 Ry     beta=0.70
     Davidson diagonalization with overlap
     ethr =  1.00E-02,  avg # of iterations =  4.0

     negative rho (up, down):  6.504E-03 0.000E+00

     total cpu time spent up to now is        2.1 secs

     total energy              =     -31.94781304 Ry
     Harris-Foulkes estimate   =     -33.13488431 Ry
     estimated scf accuracy    <       3.40428581 Ry

     iteration #  6     ecut=    30.00 Ry     beta=0.70
     Davidson diagonalization with overlap
     ethr =  1.00E-02,  avg # of iterations =  2.0

     negative rho (up, down):  7.262E-03 0.000E+00

     total cpu time spent up to now is        2.2 secs

     total energy              =     -31.90770030 Ry
     Harris-Foulkes estimate   =     -32.02247858 Ry
     estimated scf accuracy    <       1.37361182 Ry

     iteration #  7     ecut=    30.00 Ry     beta=0.70
     Davidson diagonalization with overlap
     ethr =  1.00E-02,  avg # of iterations =  1.0

     negative rho (up, down):  3.492E-03 0.000E+00

     total cpu time spent up to now is        2.2 secs

     total energy              =     -31.90324338 Ry
     Harris-Foulkes estimate   =     -31.94709975 Ry
     estimated scf accuracy    <       0.32944373 Ry

     iteration #  8     ecut=    30.00 Ry     beta=0.70
     Davidson diagonalization with overlap
     ethr =  4.12E-03,  avg # of iterations =  1.0

     negative rho (up, down):  2.366E-03 0.000E+00

     total cpu time spent up to now is        2.2 secs

     total energy              =     -31.95762647 Ry
     Harris-Foulkes estimate   =     -31.99929770 Ry
     estimated scf accuracy    <       1.36588037 Ry

     iteration #  9     ecut=    30.00 Ry     beta=0.70
     Davidson diagonalization with overlap
     ethr =  4.12E-03,  avg # of iterations =  1.0

     negative rho (up, down):  1.098E-03 0.000E+00

     total cpu time spent up to now is        2.3 secs

     total energy              =     -31.96641309 Ry
     Harris-Foulkes estimate   =     -31.95619106 Ry
     estimated scf accuracy    <       0.94354777 Ry

     iteration # 10     ecut=    30.00 Ry     beta=0.70
     Davidson diagonalization with overlap
     ethr =  4.12E-03,  avg # of iterations =  1.0

     negative rho (up, down):  1.467E-06 0.000E+00

     total cpu time spent up to now is        2.3 secs

     total energy              =     -31.98971747 Ry
     Harris-Foulkes estimate   =     -31.96755630 Ry
     estimated scf accuracy    <       1.40842129 Ry

     iteration # 11     ecut=    30.00 Ry     beta=0.70
     Davidson diagonalization with overlap
     ethr =  4.12E-03,  avg # of iterations =  1.0

     negative rho (up, down):  1.022E-04 0.000E+00

     total cpu time spent up to now is        2.3 secs

     total energy              =     -31.91413891 Ry
     Harris-Foulkes estimate   =     -31.99090968 Ry
     estimated scf accuracy    <       1.51614113 Ry

     iteration # 12     ecut=    30.00 Ry     beta=0.70
     Davidson diagonalization with overlap
     ethr =  4.12E-03,  avg # of iterations =  1.0

     negative rho (up, down):  2.110E-05 0.000E+00

     total cpu time spent up to now is        2.4 secs

     total energy              =     -31.93504603 Ry
     Harris-Foulkes estimate   =     -31.94835867 Ry
     estimated scf accuracy    <       0.15513828 Ry

     iteration # 13     ecut=    30.00 Ry     beta=0.70
     Davidson diagonalization with overlap
     ethr =  1.94E-03,  avg # of iterations =  1.0

     negative rho (up, down):  2.958E-04 0.000E+00

     total cpu time spent up to now is        2.4 secs

     total energy              =     -31.85988753 Ry
     Harris-Foulkes estimate   =     -31.95761202 Ry
     estimated scf accuracy    <       0.85227470 Ry

     iteration # 14     ecut=    30.00 Ry     beta=0.70
     Davidson diagonalization with overlap
     ethr =  1.94E-03,  avg # of iterations =  1.0

     negative rho (up, down):  8.725E-06 0.000E+00

     total cpu time spent up to now is        2.4 secs

     total energy              =     -32.03775877 Ry
     Harris-Foulkes estimate   =     -32.01329784 Ry
     estimated scf accuracy    <       0.99047235 Ry

     iteration # 15     ecut=    30.00 Ry     beta=0.70
     Davidson diagonalization with overlap
     ethr =  1.94E-03,  avg # of iterations =  1.0

     negative rho (up, down):  6.260E-07 0.000E+00

     total cpu time spent up to now is        2.5 secs

     total energy              =     -32.04027564 Ry
     Harris-Foulkes estimate   =     -32.03778926 Ry
     estimated scf accuracy    <       1.02268835 Ry

     iteration # 16     ecut=    30.00 Ry     beta=0.70
     Davidson diagonalization with overlap
     ethr =  1.94E-03,  avg # of iterations =  1.0

     total cpu time spent up to now is        2.5 secs

     total energy              =     -32.06053156 Ry
     Harris-Foulkes estimate   =     -32.04027815 Ry
     estimated scf accuracy    <       1.02672227 Ry

     iteration # 17     ecut=    30.00 Ry     beta=0.70
     Davidson diagonalization with overlap
     ethr =  1.94E-03,  avg # of iterations =  1.0

     negative rho (up, down):  1.490E-08 0.000E+00

     total cpu time spent up to now is        2.5 secs

     total energy              =     -32.03099432 Ry
     Harris-Foulkes estimate   =     -32.06053919 Ry
     estimated scf accuracy    <       1.05393942 Ry

     iteration # 18     ecut=    30.00 Ry     beta=0.70
     Davidson diagonalization with overlap
     ethr =  1.94E-03,  avg # of iterations =  1.0

     negative rho (up, down):  5.131E-08 0.000E+00

     total cpu time spent up to now is        2.6 secs

     total energy              =     -32.00582039 Ry
     Harris-Foulkes estimate   =     -32.03102350 Ry
     estimated scf accuracy    <       1.01272439 Ry

     iteration # 19     ecut=    30.00 Ry     beta=0.70
     Davidson diagonalization with overlap
     ethr =  1.94E-03,  avg # of iterations =  1.0

     total cpu time spent up to now is        2.6 secs

     total energy              =     -31.94813947 Ry
     Harris-Foulkes estimate   =     -32.00586033 Ry
     estimated scf accuracy    <       0.97408431 Ry

     iteration # 20     ecut=    30.00 Ry     beta=0.70
     Davidson diagonalization with overlap
     ethr =  1.94E-03,  avg # of iterations =  1.0

     total cpu time spent up to now is        2.6 secs

     total energy              =     -31.96934547 Ry
     Harris-Foulkes estimate   =     -31.95199507 Ry
     estimated scf accuracy    <       0.35708698 Ry

     iteration # 21     ecut=    30.00 Ry     beta=0.70
     Davidson diagonalization with overlap
     ethr =  1.94E-03,  avg # of iterations =  1.0

     negative rho (up, down):  3.055E-08 0.000E+00

     total cpu time spent up to now is        2.7 secs

     total energy              =     -31.87891182 Ry
     Harris-Foulkes estimate   =     -31.97564273 Ry
     estimated scf accuracy    <       0.89998169 Ry

     iteration # 22     ecut=    30.00 Ry     beta=0.70
     Davidson diagonalization with overlap
     ethr =  1.94E-03,  avg # of iterations =  1.0

     total cpu time spent up to now is        2.7 secs

     total energy              =     -32.00051094 Ry
     Harris-Foulkes estimate   =     -31.99880768 Ry
     estimated scf accuracy    <       1.40450379 Ry

     iteration # 23     ecut=    30.00 Ry     beta=0.70
     Davidson diagonalization with overlap
     ethr =  1.94E-03,  avg # of iterations =  1.0

     total cpu time spent up to now is        2.7 secs

     total energy              =     -31.96651286 Ry
     Harris-Foulkes estimate   =     -32.00054697 Ry
     estimated scf accuracy    <       1.38572958 Ry

     iteration # 24     ecut=    30.00 Ry     beta=0.70
     Davidson diagonalization with overlap
     ethr =  1.94E-03,  avg # of iterations =  1.0

     total cpu time spent up to now is        2.8 secs

     total energy              =     -31.93354637 Ry
     Harris-Foulkes estimate   =     -31.96486371 Ry
     estimated scf accuracy    <       1.25891181 Ry

     iteration # 25     ecut=    30.00 Ry     beta=0.70
     Davidson diagonalization with overlap
     ethr =  1.94E-03,  avg # of iterations =  1.0

     total cpu time spent up to now is        2.8 secs

     total energy              =     -31.94368849 Ry
     Harris-Foulkes estimate   =     -31.94628283 Ry
     estimated scf accuracy    <       0.01453774 Ry

     iteration # 26     ecut=    30.00 Ry     beta=0.70
     Davidson diagonalization with overlap
     ethr =  1.82E-04,  avg # of iterations =  1.0

     total cpu time spent up to now is        2.8 secs

     total energy              =     -31.93101728 Ry
     Harris-Foulkes estimate   =     -31.95296771 Ry
     estimated scf accuracy    <       0.40368436 Ry

     iteration # 27     ecut=    30.00 Ry     beta=0.70
     Davidson diagonalization with overlap
     ethr =  1.82E-04,  avg # of iterations =  1.0

     total cpu time spent up to now is        2.9 secs

     total energy              =     -31.94292457 Ry
     Harris-Foulkes estimate   =     -31.95070728 Ry
     estimated scf accuracy    <       0.36709803 Ry

     iteration # 28     ecut=    30.00 Ry     beta=0.70
     Davidson diagonalization with overlap
     ethr =  1.82E-04,  avg # of iterations =  1.0

     total cpu time spent up to now is        2.9 secs

     total energy              =     -31.94504485 Ry
     Harris-Foulkes estimate   =     -31.94620364 Ry
     estimated scf accuracy    <       0.00807862 Ry

     iteration # 29     ecut=    30.00 Ry     beta=0.70
     Davidson diagonalization with overlap
     ethr =  1.01E-04,  avg # of iterations =  1.0

     total cpu time spent up to now is        2.9 secs

     total energy              =     -31.94601287 Ry
     Harris-Foulkes estimate   =     -31.94842876 Ry
     estimated scf accuracy    <       0.15850816 Ry

     iteration # 30     ecut=    30.00 Ry     beta=0.70
     Davidson diagonalization with overlap
     ethr =  1.01E-04,  avg # of iterations =  1.0

     total cpu time spent up to now is        3.0 secs

     total energy              =     -31.94499413 Ry
     Harris-Foulkes estimate   =     -31.94661010 Ry
     estimated scf accuracy    <       0.03753792 Ry

     iteration # 31     ecut=    30.00 Ry     beta=0.70
     Davidson diagonalization with overlap
     ethr =  1.01E-04,  avg # of iterations =  1.0

     total cpu time spent up to now is        3.0 secs

     total energy              =     -31.94588848 Ry
     Harris-Foulkes estimate   =     -31.94631284 Ry
     estimated scf accuracy    <       0.01655592 Ry

     iteration # 32     ecut=    30.00 Ry     beta=0.70
     Davidson diagonalization with overlap
     ethr =  1.01E-04,  avg # of iterations =  1.0

     total cpu time spent up to now is        3.1 secs

     total energy              =     -31.94610401 Ry
     Harris-Foulkes estimate   =     -31.94610412 Ry
     estimated scf accuracy    <       0.00000425 Ry

     iteration # 33     ecut=    30.00 Ry     beta=0.70
     Davidson diagonalization with overlap
     ethr =  5.31E-08,  avg # of iterations = 11.0

     total cpu time spent up to now is        3.1 secs

     total energy              =     -31.94608993 Ry
     Harris-Foulkes estimate   =     -31.94611391 Ry
     estimated scf accuracy    <       0.00087659 Ry

     iteration # 34     ecut=    30.00 Ry     beta=0.70
     Davidson diagonalization with overlap
     ethr =  5.31E-08,  avg # of iterations =  2.0

     total cpu time spent up to now is        3.2 secs

     total energy              =     -31.94610260 Ry
     Harris-Foulkes estimate   =     -31.94610314 Ry
     estimated scf accuracy    <       0.00000650 Ry

     iteration # 35     ecut=    30.00 Ry     beta=0.70
     Davidson diagonalization with overlap
     ethr =  5.31E-08,  avg # of iterations =  1.0

     total cpu time spent up to now is        3.2 secs

     total energy              =     -31.94610340 Ry
     Harris-Foulkes estimate   =     -31.94610313 Ry
     estimated scf accuracy    <       0.00001581 Ry

     iteration # 36     ecut=    30.00 Ry     beta=0.70
     Davidson diagonalization with overlap
     ethr =  5.31E-08,  avg # of iterations =  1.0

     total cpu time spent up to now is        3.2 secs

     total energy              =     -31.94610729 Ry
     Harris-Foulkes estimate   =     -31.94610356 Ry
     estimated scf accuracy    <       0.00005707 Ry

     iteration # 37     ecut=    30.00 Ry     beta=0.70
     Davidson diagonalization with overlap
     ethr =  5.31E-08,  avg # of iterations =  1.0

     total cpu time spent up to now is        3.3 secs

     total energy              =     -31.94611520 Ry
     Harris-Foulkes estimate   =     -31.94611362 Ry
     estimated scf accuracy    <       0.00088483 Ry

     iteration # 38     ecut=    30.00 Ry     beta=0.70
     Davidson diagonalization with overlap
     ethr =  5.31E-08,  avg # of iterations =  1.0

     total cpu time spent up to now is        3.3 secs

     total energy              =     -31.94608709 Ry
     Harris-Foulkes estimate   =     -31.94611528 Ry
     estimated scf accuracy    <       0.00103244 Ry

     iteration # 39     ecut=    30.00 Ry     beta=0.70
     Davidson diagonalization with overlap
     ethr =  5.31E-08,  avg # of iterations =  2.0

     total cpu time spent up to now is        3.3 secs

     total energy              =     -31.94610259 Ry
     Harris-Foulkes estimate   =     -31.94610310 Ry
     estimated scf accuracy    <       0.00001079 Ry

     iteration # 40     ecut=    30.00 Ry     beta=0.70
     Davidson diagonalization with overlap
     ethr =  5.31E-08,  avg # of iterations =  1.0

     total cpu time spent up to now is        3.4 secs

     total energy              =     -31.94610269 Ry
     Harris-Foulkes estimate   =     -31.94610277 Ry
     estimated scf accuracy    <       0.00000006 Ry

     iteration # 41     ecut=    30.00 Ry     beta=0.70
     Davidson diagonalization with overlap
     ethr =  7.31E-10,  avg # of iterations =  2.0

     total cpu time spent up to now is        3.4 secs

     End of self-consistent calculation

          k = 0.0000 0.0000 0.0000 ( 22119 PWs)   bands (ev):

   -24.7633 -10.6286  -7.0648  -7.0643  -6.9257  -0.7419   0.3050   0.7841

     the Fermi energy is    -6.8943 ev

!    total energy              =     -31.94610254 Ry
     Harris-Foulkes estimate   =     -31.94610270 Ry
     estimated scf accuracy    <          4.5E-09 Ry

     convergence has been achieved in  41 iterations

     Forces acting on atoms (Ry/au):

     atom    1 type  1   force =     0.00095227    0.00158768    0.00359895
     atom    2 type  1   force =    -0.00048945    0.00052671    0.00054307
     atom    3 type  2   force =    -0.00046283   -0.00211439   -0.00414202

     Total force =     0.006248     Total SCF correction =     0.000152

     Entering Dynamics:    iteration =     2
                           time      =   0.0097 pico-seconds


     Andersen thermostat:    3 collisions

ATOMIC_POSITIONS (bohr)
H       10.628751836  16.140416424   6.572491081
H        5.069890811   7.883184152   4.133799343
O       11.159665659  16.615123406   8.324458266


     kinetic energy (Ekin) =     0.01882187 Ry
     temperature           =   990.57848123 K 
     Ekin + Etot (const)   =   -31.92728066 Ry
     Message from routine dynamics:
     Total linear momentum <> 0

     Linear momentum :    0.0774215269    0.2104371268   -0.2016624939

     Writing output data file pwscf.save

     first order wave-functions extrapolation
     Check: negative starting charge=   -0.348434
     first order charge density extrapolation
     Check: negative starting charge=   -0.348157

     negative rho (up, down):  1.050E-01 0.000E+00

     total cpu time spent up to now is        3.7 secs

     per-process dynamical memory:    20.4 Mb

     Self-consistent Calculation

     iteration #  1     ecut=    30.00 Ry     beta=0.70
     Davidson diagonalization with overlap
     c_bands:  1 eigenvalues not converged
     ethr =  1.00E-06,  avg # of iterations = 20.0

     negative rho (up, down):  2.602E-02 0.000E+00

     total cpu time spent up to now is        3.8 secs

     total energy              =     -28.35390772 Ry
     Harris-Foulkes estimate   =     -33.36958843 Ry
     estimated scf accuracy    <       2.40580670 Ry

     iteration #  2     ecut=    30.00 Ry     beta=0.70
     Davidson diagonalization with overlap
     ethr =  1.00E-02,  avg # of iterations =  4.0

     negative rho (up, down):  1.831E-02 0.000E+00

     total cpu time spent up to now is        3.8 secs

     total energy              =     -32.45413576 Ry
     Harris-Foulkes estimate   =     -34.63222870 Ry
     estimated scf accuracy    <       5.01958165 Ry

     iteration #  3     ecut=    30.00 Ry     beta=0.70
     Davidson diagonalization with overlap
     ethr =  1.00E-02,  avg # of iterations =  2.0

     negative rho (up, down):  1.374E-02 0.000E+00

     total cpu time spent up to now is        3.9 secs

     total energy              =     -32.16400308 Ry
     Harris-Foulkes estimate   =     -32.63833055 Ry
     estimated scf accuracy    <       1.75842302 Ry

     iteration #  4     ecut=    30.00 Ry     beta=0.70
     Davidson diagonalization with overlap
     ethr =  1.00E-02,  avg # of iterations =  1.0

     negative rho (up, down):  2.530E-03 0.000E+00

     total cpu time spent up to now is        3.9 secs

     total energy              =     -31.35707210 Ry
     Harris-Foulkes estimate   =     -32.15752937 Ry
     estimated scf accuracy    <       1.17795675 Ry

     iteration #  5     ecut=    30.00 Ry     beta=0.70
     Davidson diagonalization with overlap
     ethr =  1.00E-02,  avg # of iterations =  4.0

     negative rho (up, down):  2.456E-03 0.000E+00

     total cpu time spent up to now is        3.9 secs

     total energy              =     -32.00248744 Ry
     Harris-Foulkes estimate   =     -33.19253647 Ry
     estimated scf accuracy    <       3.82021267 Ry

     iteration #  6     ecut=    30.00 Ry     beta=0.70
     Davidson diagonalization with overlap
     ethr =  1.00E-02,  avg # of iterations =  2.0

     negative rho (up, down):  4.536E-03 0.000E+00

     total cpu time spent up to now is        4.0 secs

     total energy              =     -32.01697503 Ry
     Harris-Foulkes estimate   =     -32.12034449 Ry
     estimated scf accuracy    <       1.53908399 Ry

     iteration #  7     ecut=    30.00 Ry     beta=0.70
     Davidson diagonalization with overlap
     ethr =  1.00E-02,  avg # of iterations =  1.0

     negative rho (up, down):  2.916E-03 0.000E+00

     total cpu time spent up to now is        4.0 secs

     total energy              =     -32.21201391 Ry
     Harris-Foulkes estimate   =     -32.02050732 Ry
     estimated scf accuracy    <       1.34834837 Ry

     iteration #  8     ecut=    30.00 Ry     beta=0.70
     Davidson diagonalization with overlap
     ethr =  1.00E-02,  avg # of iterations =  1.0

     negative rho (up, down):  3.515E-03 0.000E+00

     total cpu time spent up to now is        4.1 secs

     total energy              =     -32.20545242 Ry
     Harris-Foulkes estimate   =     -32.21501677 Ry
     estimated scf accuracy    <       1.64403650 Ry

     iteration #  9     ecut=    30.00 Ry     beta=0.70
     Davidson diagonalization with overlap
     ethr =  1.00E-02,  avg # of iterations =  1.0

     negative rho (up, down):  2.337E-03 0.000E+00

     total cpu time spent up to now is        4.1 secs

     total energy              =     -32.22394143 Ry
     Harris-Foulkes estimate   =     -32.20564405 Ry
     estimated scf accuracy    <       1.64002436 Ry

     iteration # 10     ecut=    30.00 Ry     beta=0.70
     Davidson diagonalization with overlap
     ethr =  1.00E-02,  avg # of iterations =  1.0

     negative rho (up, down):  8.028E-01 0.000E+00

     total cpu time spent up to now is        4.1 secs

     total energy              =     -36.43721014 Ry
     Harris-Foulkes estimate   =     -32.22412853 Ry
     estimated scf accuracy    <       1.66835594 Ry

     iteration # 11     ecut=    30.00 Ry     beta=0.70
     Davidson diagonalization with overlap
     ethr =  1.00E-02,  avg # of iterations =  5.0

     negative rho (up, down):  2.049E+00 0.000E+00

     total cpu time spent up to now is        4.2 secs

     total energy              =     -23.58805359 Ry
     Harris-Foulkes estimate   =     -41.37502804 Ry
     estimated scf accuracy    <      35.16468566 Ry

     iteration # 12     ecut=    30.00 Ry     beta=0.70
     Davidson diagonalization with overlap
     ethr =  1.00E-02,  avg # of iterations =  5.0

     negative rho (up, down):  2.239E+00 0.000E+00

     total cpu time spent up to now is        4.2 secs

     total energy              =     -55.62068879 Ry
     Harris-Foulkes estimate   =     -73.20772084 Ry
     estimated scf accuracy    <      95.02215596 Ry

     iteration # 13     ecut=    30.00 Ry     beta=0.70
     Davidson diagonalization with overlap
     ethr =  1.00E-02,  avg # of iterations =  5.0

     negative rho (up, down):  2.594E-02 0.000E+00

     total cpu time spent up to now is        4.3 secs

     total energy              =     -20.67861237 Ry
     Harris-Foulkes estimate   =     -94.50873479 Ry
     estimated scf accuracy    <     105.88890782 Ry

     iteration # 14     ecut=    30.00 Ry     beta=0.70
     Davidson diagonalization with overlap
     ethr =  1.00E-02,  avg # of iterations = 10.0

     negative rho (up, down):  2.563E-02 0.000E+00

     total cpu time spent up to now is        4.3 secs

     total energy              =      24.03735518 Ry
     Harris-Foulkes estimate   =     -73.31478330 Ry
     estimated scf accuracy    <      34.87510871 Ry

     iteration # 15     ecut=    30.00 Ry     beta=0.70
     Davidson diagonalization with overlap
     ethr =  1.00E-02,  avg # of iterations =  5.0

     negative rho (up, down):  8.414E-02 0.000E+00

     total cpu time spent up to now is        4.4 secs

     total energy              =     -31.74206893 Ry
     Harris-Foulkes estimate   =     -33.12342596 Ry
     estimated scf accuracy    <       2.66683530 Ry

     iteration # 16     ecut=    30.00 Ry     beta=0.70
     Davidson diagonalization with overlap
     ethr =  1.00E-02,  avg # of iterations =  8.0

     negative rho (up, down):  7.050E-03 0.000E+00

     total cpu time spent up to now is        4.4 secs

     total energy              =       8.50695363 Ry
     Harris-Foulkes estimate   =     -78.60672873 Ry
     estimated scf accuracy    <      39.35930999 Ry

     iteration # 17     ecut=    30.00 Ry     beta=0.70
     Davidson diagonalization with overlap
     ethr =  1.00E-02,  avg # of iterations =  5.0

     negative rho (up, down):  7.225E-03 0.000E+00

     total cpu time spent up to now is        4.5 secs

     total energy              =     -22.82775863 Ry
     Harris-Foulkes estimate   =     -38.90966574 Ry
     estimated scf accuracy    <      17.40069610 Ry

     iteration # 18     ecut=    30.00 Ry     beta=0.70
     Davidson diagonalization with overlap
     ethr =  1.00E-02,  avg # of iterations =  4.0

     negative rho (up, down):  7.628E-03 0.000E+00

     total cpu time spent up to now is        4.5 secs

     total energy              =     -31.93626646 Ry
     Harris-Foulkes estimate   =     -33.82157545 Ry
     estimated scf accuracy    <       2.28976426 Ry

     iteration # 19     ecut=    30.00 Ry     beta=0.70
     Davidson diagonalization with overlap
     ethr =  1.00E-02,  avg # of iterations =  3.0

     negative rho (up, down):  6.337E-02 0.000E+00

     total cpu time spent up to now is        4.6 secs

     total energy              =     -42.81616569 Ry
     Harris-Foulkes estimate   =     -32.72882300 Ry
     estimated scf accuracy    <       1.29550395 Ry

     iteration # 20     ecut=    30.00 Ry     beta=0.70
     Davidson diagonalization with overlap
     ethr =  1.00E-02,  avg # of iterations =  8.0

     negative rho (up, down):  6.340E-02 0.000E+00

     total cpu time spent up to now is        4.6 secs

     total energy              =    -191.92912330 Ry
     Harris-Foulkes estimate   =    -188.13056222 Ry
     estimated scf accuracy    <      67.88829662 Ry

     iteration # 21     ecut=    30.00 Ry     beta=0.70
     Davidson diagonalization with overlap
     ethr =  1.00E-02,  avg # of iterations =  5.0

     negative rho (up, down):  6.337E-02 0.000E+00

     total cpu time spent up to now is        4.7 secs

     total energy              =      51.94788306 Ry
     Harris-Foulkes estimate   =    -581.91328200 Ry
     estimated scf accuracy    <      68.29435425 Ry

     iteration # 22     ecut=    30.00 Ry     beta=0.70
     Davidson diagonalization with overlap
     ethr =  1.00E-02,  avg # of iterations = 10.0

     negative rho (up, down):  6.879E-02 0.000E+00

     total cpu time spent up to now is        4.7 secs

     total energy              =     -16.97731627 Ry
     Harris-Foulkes estimate   =    -128.70032500 Ry
     estimated scf accuracy    <      34.91503109 Ry

     iteration # 23     ecut=    30.00 Ry     beta=0.70
     Davidson diagonalization with overlap
     ethr =  1.00E-02,  avg # of iterations =  5.0

     negative rho (up, down):  6.370E-02 0.000E+00

     total cpu time spent up to now is        4.8 secs

     total energy              =      13.68206106 Ry
     Harris-Foulkes estimate   =    -517.26281519 Ry
     estimated scf accuracy    <      39.76034124 Ry

     iteration # 24     ecut=    30.00 Ry     beta=0.70
     Davidson diagonalization with overlap
     ethr =  1.00E-02,  avg # of iterations =  6.0

     negative rho (up, down):  1.832E-01 0.000E+00

     total cpu time spent up to now is        4.8 secs

     total energy              =    -176.28631267 Ry
     Harris-Foulkes estimate   =     -63.60753341 Ry
     estimated scf accuracy    <      35.23918182 Ry

     iteration # 25     ecut=    30.00 Ry     beta=0.70
     Davidson diagonalization with overlap
     ethr =  1.00E-02,  avg # of iterations =  5.0

     negative rho (up, down):  1.549E-01 0.000E+00

     total cpu time spent up to now is        4.9 secs

     total energy              =      68.16659035 Ry
     Harris-Foulkes estimate   =    -459.99723412 Ry
     estimated scf accuracy    <      75.03016593 Ry

     iteration # 26     ecut=    30.00 Ry     beta=0.70
     Davidson diagonalization with overlap
     ethr =  1.00E-02,  avg # of iterations =  6.0

     negative rho (up, down):  1.796E-01 0.000E+00

     total cpu time spent up to now is        4.9 secs

     total energy              =     -35.38038375 Ry
     Harris-Foulkes estimate   =     -70.19939664 Ry
     estimated scf accuracy    <      63.28079356 Ry

     iteration # 27     ecut=    30.00 Ry     beta=0.70
     Davidson diagonalization with overlap
     ethr =  1.00E-02,  avg # of iterations =  7.0

     negative rho (up, down):  1.894E-01 0.000E+00

     total cpu time spent up to now is        5.0 secs

     total energy              =    -190.71430028 Ry
     Harris-Foulkes estimate   =    -489.53458626 Ry
     estimated scf accuracy    <      66.64065813 Ry

     iteration # 28     ecut=    30.00 Ry     beta=0.70
     Davidson diagonalization with overlap
     ethr =  1.00E-02,  avg # of iterations =  6.0

     negative rho (up, down):  2.374E+00 0.000E+00

     total cpu time spent up to now is        5.0 secs

     total energy              =    -196.02153769 Ry
     Harris-Foulkes estimate   =   -1294.46332408 Ry
     estimated scf accuracy    <      71.73359549 Ry

     iteration # 29     ecut=    30.00 Ry     beta=0.70
     Davidson diagonalization with overlap
     ethr =  1.00E-02,  avg # of iterations =  7.0

     negative rho (up, down):  3.030E+00 0.000E+00

     total cpu time spent up to now is        5.1 secs

     total energy              =    -277.11400656 Ry
     Harris-Foulkes estimate   =    -976.01701269 Ry
     estimated scf accuracy    <      58.29393648 Ry

     iteration # 30     ecut=    30.00 Ry     beta=0.70
     Davidson diagonalization with overlap
     ethr =  1.00E-02,  avg # of iterations = 10.0

     negative rho (up, down):  3.457E+00 0.000E+00

     total cpu time spent up to now is        5.1 secs

     total energy              =    -246.20626120 Ry
     Harris-Foulkes estimate   =   -7316.66849567 Ry
     estimated scf accuracy    <      64.83661281 Ry

     iteration # 31     ecut=    30.00 Ry     beta=0.70
     Davidson diagonalization with overlap
     ethr =  1.00E-02,  avg # of iterations =  8.0

     negative rho (up, down):  3.769E+00 0.000E+00

     total cpu time spent up to now is        5.2 secs

     total energy              =    -388.44734613 Ry
     Harris-Foulkes estimate   =   -2643.50391442 Ry
     estimated scf accuracy    <      50.89199629 Ry

     iteration # 32     ecut=    30.00 Ry     beta=0.70
     Davidson diagonalization with overlap
     ethr =  1.00E-02,  avg # of iterations =  8.0

     negative rho (up, down):  3.045E+00 0.000E+00

     total cpu time spent up to now is        5.3 secs

     total energy              =      46.46988621 Ry
     Harris-Foulkes estimate   =   -6927.37037705 Ry
     estimated scf accuracy    <      41.37371717 Ry

     iteration # 33     ecut=    30.00 Ry     beta=0.70
     Davidson diagonalization with overlap
     ethr =  1.00E-02,  avg # of iterations =  8.0

     negative rho (up, down):  1.179E+00 0.000E+00

     total cpu time spent up to now is        5.3 secs

     total energy              =    -300.75099458 Ry
     Harris-Foulkes estimate   =    -607.19355798 Ry
     estimated scf accuracy    <      35.48157940 Ry

     iteration # 34     ecut=    30.00 Ry     beta=0.70
     Davidson diagonalization with overlap
     ethr =  1.00E-02,  avg # of iterations =  5.0

     negative rho (up, down):  1.384E+00 0.000E+00

     total cpu time spent up to now is        5.4 secs

     total energy              =    -670.85745605 Ry
     Harris-Foulkes estimate   =  -15969.08221879 Ry
     estimated scf accuracy    <      32.69880439 Ry

     iteration # 35     ecut=    30.00 Ry     beta=0.70
     Davidson diagonalization with overlap
     ethr =  1.00E-02,  avg # of iterations =  7.0

     negative rho (up, down):  1.037E+00 0.000E+00

     total cpu time spent up to now is        5.4 secs

     total energy              =     -47.96284880 Ry
     Harris-Foulkes estimate   =   -6669.39307998 Ry
     estimated scf accuracy    <      25.26852458 Ry

     iteration # 36     ecut=    30.00 Ry     beta=0.70
     Davidson diagonalization with overlap
     ethr =  1.00E-02,  avg # of iterations = 11.0

     negative rho (up, down):  8.267E-01 0.000E+00

     total cpu time spent up to now is        5.5 secs

     total energy              =     130.42257716 Ry
     Harris-Foulkes estimate   =   -1922.12475785 Ry
     estimated scf accuracy    <      15.54664559 Ry

     iteration # 37     ecut=    30.00 Ry     beta=0.70
     Davidson diagonalization with overlap
     ethr =  1.00E-02,  avg # of iterations =  9.0

     negative rho (up, down):  5.516E-01 0.000E+00

     total cpu time spent up to now is        5.6 secs

     total energy              =      -2.20659112 Ry
     Harris-Foulkes estimate   =    -435.03385503 Ry
     estimated scf accuracy    <      25.73365448 Ry

     iteration # 38     ecut=    30.00 Ry     beta=0.70
     Davidson diagonalization with overlap
     ethr =  1.00E-02,  avg # of iterations =  6.0

     negative rho (up, down):  4.573E-01 0.000E+00

     total cpu time spent up to now is        5.6 secs

     total energy              =     118.55696927 Ry
     Harris-Foulkes estimate   =   -2309.95355627 Ry
     estimated scf accuracy    <      18.12044326 Ry

     iteration # 39     ecut=    30.00 Ry     beta=0.70
     Davidson diagonalization with overlap
     ethr =  1.00E-02,  avg # of iterations = 10.0

     negative rho (up, down):  9.270E-02 0.000E+00

     total cpu time spent up to now is        5.7 secs

     total energy              =   -1971.01431959 Ry
     Harris-Foulkes estimate   =    -150.76985580 Ry
     estimated scf accuracy    <      43.50347141 Ry

     iteration # 40     ecut=    30.00 Ry     beta=0.70
     Davidson diagonalization with overlap
     ethr =  1.00E-02,  avg # of iterations =  6.0

     negative rho (up, down):  4.980E-02 0.000E+00

     total cpu time spent up to now is        5.8 secs

     total energy              =     146.37473140 Ry
     Harris-Foulkes estimate   =   -5887.36939120 Ry
     estimated scf accuracy    <      26.99360358 Ry

     iteration # 41     ecut=    30.00 Ry     beta=0.70
     Davidson diagonalization with overlap
     ethr =  1.00E-02,  avg # of iterations =  8.0

     negative rho (up, down):  9.573E-02 0.000E+00

     total cpu time spent up to now is        5.8 secs

     total energy              =     -40.61237101 Ry
     Harris-Foulkes estimate   =     -88.90722718 Ry
     estimated scf accuracy    <      44.37464446 Ry

     iteration # 42     ecut=    30.00 Ry     beta=0.70
     Davidson diagonalization with overlap
     ethr =  1.00E-02,  avg # of iterations =  8.0

     negative rho (up, down):  2.376E-01 0.000E+00

     total cpu time spent up to now is        5.9 secs

     total energy              =      73.05664203 Ry
     Harris-Foulkes estimate   =   -1987.76445234 Ry
     estimated scf accuracy    <      17.51275401 Ry

     iteration # 43     ecut=    30.00 Ry     beta=0.70
     Davidson diagonalization with overlap
     ethr =  1.00E-02,  avg # of iterations =  7.0

     negative rho (up, down):  4.012E-01 0.000E+00

     total cpu time spent up to now is        5.9 secs

     total energy              =   -1688.62554257 Ry
     Harris-Foulkes estimate   =    -401.38207924 Ry
     estimated scf accuracy    <      48.19499777 Ry

     iteration # 44     ecut=    30.00 Ry     beta=0.70
     Davidson diagonalization with overlap
     ethr =  1.00E-02,  avg # of iterations =  7.0

     negative rho (up, down):  4.166E-01 0.000E+00

     total cpu time spent up to now is        6.0 secs

     total energy              =    -117.56634880 Ry
     Harris-Foulkes estimate   =  -23813.89054241 Ry
     estimated scf accuracy    <      34.18474212 Ry

     iteration # 45     ecut=    30.00 Ry     beta=0.70
     Davidson diagonalization with overlap
     ethr =  1.00E-02,  avg # of iterations =  6.0

     negative rho (up, down):  4.728E-01 0.000E+00

     total cpu time spent up to now is        6.0 secs

     total energy              =      55.87653836 Ry
     Harris-Foulkes estimate   =   -1844.71625390 Ry
     estimated scf accuracy    <      40.38328586 Ry

     iteration # 46     ecut=    30.00 Ry     beta=0.70
     Davidson diagonalization with overlap
     ethr =  1.00E-02,  avg # of iterations =  7.0

     negative rho (up, down):  5.456E-01 0.000E+00

     total cpu time spent up to now is        6.1 secs

     total energy              =       5.06818513 Ry
     Harris-Foulkes estimate   =    -171.13049687 Ry
     estimated scf accuracy    <      31.42606788 Ry

     iteration # 47     ecut=    30.00 Ry     beta=0.70
     Davidson diagonalization with overlap
     ethr =  1.00E-02,  avg # of iterations =  5.0

     negative rho (up, down):  6.105E-01 0.000E+00

     total cpu time spent up to now is        6.1 secs

     total energy              =      13.13637125 Ry
     Harris-Foulkes estimate   =   -1027.20585414 Ry
     estimated scf accuracy    <      68.40607570 Ry

     iteration # 48     ecut=    30.00 Ry     beta=0.70
     Davidson diagonalization with overlap
     ethr =  1.00E-02,  avg # of iterations =  8.0

     negative rho (up, down):  1.046E-02 0.000E+00

     total cpu time spent up to now is        6.2 secs

     total energy              =      91.16026959 Ry
     Harris-Foulkes estimate   =    -190.71765067 Ry
     estimated scf accuracy    <      23.73644940 Ry

     iteration # 49     ecut=    30.00 Ry     beta=0.70
     Davidson diagonalization with overlap
     ethr =  1.00E-02,  avg # of iterations =  6.0

     negative rho (up, down):  3.008E-01 0.000E+00

     total cpu time spent up to now is        6.2 secs

     total energy              =     -92.92591075 Ry
     Harris-Foulkes estimate   =     -72.23882111 Ry
     estimated scf accuracy    <      52.49239091 Ry

     iteration # 50     ecut=    30.00 Ry     beta=0.70
     Davidson diagonalization with overlap
     ethr =  1.00E-02,  avg # of iterations =  9.0

     negative rho (up, down):  4.391E-01 0.000E+00

     total cpu time spent up to now is        6.3 secs

     total energy              =    -556.04331849 Ry
     Harris-Foulkes estimate   =    -488.14223257 Ry
     estimated scf accuracy    <      34.94639996 Ry

     iteration # 51     ecut=    30.00 Ry     beta=0.70
     Davidson diagonalization with overlap
     ethr =  1.00E-02,  avg # of iterations =  5.0

     negative rho (up, down):  6.052E-01 0.000E+00

     total cpu time spent up to now is        6.3 secs

     total energy              =    4326.04574743 Ry
     Harris-Foulkes estimate   =   -6608.77620542 Ry
     estimated scf accuracy    <      36.12877385 Ry

     iteration # 52     ecut=    30.00 Ry     beta=0.70
     Davidson diagonalization with overlap
     ethr =  1.00E-02,  avg # of iterations =  7.0

     negative rho (up, down):  9.342E-01 0.000E+00

     total cpu time spent up to now is        6.4 secs

     total energy              =    -142.25802367 Ry
     Harris-Foulkes estimate   =   -9389.34015916 Ry
     estimated scf accuracy    <      29.50453497 Ry

     iteration # 53     ecut=    30.00 Ry     beta=0.70
     Davidson diagonalization with overlap
     ethr =  1.00E-02,  avg # of iterations =  6.0

     negative rho (up, down):  7.237E-01 0.000E+00

     total cpu time spent up to now is        6.4 secs

     total energy              =   -1045.86092554 Ry
     Harris-Foulkes estimate   =  -10016.66541970 Ry
     estimated scf accuracy    <      44.42681416 Ry

     iteration # 54     ecut=    30.00 Ry     beta=0.70
     Davidson diagonalization with overlap
     ethr =  1.00E-02,  avg # of iterations = 13.0

     negative rho (up, down):  4.071E-01 0.000E+00

     total cpu time spent up to now is        6.5 secs

     total energy              =    -384.73262605 Ry
     Harris-Foulkes estimate   =   -6470.91069723 Ry
     estimated scf accuracy    <      29.31241317 Ry

     iteration # 55     ecut=    30.00 Ry     beta=0.70
     Davidson diagonalization with overlap
     ethr =  1.00E-02,  avg # of iterations =  7.0

     negative rho (up, down):  6.634E-01 0.000E+00

     total cpu time spent up to now is        6.6 secs

     total energy              =     -30.08580172 Ry
     Harris-Foulkes estimate   =   -2265.67515173 Ry
     estimated scf accuracy    <      43.97004394 Ry

     iteration # 56     ecut=    30.00 Ry     beta=0.70
     Davidson diagonalization with overlap
     ethr =  1.00E-02,  avg # of iterations =  7.0

     negative rho (up, down):  1.887E-01 0.000E+00

     total cpu time spent up to now is        6.6 secs

     total energy              =     -11.60261103 Ry
     Harris-Foulkes estimate   =    -565.99245800 Ry
     estimated scf accuracy    <      30.64886348 Ry

     iteration # 57     ecut=    30.00 Ry     beta=0.70
     Davidson diagonalization with overlap
     ethr =  1.00E-02,  avg # of iterations =  8.0

     negative rho (up, down):  7.602E-01 0.000E+00

     total cpu time spent up to now is        6.7 secs

     total energy              =     -63.80859109 Ry
     Harris-Foulkes estimate   =   -1484.85196681 Ry
     estimated scf accuracy    <      38.94202539 Ry

     iteration # 58     ecut=    30.00 Ry     beta=0.70
     Davidson diagonalization with overlap
     ethr =  1.00E-02,  avg # of iterations =  9.0

     negative rho (up, down):  6.516E-01 0.000E+00

     total cpu time spent up to now is        6.7 secs

     total energy              =     446.16800977 Ry
     Harris-Foulkes estimate   =   -9804.14651504 Ry
     estimated scf accuracy    <      31.59642047 Ry

     iteration # 59     ecut=    30.00 Ry     beta=0.70
     Davidson diagonalization with overlap
     ethr =  1.00E-02,  avg # of iterations =  7.0

     negative rho (up, down):  1.232E+00 0.000E+00

     total cpu time spent up to now is        6.8 secs

     total energy              =      35.66631740 Ry
     Harris-Foulkes estimate   =  -10450.60292228 Ry
     estimated scf accuracy    <      28.55884879 Ry

     iteration # 60     ecut=    30.00 Ry     beta=0.70
     Davidson diagonalization with overlap
     ethr =  1.00E-02,  avg # of iterations =  8.0

     negative rho (up, down):  1.414E+00 0.000E+00

     total cpu time spent up to now is        6.9 secs

     total energy              =      16.57129584 Ry
     Harris-Foulkes estimate   =   -1035.17501302 Ry
     estimated scf accuracy    <      24.71114173 Ry

     iteration # 61     ecut=    30.00 Ry     beta=0.70
     Davidson diagonalization with overlap
     ethr =  1.00E-02,  avg # of iterations =  8.0

     negative rho (up, down):  1.054E+00 0.000E+00

     total cpu time spent up to now is        6.9 secs

     total energy              =     -51.99247490 Ry
     Harris-Foulkes estimate   =   -2570.30091198 Ry
     estimated scf accuracy    <      24.91887091 Ry

     iteration # 62     ecut=    30.00 Ry     beta=0.70
     Davidson diagonalization with overlap
     ethr =  1.00E-02,  avg # of iterations =  9.0

     negative rho (up, down):  8.296E-01 0.000E+00

     total cpu time spent up to now is        7.0 secs

     total energy              =      66.67035857 Ry
     Harris-Foulkes estimate   =   -1682.37008975 Ry
     estimated scf accuracy    <      25.00939318 Ry

     iteration # 63     ecut=    30.00 Ry     beta=0.70
     Davidson diagonalization with overlap
     ethr =  1.00E-02,  avg # of iterations =  6.0

     negative rho (up, down):  7.366E-01 0.000E+00

     total cpu time spent up to now is        7.0 secs

     total energy              =    -917.47320279 Ry
     Harris-Foulkes estimate   =    -414.08036640 Ry
     estimated scf accuracy    <      20.19982405 Ry

     iteration # 64     ecut=    30.00 Ry     beta=0.70
     Davidson diagonalization with overlap
     ethr =  1.00E-02,  avg # of iterations = 12.0

     negative rho (up, down):  6.565E-01 0.000E+00

     total cpu time spent up to now is        7.1 secs

     total energy              =    -293.56931077 Ry
     Harris-Foulkes estimate   =  -13444.58868952 Ry
     estimated scf accuracy    <      18.06171394 Ry

     iteration # 65     ecut=    30.00 Ry     beta=0.70
     Davidson diagonalization with overlap
     ethr =  1.00E-02,  avg # of iterations =  9.0

     negative rho (up, down):  4.928E-01 0.000E+00

     total cpu time spent up to now is        7.2 secs

     total energy              =     -59.21018005 Ry
     Harris-Foulkes estimate   =   -3825.87519702 Ry
     estimated scf accuracy    <      26.36154738 Ry

     iteration # 66     ecut=    30.00 Ry     beta=0.70
     Davidson diagonalization with overlap
     ethr =  1.00E-02,  avg # of iterations =  9.0

     negative rho (up, down):  7.997E-03 0.000E+00

     total cpu time spent up to now is        7.2 secs

     total energy              =      82.03002375 Ry
     Harris-Foulkes estimate   =    -558.11580749 Ry
     estimated scf accuracy    <      41.91799371 Ry

     iteration # 67     ecut=    30.00 Ry     beta=0.70
     Davidson diagonalization with overlap
     ethr =  1.00E-02,  avg # of iterations =  8.0

     negative rho (up, down):  3.759E-03 0.000E+00

     total cpu time spent up to now is        7.3 secs

     total energy              =     -14.99604556 Ry
     Harris-Foulkes estimate   =     -39.29492686 Ry
     estimated scf accuracy    <      16.02696079 Ry

     iteration # 68     ecut=    30.00 Ry     beta=0.70
     Davidson diagonalization with overlap
     ethr =  1.00E-02,  avg # of iterations =  3.0

     negative rho (up, down):  1.335E-05 0.000E+00

     total cpu time spent up to now is        7.3 secs

     total energy              =      -1.47716272 Ry
     Harris-Foulkes estimate   =    -815.63553691 Ry
     estimated scf accuracy    <       7.80810632 Ry

     iteration # 69     ecut=    30.00 Ry     beta=0.70
     Davidson diagonalization with overlap
     ethr =  1.00E-02,  avg # of iterations =  3.0

     negative rho (up, down):  1.664E-06 0.000E+00

     total cpu time spent up to now is        7.4 secs

     total energy              =     -19.19092909 Ry
     Harris-Foulkes estimate   =     -38.33966934 Ry
     estimated scf accuracy    <       5.18912551 Ry

     iteration # 70     ecut=    30.00 Ry     beta=0.70
     Davidson diagonalization with overlap
     ethr =  1.00E-02,  avg # of iterations =  3.0

     negative rho (up, down):  2.203E-05 0.000E+00

     total cpu time spent up to now is        7.4 secs

     total energy              =     -32.30663512 Ry
     Harris-Foulkes estimate   =     -33.20379964 Ry
     estimated scf accuracy    <       3.77764353 Ry

     iteration # 71     ecut=    30.00 Ry     beta=0.70
     Davidson diagonalization with overlap
     ethr =  1.00E-02,  avg # of iterations =  1.0

     negative rho (up, down):  1.788E-01 0.000E+00

     total cpu time spent up to now is        7.4 secs

     total energy              =     -41.35195800 Ry
     Harris-Foulkes estimate   =     -32.33947950 Ry
     estimated scf accuracy    <       2.17460252 Ry

     iteration # 72     ecut=    30.00 Ry     beta=0.70
     Davidson diagonalization with overlap
     ethr =  1.00E-02,  avg # of iterations =  5.0

     negative rho (up, down):  1.468E-01 0.000E+00

     total cpu time spent up to now is        7.5 secs

     total energy              =   -4576.86010368 Ry
     Harris-Foulkes estimate   =    -484.62494043 Ry
     estimated scf accuracy    <      43.28190492 Ry

     iteration # 73     ecut=    30.00 Ry     beta=0.70
     Davidson diagonalization with overlap
     ethr =  1.00E-02,  avg # of iterations =  4.0

     negative rho (up, down):  6.513E-02 0.000E+00

     total cpu time spent up to now is        7.5 secs

     total energy              =     -21.35317765 Ry
     Harris-Foulkes estimate   =  -11235.60622870 Ry
     estimated scf accuracy    <      24.43049382 Ry

     iteration # 74     ecut=    30.00 Ry     beta=0.70
     Davidson diagonalization with overlap
     ethr =  1.00E-02,  avg # of iterations =  5.0

     negative rho (up, down):  3.822E-02 0.000E+00

     total cpu time spent up to now is        7.6 secs

     total energy              =      11.63671225 Ry
     Harris-Foulkes estimate   =    -227.86446060 Ry
     estimated scf accuracy    <      16.46577857 Ry

     iteration # 75     ecut=    30.00 Ry     beta=0.70
     Davidson diagonalization with overlap
     ethr =  1.00E-02,  avg # of iterations =  4.0

     negative rho (up, down):  2.621E-02 0.000E+00

     total cpu time spent up to now is        7.6 secs

     total energy              =      -6.97037178 Ry
     Harris-Foulkes estimate   =    -158.25585465 Ry
     estimated scf accuracy    <      12.72479955 Ry

     iteration # 76     ecut=    30.00 Ry     beta=0.70
     Davidson diagonalization with overlap
     ethr =  1.00E-02,  avg # of iterations =  4.0

     negative rho (up, down):  1.167E-01 0.000E+00

     total cpu time spent up to now is        7.7 secs

     total energy              =     893.05030027 Ry
     Harris-Foulkes estimate   =     -90.90995596 Ry
     estimated scf accuracy    <       8.53276920 Ry

     iteration # 77     ecut=    30.00 Ry     beta=0.70
     Davidson diagonalization with overlap
     ethr =  1.00E-02,  avg # of iterations =  5.0

     negative rho (up, down):  2.019E-01 0.000E+00

     total cpu time spent up to now is        7.7 secs

     total energy              =      19.42583246 Ry
     Harris-Foulkes estimate   =    -186.71709319 Ry
     estimated scf accuracy    <      35.31909043 Ry

     iteration # 78     ecut=    30.00 Ry     beta=0.70
     Davidson diagonalization with overlap
     ethr =  1.00E-02,  avg # of iterations =  5.0

     negative rho (up, down):  2.086E-01 0.000E+00

     total cpu time spent up to now is        7.8 secs

     total energy              =       8.64109334 Ry
     Harris-Foulkes estimate   =    -597.48350008 Ry
     estimated scf accuracy    <      48.11835628 Ry

     iteration # 79     ecut=    30.00 Ry     beta=0.70
     Davidson diagonalization with overlap
     ethr =  1.00E-02,  avg # of iterations =  4.0

     negative rho (up, down):  2.174E-01 0.000E+00

     total cpu time spent up to now is        7.8 secs

     total energy              =    -150.90726237 Ry
     Harris-Foulkes estimate   =    -172.35069022 Ry
     estimated scf accuracy    <      29.27392385 Ry

     iteration # 80     ecut=    30.00 Ry     beta=0.70
     Davidson diagonalization with overlap
     ethr =  1.00E-02,  avg # of iterations =  5.0

     negative rho (up, down):  6.935E-01 0.000E+00

     total cpu time spent up to now is        7.9 secs

     total energy              =     -96.04125791 Ry
     Harris-Foulkes estimate   =    -275.04745684 Ry
     estimated scf accuracy    <      37.64151755 Ry

     iteration # 81     ecut=    30.00 Ry     beta=0.70
     Davidson diagonalization with overlap
     ethr =  1.00E-02,  avg # of iterations =  6.0

     negative rho (up, down):  8.894E-01 0.000E+00

     total cpu time spent up to now is        7.9 secs

     total energy              =      44.94323448 Ry
     Harris-Foulkes estimate   =    -463.99260757 Ry
     estimated scf accuracy    <      34.94412308 Ry

     iteration # 82     ecut=    30.00 Ry     beta=0.70
     Davidson diagonalization with overlap
     ethr =  1.00E-02,  avg # of iterations =  6.0

     negative rho (up, down):  1.096E+00 0.000E+00

     total cpu time spent up to now is        8.0 secs

     total energy              =    -291.08599889 Ry
     Harris-Foulkes estimate   =   -3805.34678347 Ry
     estimated scf accuracy    <      26.33485929 Ry

     iteration # 83     ecut=    30.00 Ry     beta=0.70
     Davidson diagonalization with overlap
     ethr =  1.00E-02,  avg # of iterations =  7.0

     negative rho (up, down):  1.169E+00 0.000E+00

     total cpu time spent up to now is        8.1 secs

     total energy              =   -3258.13846611 Ry
     Harris-Foulkes estimate   =   -1691.11889323 Ry
     estimated scf accuracy    <      29.80330854 Ry

     iteration # 84     ecut=    30.00 Ry     beta=0.70
     Davidson diagonalization with overlap
     ethr =  1.00E-02,  avg # of iterations =  5.0

     negative rho (up, down):  1.293E+00 0.000E+00

     total cpu time spent up to now is        8.1 secs

     total energy              =       1.44269484 Ry
     Harris-Foulkes estimate   =  -26669.22068018 Ry
     estimated scf accuracy    <      33.37468117 Ry

     iteration # 85     ecut=    30.00 Ry     beta=0.70
     Davidson diagonalization with overlap
     ethr =  1.00E-02,  avg # of iterations =  6.0

     negative rho (up, down):  1.225E+00 0.000E+00

     total cpu time spent up to now is        8.2 secs

     total energy              =      51.50750835 Ry
     Harris-Foulkes estimate   =   -3085.49545228 Ry
     estimated scf accuracy    <      37.69755303 Ry

     iteration # 86     ecut=    30.00 Ry     beta=0.70
     Davidson diagonalization with overlap
     ethr =  1.00E-02,  avg # of iterations =  8.0

     negative rho (up, down):  1.531E+00 0.000E+00

     total cpu time spent up to now is        8.2 secs

     total energy              =    -554.19332356 Ry
     Harris-Foulkes estimate   =   -1614.78594471 Ry
     estimated scf accuracy    <      30.04201609 Ry

     iteration # 87     ecut=    30.00 Ry     beta=0.70
     Davidson diagonalization with overlap
     ethr =  1.00E-02,  avg # of iterations =  7.0

     negative rho (up, down):  3.536E-01 0.000E+00

     total cpu time spent up to now is        8.3 secs

     total energy              =    -155.88539855 Ry
     Harris-Foulkes estimate   =   -3023.74409490 Ry
     estimated scf accuracy    <      19.62892498 Ry

     iteration # 88     ecut=    30.00 Ry     beta=0.70
     Davidson diagonalization with overlap
     ethr =  1.00E-02,  avg # of iterations =  8.0

     negative rho (up, down):  2.113E-01 0.000E+00

     total cpu time spent up to now is        8.3 secs

     total energy              =     106.58330616 Ry
     Harris-Foulkes estimate   =   -4016.78893102 Ry
     estimated scf accuracy    <      13.86891308 Ry

     iteration # 89     ecut=    30.00 Ry     beta=0.70
     Davidson diagonalization with overlap
     ethr =  1.00E-02,  avg # of iterations =  8.0

     negative rho (up, down):  2.144E-02 0.000E+00

     total cpu time spent up to now is        8.4 secs

     total energy              =      67.70449975 Ry
     Harris-Foulkes estimate   =    -145.89479824 Ry
     estimated scf accuracy    <      22.38561674 Ry

     iteration # 90     ecut=    30.00 Ry     beta=0.70
     Davidson diagonalization with overlap
     ethr =  1.00E-02,  avg # of iterations =  9.0

     negative rho (up, down):  2.805E-03 0.000E+00

     total cpu time spent up to now is        8.5 secs

     total energy              =      -7.41778274 Ry
     Harris-Foulkes estimate   =     -88.15734905 Ry
     estimated scf accuracy    <      23.98080954 Ry

     iteration # 91     ecut=    30.00 Ry     beta=0.70
     Davidson diagonalization with overlap
     ethr =  1.00E-02,  avg # of iterations =  5.0

     negative rho (up, down):  3.722E-07 0.000E+00

     total cpu time spent up to now is        8.5 secs

     total energy              =      13.55283585 Ry
     Harris-Foulkes estimate   =     -77.46200024 Ry
     estimated scf accuracy    <      21.89403844 Ry

     iteration # 92     ecut=    30.00 Ry     beta=0.70
     Davidson diagonalization with overlap
     ethr =  1.00E-02,  avg # of iterations =  5.0

     negative rho (up, down):  3.611E-02 0.000E+00

     total cpu time spent up to now is        8.5 secs

     total energy              =     -39.24113387 Ry
     Harris-Foulkes estimate   =     -45.29811170 Ry
     estimated scf accuracy    <      22.96651836 Ry

     iteration # 93     ecut=    30.00 Ry     beta=0.70
     Davidson diagonalization with overlap
     ethr =  1.00E-02,  avg # of iterations =  2.0

     negative rho (up, down):  2.989E-02 0.000E+00

     total cpu time spent up to now is        8.6 secs

     total energy              =     -40.05218607 Ry
     Harris-Foulkes estimate   =     -40.12152809 Ry
     estimated scf accuracy    <      13.86320298 Ry

     iteration # 94     ecut=    30.00 Ry     beta=0.70
     Davidson diagonalization with overlap
     ethr =  1.00E-02,  avg # of iterations =  4.0

     negative rho (up, down):  4.062E-02 0.000E+00

     total cpu time spent up to now is        8.6 secs

     total energy              =      -3.03795592 Ry
     Harris-Foulkes estimate   =    -399.29771912 Ry
     estimated scf accuracy    <       9.97616037 Ry

     iteration # 95     ecut=    30.00 Ry     beta=0.70
     Davidson diagonalization with overlap
     ethr =  1.00E-02,  avg # of iterations =  4.0

     negative rho (up, down):  9.273E-02 0.000E+00

     total cpu time spent up to now is        8.7 secs

     total energy              =     -16.38947491 Ry
     Harris-Foulkes estimate   =    -252.34060186 Ry
     estimated scf accuracy    <      13.75445978 Ry

     iteration # 96     ecut=    30.00 Ry     beta=0.70
     Davidson diagonalization with overlap
     ethr =  1.00E-02,  avg # of iterations =  4.0

     negative rho (up, down):  1.249E-01 0.000E+00

     total cpu time spent up to now is        8.7 secs

     total energy              =      -1.99517768 Ry
     Harris-Foulkes estimate   =    -115.84364893 Ry
     estimated scf accuracy    <       7.95269871 Ry

     iteration # 97     ecut=    30.00 Ry     beta=0.70
     Davidson diagonalization with overlap
     ethr =  1.00E-02,  avg # of iterations =  5.0

     negative rho (up, down):  1.382E-01 0.000E+00

     total cpu time spent up to now is        8.8 secs

     total energy              =     -41.78060477 Ry
     Harris-Foulkes estimate   =     -51.03535078 Ry
     estimated scf accuracy    <       6.30661969 Ry

     iteration # 98     ecut=    30.00 Ry     beta=0.70
     Davidson diagonalization with overlap
     ethr =  1.00E-02,  avg # of iterations =  5.0

     negative rho (up, down):  6.366E-02 0.000E+00

     total cpu time spent up to now is        8.8 secs

     total energy              =      31.72099355 Ry
     Harris-Foulkes estimate   =    -406.03621345 Ry
     estimated scf accuracy    <      21.35101786 Ry

     iteration # 99     ecut=    30.00 Ry     beta=0.70
     Davidson diagonalization with overlap
     ethr =  1.00E-02,  avg # of iterations =  5.0

     negative rho (up, down):  7.093E-02 0.000E+00

     total cpu time spent up to now is        8.9 secs

     total energy              =     150.73971453 Ry
     Harris-Foulkes estimate   =    -214.67026245 Ry
     estimated scf accuracy    <      19.74930836 Ry

     iteration #100     ecut=    30.00 Ry     beta=0.70
     Davidson diagonalization with overlap
     ethr =  1.00E-02,  avg # of iterations =  5.0

     negative rho (up, down):  8.986E-02 0.000E+00

     total cpu time spent up to now is        8.9 secs

     total energy              =       7.13377290 Ry
     Harris-Foulkes estimate   =    -417.74042733 Ry
     estimated scf accuracy    <       9.24382734 Ry

     End of self-consistent calculation

     convergence NOT achieved after 100 iterations: stopping

     Writing output data file pwscf.save
 
     init_run     :      0.09s CPU      0.11s WALL (       1 calls)
     electrons    :      6.71s CPU      8.27s WALL (       3 calls)
     update_pot   :      0.19s CPU      0.27s WALL (       2 calls)
     forces       :      0.05s CPU      0.05s WALL (       2 calls)

     Called by init_run:
     wfcinit      :      0.01s CPU      0.02s WALL (       1 calls)
     potinit      :      0.02s CPU      0.03s WALL (       1 calls)

     Called by electrons:
     c_bands      :      3.42s CPU      3.58s WALL (     183 calls)
     sum_band     :      0.53s CPU      0.60s WALL (     183 calls)
     v_of_rho     :      1.36s CPU      1.43s WALL (     186 calls)
     mix_rho      :      1.23s CPU      2.25s WALL (     183 calls)

     Called by c_bands:
     init_us_2    :      0.02s CPU      0.02s WALL (     367 calls)
     cegterg      :      3.39s CPU      3.49s WALL (     183 calls)

     Called by sum_band:

     Called by *egterg:
     h_psi        :      2.81s CPU      2.88s WALL (     937 calls)
     g_psi        :      0.03s CPU      0.03s WALL (     753 calls)
     cdiaghg      :      0.21s CPU      0.21s WALL (     934 calls)

     Called by h_psi:
     h_psi:pot    :      2.79s CPU      2.86s WALL (     937 calls)
     h_psi:calbec :      0.05s CPU      0.05s WALL (     937 calls)
     vloc_psi     :      2.73s CPU      2.79s WALL (     937 calls)
     add_vuspsi   :      0.01s CPU      0.01s WALL (     937 calls)

     General routines
     calbec       :      0.06s CPU      0.06s WALL (     946 calls)
     fft          :      0.88s CPU      0.94s WALL (    2050 calls)
     fftw         :      2.81s CPU      2.93s WALL (   12590 calls)
     davcio       :      0.20s CPU      0.83s WALL (    3406 calls)
 
     Parallel routines
     fft_scatter  :      1.45s CPU      1.58s WALL (   14640 calls)
 
     PWSCF        :     7.19s CPU         9.01s WALL

 
   This run was terminated on:   8:18:29  14Feb2018            

=------------------------------------------------------------------------------=
   JOB DONE.
=------------------------------------------------------------------------------=
