
     Program PWSCF v.6.0 (svn rev. 13079) starts on 14Feb2018 at  8:18:30 

     This program is part of the open-source Quantum ESPRESSO suite
     for quantum simulation of materials; please cite
         "P. Giannozzi et al., J. Phys.:Condens. Matter 21 395502 (2009);
          URL http://www.quantum-espresso.org", 
     in publications or presentations arising from this work. More details at
     http://www.quantum-espresso.org/quote

     Parallel version (MPI), running on    28 processors
     R & G space division:  proc/nbgrp/npool/nimage =      28
     Reading input from inputs/MD-H2O-2/326.in

     Current dimensions of program PWSCF are:
     Max number of different atomic species (ntypx) = 10
     Max number of k-points (npk) =  40000
     Max angular momentum in pseudopotentials (lmaxx) =  3

     Subspace diagonalization in iterative solution of the eigenvalue problem:
     a serial algorithm will be used

 
     Parallelization info
     --------------------
     sticks:   dense  smooth     PW     G-vecs:    dense   smooth      PW
     Min         136     136     33                 6338     6338     787
     Max         137     137     34                 6341     6341     792
     Sum        3809    3809    949               177509   177509   22119
 


     bravais-lattice index     =            1
     lattice parameter (alat)  =      20.0000  a.u.
     unit-cell volume          =    8000.0000 (a.u.)^3
     number of atoms/cell      =            3
     number of atomic types    =            2
     number of electrons       =         8.00
     number of Kohn-Sham states=            8
     kinetic-energy cutoff     =      30.0000  Ry
     charge density cutoff     =     120.0000  Ry
     convergence threshold     =      1.0E-08
     mixing beta               =       0.7000
     number of iterations used =            8  plain     mixing
     Exchange-correlation      = BLYP ( 1  3  1  3 0 0)
     nstep                     =         5000


     celldm(1)=  20.000000  celldm(2)=   0.000000  celldm(3)=   0.000000
     celldm(4)=   0.000000  celldm(5)=   0.000000  celldm(6)=   0.000000

     crystal axes: (cart. coord. in units of alat)
               a(1) = (   1.000000   0.000000   0.000000 )  
               a(2) = (   0.000000   1.000000   0.000000 )  
               a(3) = (   0.000000   0.000000   1.000000 )  

     reciprocal axes: (cart. coord. in units 2 pi/alat)
               b(1) = (  1.000000  0.000000  0.000000 )  
               b(2) = (  0.000000  1.000000  0.000000 )  
               b(3) = (  0.000000  0.000000  1.000000 )  


     PseudoPot. # 1 for  H read from file:
     ./H.blyp-hgh.UPF
     MD5 check sum: c576e69559cde411e611be972c763230
     Pseudo is Norm-conserving, Zval =  1.0
     Generated in analytical, separable form
     Using radial grid of  929 points,  0 beta functions with: 

     PseudoPot. # 2 for  O read from file:
     ./O.blyp-hgh.UPF
     MD5 check sum: d0b7156309aa9befef28faac7bc56342
     Pseudo is Norm-conserving, Zval =  6.0
     Generated in analytical, separable form
     Using radial grid of 1095 points,  1 beta functions with: 
                l(1) =   0

     atomic species   valence    mass     pseudopotential
        H              1.00     1.01000      H( 1.00)
        O              6.00    16.00000      O( 1.00)

     No symmetry found



   Cartesian axes

     site n.     atom                  positions (alat units)
         1           H   tau(   1) = (   0.5067798   0.8793446   0.1487085  )
         2           H   tau(   2) = (   0.2618845  -0.0210013  -0.0734831  )
         3           O   tau(   3) = (   0.2449806   0.9302262   0.8415810  )

     number of k points=     1  Marzari-Vanderbilt smearing, width (Ry)=  0.0250
                       cart. coord. in units 2pi/alat
        k(    1) = (   0.0000000   0.0000000   0.0000000), wk =   2.0000000

     Dense  grid:   177509 G-vectors     FFT dimensions: (  72,  72,  72)

     Estimated max dynamical RAM per process >       6.09Mb

     Estimated total allocated dynamical RAM >     170.64Mb

     Initial potential from superposition of free atoms
     Check: negative starting charge=   -0.346913

     starting charge    7.99998, renormalised to    8.00000

     negative rho (up, down):  3.469E-01 0.000E+00
     Starting wfc are    6 randomized atomic wfcs +    2 random wfc

     total cpu time spent up to now is        0.2 secs

     per-process dynamical memory:    18.8 Mb

     Self-consistent Calculation

     iteration #  1     ecut=    30.00 Ry     beta=0.70
     Davidson diagonalization with overlap
     ethr =  1.00E-02,  avg # of iterations =  9.0

     negative rho (up, down):  9.131E-02 0.000E+00

     total cpu time spent up to now is        0.3 secs

     total energy              =     -30.44805571 Ry
     Harris-Foulkes estimate   =     -32.23436645 Ry
     estimated scf accuracy    <       2.05617933 Ry

     iteration #  2     ecut=    30.00 Ry     beta=0.70
     Davidson diagonalization with overlap
     ethr =  1.00E-02,  avg # of iterations =  3.0

     negative rho (up, down):  6.663E-02 0.000E+00

     total cpu time spent up to now is        0.3 secs

     total energy              =     -32.24234637 Ry
     Harris-Foulkes estimate   =     -34.44076231 Ry
     estimated scf accuracy    <       5.40225570 Ry

     iteration #  3     ecut=    30.00 Ry     beta=0.70
     Davidson diagonalization with overlap
     ethr =  1.00E-02,  avg # of iterations =  2.0

     negative rho (up, down):  6.433E-02 0.000E+00

     total cpu time spent up to now is        0.4 secs

     total energy              =     -32.40209594 Ry
     Harris-Foulkes estimate   =     -32.47551334 Ry
     estimated scf accuracy    <       1.72775346 Ry

     iteration #  4     ecut=    30.00 Ry     beta=0.70
     Davidson diagonalization with overlap
     ethr =  1.00E-02,  avg # of iterations =  1.0

     negative rho (up, down):  1.275E-02 0.000E+00

     total cpu time spent up to now is        0.4 secs

     total energy              =     -31.33319069 Ry
     Harris-Foulkes estimate   =     -32.40240941 Ry
     estimated scf accuracy    <       1.62367812 Ry

     iteration #  5     ecut=    30.00 Ry     beta=0.70
     Davidson diagonalization with overlap
     ethr =  1.00E-02,  avg # of iterations =  3.0

     negative rho (up, down):  5.081E-03 0.000E+00

     total cpu time spent up to now is        0.4 secs

     total energy              =     -32.88495797 Ry
     Harris-Foulkes estimate   =     -33.07586161 Ry
     estimated scf accuracy    <       4.15230295 Ry

     iteration #  6     ecut=    30.00 Ry     beta=0.70
     Davidson diagonalization with overlap
     ethr =  1.00E-02,  avg # of iterations =  1.0

     negative rho (up, down):  6.470E-03 0.000E+00

     total cpu time spent up to now is        0.5 secs

     total energy              =     -32.77059247 Ry
     Harris-Foulkes estimate   =     -32.91222014 Ry
     estimated scf accuracy    <       3.00341394 Ry

     iteration #  7     ecut=    30.00 Ry     beta=0.70
     Davidson diagonalization with overlap
     ethr =  1.00E-02,  avg # of iterations =  1.0

     negative rho (up, down):  9.775E-03 0.000E+00

     total cpu time spent up to now is        0.5 secs

     total energy              =     -32.10367512 Ry
     Harris-Foulkes estimate   =     -32.77244380 Ry
     estimated scf accuracy    <       2.71242201 Ry

     iteration #  8     ecut=    30.00 Ry     beta=0.70
     Davidson diagonalization with overlap
     ethr =  1.00E-02,  avg # of iterations =  1.0

     negative rho (up, down):  7.871E-03 0.000E+00

     total cpu time spent up to now is        0.5 secs

     total energy              =     -32.00787620 Ry
     Harris-Foulkes estimate   =     -32.13565340 Ry
     estimated scf accuracy    <       1.48313784 Ry

     iteration #  9     ecut=    30.00 Ry     beta=0.70
     Davidson diagonalization with overlap
     ethr =  1.00E-02,  avg # of iterations =  1.0

     negative rho (up, down):  1.734E-03 0.000E+00

     total cpu time spent up to now is        0.6 secs

     total energy              =     -31.80909266 Ry
     Harris-Foulkes estimate   =     -32.01171014 Ry
     estimated scf accuracy    <       1.27615288 Ry

     iteration # 10     ecut=    30.00 Ry     beta=0.70
     Davidson diagonalization with overlap
     ethr =  1.00E-02,  avg # of iterations =  1.0

     negative rho (up, down):  1.371E-02 0.000E+00

     total cpu time spent up to now is        0.6 secs

     total energy              =     -31.90497226 Ry
     Harris-Foulkes estimate   =     -32.04352910 Ry
     estimated scf accuracy    <       0.97260493 Ry

     iteration # 11     ecut=    30.00 Ry     beta=0.70
     Davidson diagonalization with overlap
     ethr =  1.00E-02,  avg # of iterations =  1.0

     negative rho (up, down):  1.646E-02 0.000E+00

     total cpu time spent up to now is        0.6 secs

     total energy              =     -31.99633225 Ry
     Harris-Foulkes estimate   =     -31.96141652 Ry
     estimated scf accuracy    <       0.99060677 Ry

     iteration # 12     ecut=    30.00 Ry     beta=0.70
     Davidson diagonalization with overlap
     ethr =  1.00E-02,  avg # of iterations =  1.0

     negative rho (up, down):  1.172E-02 0.000E+00

     total cpu time spent up to now is        0.7 secs

     total energy              =     -31.94137078 Ry
     Harris-Foulkes estimate   =     -32.00222661 Ry
     estimated scf accuracy    <       1.30465452 Ry

     iteration # 13     ecut=    30.00 Ry     beta=0.70
     Davidson diagonalization with overlap
     ethr =  1.00E-02,  avg # of iterations =  1.0

     negative rho (up, down):  1.088E-02 0.000E+00

     total cpu time spent up to now is        0.7 secs

     total energy              =     -31.95001338 Ry
     Harris-Foulkes estimate   =     -31.94815924 Ry
     estimated scf accuracy    <       0.11766724 Ry

     iteration # 14     ecut=    30.00 Ry     beta=0.70
     Davidson diagonalization with overlap
     ethr =  1.47E-03,  avg # of iterations =  1.0

     negative rho (up, down):  3.137E-04 0.000E+00

     total cpu time spent up to now is        0.7 secs

     total energy              =     -31.92883693 Ry
     Harris-Foulkes estimate   =     -31.95062209 Ry
     estimated scf accuracy    <       0.30793862 Ry

     iteration # 15     ecut=    30.00 Ry     beta=0.70
     Davidson diagonalization with overlap
     ethr =  1.47E-03,  avg # of iterations =  1.0

     negative rho (up, down):  4.423E-04 0.000E+00

     total cpu time spent up to now is        0.7 secs

     total energy              =     -31.92990032 Ry
     Harris-Foulkes estimate   =     -31.95630909 Ry
     estimated scf accuracy    <       0.50572042 Ry

     iteration # 16     ecut=    30.00 Ry     beta=0.70
     Davidson diagonalization with overlap
     ethr =  1.47E-03,  avg # of iterations =  1.0

     negative rho (up, down):  1.425E-08 0.000E+00

     total cpu time spent up to now is        0.8 secs

     total energy              =     -31.93452115 Ry
     Harris-Foulkes estimate   =     -31.94940443 Ry
     estimated scf accuracy    <       0.22986512 Ry

     iteration # 17     ecut=    30.00 Ry     beta=0.70
     Davidson diagonalization with overlap
     ethr =  1.47E-03,  avg # of iterations =  1.0

     total cpu time spent up to now is        0.8 secs

     total energy              =     -31.94949569 Ry
     Harris-Foulkes estimate   =     -31.95236435 Ry
     estimated scf accuracy    <       0.34176075 Ry

     iteration # 18     ecut=    30.00 Ry     beta=0.70
     Davidson diagonalization with overlap
     ethr =  1.47E-03,  avg # of iterations =  1.0

     total cpu time spent up to now is        0.8 secs

     total energy              =     -31.94543322 Ry
     Harris-Foulkes estimate   =     -31.94978760 Ry
     estimated scf accuracy    <       0.21185001 Ry

     iteration # 19     ecut=    30.00 Ry     beta=0.70
     Davidson diagonalization with overlap
     ethr =  1.47E-03,  avg # of iterations =  1.0

     total cpu time spent up to now is        0.9 secs

     total energy              =     -31.94575550 Ry
     Harris-Foulkes estimate   =     -31.94676320 Ry
     estimated scf accuracy    <       0.02680949 Ry

     iteration # 20     ecut=    30.00 Ry     beta=0.70
     Davidson diagonalization with overlap
     ethr =  3.35E-04,  avg # of iterations =  1.0

     total cpu time spent up to now is        0.9 secs

     total energy              =     -31.94639265 Ry
     Harris-Foulkes estimate   =     -31.94643015 Ry
     estimated scf accuracy    <       0.00360891 Ry

     iteration # 21     ecut=    30.00 Ry     beta=0.70
     Davidson diagonalization with overlap
     ethr =  4.51E-05,  avg # of iterations =  6.0

     total cpu time spent up to now is        0.9 secs

     total energy              =     -31.94635627 Ry
     Harris-Foulkes estimate   =     -31.94639991 Ry
     estimated scf accuracy    <       0.00135570 Ry

     iteration # 22     ecut=    30.00 Ry     beta=0.70
     Davidson diagonalization with overlap
     ethr =  1.69E-05,  avg # of iterations =  1.0

     total cpu time spent up to now is        1.0 secs

     total energy              =     -31.94638116 Ry
     Harris-Foulkes estimate   =     -31.94638273 Ry
     estimated scf accuracy    <       0.00005920 Ry

     iteration # 23     ecut=    30.00 Ry     beta=0.70
     Davidson diagonalization with overlap
     ethr =  7.40E-07,  avg # of iterations = 17.0

     total cpu time spent up to now is        1.0 secs

     total energy              =     -31.94638255 Ry
     Harris-Foulkes estimate   =     -31.94638243 Ry
     estimated scf accuracy    <       0.00000323 Ry

     iteration # 24     ecut=    30.00 Ry     beta=0.70
     Davidson diagonalization with overlap
     ethr =  4.04E-08,  avg # of iterations =  1.0

     total cpu time spent up to now is        1.1 secs

     total energy              =     -31.94638252 Ry
     Harris-Foulkes estimate   =     -31.94638256 Ry
     estimated scf accuracy    <       0.00000703 Ry

     iteration # 25     ecut=    30.00 Ry     beta=0.70
     Davidson diagonalization with overlap
     ethr =  4.04E-08,  avg # of iterations =  1.0

     total cpu time spent up to now is        1.1 secs

     total energy              =     -31.94638249 Ry
     Harris-Foulkes estimate   =     -31.94638252 Ry
     estimated scf accuracy    <       0.00000524 Ry

     iteration # 26     ecut=    30.00 Ry     beta=0.70
     Davidson diagonalization with overlap
     ethr =  4.04E-08,  avg # of iterations =  1.0

     total cpu time spent up to now is        1.1 secs

     total energy              =     -31.94638246 Ry
     Harris-Foulkes estimate   =     -31.94638250 Ry
     estimated scf accuracy    <       0.00000248 Ry

     iteration # 27     ecut=    30.00 Ry     beta=0.70
     Davidson diagonalization with overlap
     ethr =  3.10E-08,  avg # of iterations =  1.0

     total cpu time spent up to now is        1.1 secs

     total energy              =     -31.94638247 Ry
     Harris-Foulkes estimate   =     -31.94638247 Ry
     estimated scf accuracy    <       0.00000046 Ry

     iteration # 28     ecut=    30.00 Ry     beta=0.70
     Davidson diagonalization with overlap
     ethr =  5.73E-09,  avg # of iterations =  1.0

     total cpu time spent up to now is        1.2 secs

     End of self-consistent calculation

          k = 0.0000 0.0000 0.0000 ( 22119 PWs)   bands (ev):

   -24.8576 -10.7013  -7.1230  -7.1074  -6.9547  -0.6976   0.2334   0.7985

     the Fermi energy is    -6.9376 ev

!    total energy              =     -31.94638249 Ry
     Harris-Foulkes estimate   =     -31.94638247 Ry
     estimated scf accuracy    <          3.4E-10 Ry

     convergence has been achieved in  28 iterations

     Forces acting on atoms (Ry/au):

     atom    1 type  1   force =    -0.00019322   -0.00006725   -0.00043439
     atom    2 type  1   force =     0.00265654    0.00952251    0.01472505
     atom    3 type  2   force =    -0.00246332   -0.00945526   -0.01429066

     Total force =     0.024789     Total SCF correction =     0.000035

     Molecular Dynamics Calculation

     Starting temperature  =  1000.00 K

     temperature is controlled by Andersen thermostat
     Collision frequency = 1.0000/timestep
     mass H                =     1.01
     mass O                =    16.00
     Time step             =   100.00 a.u.,  4.8378 femto-seconds

     Entering Dynamics:    iteration =     1
                           time      =   0.0048 pico-seconds


     Andersen thermostat:    3 collisions

ATOMIC_POSITIONS (bohr)
H       10.366104624  17.863066889   2.773682755
H        5.258651322  -0.139291648  -1.578578261
O        4.883737023  18.569370041  16.851152159


     kinetic energy (Ekin) =     0.01319564 Ry
     temperature           =   694.47456190 K 
     Ekin + Etot (const)   =   -31.93318685 Ry

     Linear momentum :    0.0000000000   -0.0000000000    0.0000000000

     Writing output data file pwscf.save
     Check: negative starting charge=   -0.346913
     NEW-OLD atomic charge density approx. for the potential
     Check: negative starting charge=   -0.346911

     negative rho (up, down):  8.840E-02 0.000E+00

     total cpu time spent up to now is        1.4 secs

     per-process dynamical memory:    20.4 Mb

     Self-consistent Calculation

     iteration #  1     ecut=    30.00 Ry     beta=0.70
     Davidson diagonalization with overlap
     c_bands:  1 eigenvalues not converged
     ethr =  1.00E-06,  avg # of iterations = 20.0

     negative rho (up, down):  2.223E-02 0.000E+00

     total cpu time spent up to now is        1.5 secs

     total energy              =     -31.88951958 Ry
     Harris-Foulkes estimate   =     -31.87812618 Ry
     estimated scf accuracy    <       0.04764471 Ry

     iteration #  2     ecut=    30.00 Ry     beta=0.70
     Davidson diagonalization with overlap
     ethr =  5.96E-04,  avg # of iterations =  3.0

     negative rho (up, down):  1.961E-02 0.000E+00

     total cpu time spent up to now is        1.6 secs

     total energy              =     -31.93021389 Ry
     Harris-Foulkes estimate   =     -32.16865866 Ry
     estimated scf accuracy    <       1.32270775 Ry

     iteration #  3     ecut=    30.00 Ry     beta=0.70
     Davidson diagonalization with overlap
     ethr =  5.96E-04,  avg # of iterations =  2.0

     negative rho (up, down):  1.905E-02 0.000E+00

     total cpu time spent up to now is        1.6 secs

     total energy              =     -31.93005973 Ry
     Harris-Foulkes estimate   =     -31.94270169 Ry
     estimated scf accuracy    <       0.66601477 Ry

     iteration #  4     ecut=    30.00 Ry     beta=0.70
     Davidson diagonalization with overlap
     ethr =  5.96E-04,  avg # of iterations =  1.0

     negative rho (up, down):  2.136E-03 0.000E+00

     total cpu time spent up to now is        1.6 secs

     total energy              =     -31.92554425 Ry
     Harris-Foulkes estimate   =     -31.93217416 Ry
     estimated scf accuracy    <       0.26143104 Ry

     iteration #  5     ecut=    30.00 Ry     beta=0.70
     Davidson diagonalization with overlap
     ethr =  5.96E-04,  avg # of iterations =  3.0

     negative rho (up, down):  1.379E-03 0.000E+00

     total cpu time spent up to now is        1.7 secs

     total energy              =     -31.93938857 Ry
     Harris-Foulkes estimate   =     -31.96188826 Ry
     estimated scf accuracy    <       1.12290612 Ry

     iteration #  6     ecut=    30.00 Ry     beta=0.70
     Davidson diagonalization with overlap
     ethr =  5.96E-04,  avg # of iterations =  1.0

     negative rho (up, down):  3.995E-05 0.000E+00

     total cpu time spent up to now is        1.7 secs

     total energy              =     -31.93875805 Ry
     Harris-Foulkes estimate   =     -31.94655662 Ry
     estimated scf accuracy    <       0.11447913 Ry

     iteration #  7     ecut=    30.00 Ry     beta=0.70
     Davidson diagonalization with overlap
     ethr =  5.96E-04,  avg # of iterations =  1.0

     negative rho (up, down):  6.489E-06 0.000E+00

     total cpu time spent up to now is        1.7 secs

     total energy              =     -31.94565784 Ry
     Harris-Foulkes estimate   =     -31.94926288 Ry
     estimated scf accuracy    <       0.24157477 Ry

     iteration #  8     ecut=    30.00 Ry     beta=0.70
     Davidson diagonalization with overlap
     ethr =  5.96E-04,  avg # of iterations =  1.0

     negative rho (up, down):  1.819E-07 0.000E+00

     total cpu time spent up to now is        1.8 secs

     total energy              =     -31.94387973 Ry
     Harris-Foulkes estimate   =     -31.94641387 Ry
     estimated scf accuracy    <       0.07592899 Ry

     iteration #  9     ecut=    30.00 Ry     beta=0.70
     Davidson diagonalization with overlap
     ethr =  5.96E-04,  avg # of iterations =  1.0

     total cpu time spent up to now is        1.8 secs

     total energy              =     -31.94519196 Ry
     Harris-Foulkes estimate   =     -31.94532615 Ry
     estimated scf accuracy    <       0.00239235 Ry

     iteration # 10     ecut=    30.00 Ry     beta=0.70
     Davidson diagonalization with overlap
     ethr =  2.99E-05,  avg # of iterations =  7.0

     total cpu time spent up to now is        1.8 secs

     total energy              =     -31.94523387 Ry
     Harris-Foulkes estimate   =     -31.94533235 Ry
     estimated scf accuracy    <       0.00278933 Ry

     iteration # 11     ecut=    30.00 Ry     beta=0.70
     Davidson diagonalization with overlap
     ethr =  2.99E-05,  avg # of iterations =  1.0

     total cpu time spent up to now is        1.9 secs

     total energy              =     -31.94529412 Ry
     Harris-Foulkes estimate   =     -31.94529702 Ry
     estimated scf accuracy    <       0.00024228 Ry

     iteration # 12     ecut=    30.00 Ry     beta=0.70
     Davidson diagonalization with overlap
     ethr =  3.03E-06,  avg # of iterations =  1.0

     total cpu time spent up to now is        1.9 secs

     total energy              =     -31.94529291 Ry
     Harris-Foulkes estimate   =     -31.94529483 Ry
     estimated scf accuracy    <       0.00006986 Ry

     iteration # 13     ecut=    30.00 Ry     beta=0.70
     Davidson diagonalization with overlap
     ethr =  8.73E-07,  avg # of iterations =  1.0

     total cpu time spent up to now is        1.9 secs

     total energy              =     -31.94529391 Ry
     Harris-Foulkes estimate   =     -31.94529389 Ry
     estimated scf accuracy    <       0.00000004 Ry

     iteration # 14     ecut=    30.00 Ry     beta=0.70
     Davidson diagonalization with overlap
     ethr =  4.57E-10,  avg # of iterations =  1.0

     total cpu time spent up to now is        2.0 secs

     total energy              =     -31.94529393 Ry
     Harris-Foulkes estimate   =     -31.94529391 Ry
     estimated scf accuracy    <       0.00000064 Ry

     iteration # 15     ecut=    30.00 Ry     beta=0.70
     Davidson diagonalization with overlap
     ethr =  4.57E-10,  avg # of iterations =  1.0

     total cpu time spent up to now is        2.0 secs

     total energy              =     -31.94529395 Ry
     Harris-Foulkes estimate   =     -31.94529394 Ry
     estimated scf accuracy    <       0.00000001 Ry

     iteration # 16     ecut=    30.00 Ry     beta=0.70
     Davidson diagonalization with overlap
     ethr =  1.64E-10,  avg # of iterations =  1.0

     total cpu time spent up to now is        2.0 secs

     End of self-consistent calculation

          k = 0.0000 0.0000 0.0000 ( 22119 PWs)   bands (ev):

   -24.6590 -10.5716  -7.0970  -7.0788  -6.9238  -0.8050   0.2018   0.8246

     the Fermi energy is    -6.9091 ev

!    total energy              =     -31.94529395 Ry
     Harris-Foulkes estimate   =     -31.94529395 Ry
     estimated scf accuracy    <          3.0E-10 Ry

     convergence has been achieved in  16 iterations

     Forces acting on atoms (Ry/au):

     atom    1 type  1   force =    -0.00043952    0.00000370   -0.00064286
     atom    2 type  1   force =    -0.00969574   -0.03152961   -0.03993263
     atom    3 type  2   force =     0.01013526    0.03152591    0.04057548

     Total force =     0.073664     Total SCF correction =     0.000013

     Entering Dynamics:    iteration =     2
                           time      =   0.0097 pico-seconds


     Andersen thermostat:    3 collisions

ATOMIC_POSITIONS (bohr)
H       10.413743847  18.039256898   2.911830103
H        5.216583263  -0.635647453  -1.836123914
O        4.883385343  18.589580507  16.858689177


     kinetic energy (Ekin) =     0.01042383 Ry
     temperature           =   548.59663776 K 
     Ekin + Etot (const)   =   -31.93487012 Ry
     Message from routine dynamics:
     Total linear momentum <> 0

     Linear momentum :   -0.0482643422    0.4839037204    0.0463385468

     Writing output data file pwscf.save

     first order wave-functions extrapolation
     Check: negative starting charge=   -0.346911
     first order charge density extrapolation
     Check: negative starting charge=   -0.349069

     negative rho (up, down):  1.503E-01 0.000E+00

     total cpu time spent up to now is        2.3 secs

     per-process dynamical memory:    20.4 Mb

     Self-consistent Calculation

     iteration #  1     ecut=    30.00 Ry     beta=0.70
     Davidson diagonalization with overlap
     ethr =  1.00E-06,  avg # of iterations = 18.0

     negative rho (up, down):  3.704E-02 0.000E+00

     total cpu time spent up to now is        2.5 secs

     total energy              =     -31.04788150 Ry
     Harris-Foulkes estimate   =     -31.82003941 Ry
     estimated scf accuracy    <       1.04947254 Ry

     iteration #  2     ecut=    30.00 Ry     beta=0.70
     Davidson diagonalization with overlap
     ethr =  1.00E-02,  avg # of iterations =  3.0

     negative rho (up, down):  1.639E-03 0.000E+00

     total cpu time spent up to now is        2.5 secs

     total energy              =     -31.03470611 Ry
     Harris-Foulkes estimate   =     -33.96984946 Ry
     estimated scf accuracy    <      10.66715832 Ry

     iteration #  3     ecut=    30.00 Ry     beta=0.70
     Davidson diagonalization with overlap
     ethr =  1.00E-02,  avg # of iterations =  3.0

     negative rho (up, down):  2.782E-03 0.000E+00

     total cpu time spent up to now is        2.6 secs

     total energy              =     -31.90674419 Ry
     Harris-Foulkes estimate   =     -32.04975052 Ry
     estimated scf accuracy    <       1.81088977 Ry

     iteration #  4     ecut=    30.00 Ry     beta=0.70
     Davidson diagonalization with overlap
     ethr =  1.00E-02,  avg # of iterations =  5.0

     negative rho (up, down):  3.952E-03 0.000E+00

     total cpu time spent up to now is        2.6 secs

     total energy              =     -31.87765182 Ry
     Harris-Foulkes estimate   =     -31.95111473 Ry
     estimated scf accuracy    <       1.49167375 Ry

     iteration #  5     ecut=    30.00 Ry     beta=0.70
     Davidson diagonalization with overlap
     ethr =  1.00E-02,  avg # of iterations =  1.0

     negative rho (up, down):  1.245E-01 0.000E+00

     total cpu time spent up to now is        2.7 secs

     total energy              =     -31.49395583 Ry
     Harris-Foulkes estimate   =     -31.88163046 Ry
     estimated scf accuracy    <       1.32027654 Ry

     iteration #  6     ecut=    30.00 Ry     beta=0.70
     Davidson diagonalization with overlap
     ethr =  1.00E-02,  avg # of iterations =  1.0

     negative rho (up, down):  6.465E-02 0.000E+00

     total cpu time spent up to now is        2.7 secs

     total energy              =     -31.97111581 Ry
     Harris-Foulkes estimate   =     -32.02886386 Ry
     estimated scf accuracy    <       1.19866337 Ry

     iteration #  7     ecut=    30.00 Ry     beta=0.70
     Davidson diagonalization with overlap
     ethr =  1.00E-02,  avg # of iterations =  1.0

     negative rho (up, down):  4.004E-07 0.000E+00

     total cpu time spent up to now is        2.7 secs

     total energy              =     -31.76750107 Ry
     Harris-Foulkes estimate   =     -31.97164107 Ry
     estimated scf accuracy    <       1.08390454 Ry

     iteration #  8     ecut=    30.00 Ry     beta=0.70
     Davidson diagonalization with overlap
     ethr =  1.00E-02,  avg # of iterations =  1.0

     negative rho (up, down):  3.966E-03 0.000E+00

     total cpu time spent up to now is        2.8 secs

     total energy              =     -31.72741773 Ry
     Harris-Foulkes estimate   =     -31.81760375 Ry
     estimated scf accuracy    <       0.79617557 Ry

     iteration #  9     ecut=    30.00 Ry     beta=0.70
     Davidson diagonalization with overlap
     ethr =  9.95E-03,  avg # of iterations =  1.0

     negative rho (up, down):  4.991E-05 0.000E+00

     total cpu time spent up to now is        2.8 secs

     total energy              =     -31.85443227 Ry
     Harris-Foulkes estimate   =     -31.86785207 Ry
     estimated scf accuracy    <       0.90444581 Ry

     iteration # 10     ecut=    30.00 Ry     beta=0.70
     Davidson diagonalization with overlap
     ethr =  9.95E-03,  avg # of iterations =  1.0

     total cpu time spent up to now is        2.8 secs

     total energy              =     -31.80066780 Ry
     Harris-Foulkes estimate   =     -31.85446374 Ry
     estimated scf accuracy    <       0.88599119 Ry

     iteration # 11     ecut=    30.00 Ry     beta=0.70
     Davidson diagonalization with overlap
     ethr =  9.95E-03,  avg # of iterations =  1.0

     negative rho (up, down):  5.330E-07 0.000E+00

     total cpu time spent up to now is        2.8 secs

     total energy              =     -31.82302913 Ry
     Harris-Foulkes estimate   =     -31.80858437 Ry
     estimated scf accuracy    <       0.10359014 Ry

     iteration # 12     ecut=    30.00 Ry     beta=0.70
     Davidson diagonalization with overlap
     ethr =  1.29E-03,  avg # of iterations =  1.0

     negative rho (up, down):  7.195E-08 0.000E+00

     total cpu time spent up to now is        2.9 secs

     total energy              =     -31.78506344 Ry
     Harris-Foulkes estimate   =     -31.84004276 Ry
     estimated scf accuracy    <       0.85088695 Ry

     iteration # 13     ecut=    30.00 Ry     beta=0.70
     Davidson diagonalization with overlap
     ethr =  1.29E-03,  avg # of iterations =  1.0

     negative rho (up, down):  7.415E-07 0.000E+00

     total cpu time spent up to now is        2.9 secs

     total energy              =     -31.80665317 Ry
     Harris-Foulkes estimate   =     -31.80868168 Ry
     estimated scf accuracy    <       0.11442008 Ry

     iteration # 14     ecut=    30.00 Ry     beta=0.70
     Davidson diagonalization with overlap
     ethr =  1.29E-03,  avg # of iterations =  1.0

     total cpu time spent up to now is        2.9 secs

     total energy              =     -31.80644722 Ry
     Harris-Foulkes estimate   =     -31.80734092 Ry
     estimated scf accuracy    <       0.01208847 Ry

     iteration # 15     ecut=    30.00 Ry     beta=0.70
     Davidson diagonalization with overlap
     ethr =  1.51E-04,  avg # of iterations =  1.0

     negative rho (up, down):  4.209E-08 0.000E+00

     total cpu time spent up to now is        3.0 secs

     total energy              =     -31.80506161 Ry
     Harris-Foulkes estimate   =     -31.80768778 Ry
     estimated scf accuracy    <       0.03560965 Ry

     iteration # 16     ecut=    30.00 Ry     beta=0.70
     Davidson diagonalization with overlap
     ethr =  1.51E-04,  avg # of iterations =  1.0

     negative rho (up, down):  2.284E-07 0.000E+00

     total cpu time spent up to now is        3.0 secs

     total energy              =     -31.80672103 Ry
     Harris-Foulkes estimate   =     -31.80862982 Ry
     estimated scf accuracy    <       0.11284196 Ry

     iteration # 17     ecut=    30.00 Ry     beta=0.70
     Davidson diagonalization with overlap
     ethr =  1.51E-04,  avg # of iterations =  1.0

     negative rho (up, down):  7.770E-08 0.000E+00

     total cpu time spent up to now is        3.0 secs

     total energy              =     -31.80682751 Ry
     Harris-Foulkes estimate   =     -31.80734447 Ry
     estimated scf accuracy    <       0.01343150 Ry

     iteration # 18     ecut=    30.00 Ry     beta=0.70
     Davidson diagonalization with overlap
     ethr =  1.51E-04,  avg # of iterations =  1.0

     negative rho (up, down):  3.880E-08 0.000E+00

     total cpu time spent up to now is        3.1 secs

     total energy              =     -31.80697348 Ry
     Harris-Foulkes estimate   =     -31.80721017 Ry
     estimated scf accuracy    <       0.00287564 Ry

     iteration # 19     ecut=    30.00 Ry     beta=0.70
     Davidson diagonalization with overlap
     ethr =  3.59E-05,  avg # of iterations =  5.0

     total cpu time spent up to now is        3.1 secs

     total energy              =     -31.80703177 Ry
     Harris-Foulkes estimate   =     -31.80735089 Ry
     estimated scf accuracy    <       0.01325102 Ry

     iteration # 20     ecut=    30.00 Ry     beta=0.70
     Davidson diagonalization with overlap
     ethr =  3.59E-05,  avg # of iterations =  1.0

     total cpu time spent up to now is        3.1 secs

     total energy              =     -31.80717342 Ry
     Harris-Foulkes estimate   =     -31.80717419 Ry
     estimated scf accuracy    <       0.00012701 Ry

     iteration # 21     ecut=    30.00 Ry     beta=0.70
     Davidson diagonalization with overlap
     c_bands:  1 eigenvalues not converged
     ethr =  1.59E-06,  avg # of iterations = 20.0

     total cpu time spent up to now is        3.2 secs

     total energy              =     -31.80717143 Ry
     Harris-Foulkes estimate   =     -31.80717355 Ry
     estimated scf accuracy    <       0.00008142 Ry

     iteration # 22     ecut=    30.00 Ry     beta=0.70
     Davidson diagonalization with overlap
     ethr =  1.02E-06,  avg # of iterations =  1.0

     total cpu time spent up to now is        3.2 secs

     total energy              =     -31.80717246 Ry
     Harris-Foulkes estimate   =     -31.80717247 Ry
     estimated scf accuracy    <       0.00000005 Ry

     iteration # 23     ecut=    30.00 Ry     beta=0.70
     Davidson diagonalization with overlap
     ethr =  6.67E-10,  avg # of iterations =  2.0

     total cpu time spent up to now is        3.3 secs

     total energy              =     -31.80717245 Ry
     Harris-Foulkes estimate   =     -31.80717246 Ry
     estimated scf accuracy    <       0.00000003 Ry

     iteration # 24     ecut=    30.00 Ry     beta=0.70
     Davidson diagonalization with overlap
     ethr =  3.77E-10,  avg # of iterations =  1.0

     total cpu time spent up to now is        3.3 secs

     End of self-consistent calculation

          k = 0.0000 0.0000 0.0000 ( 22119 PWs)   bands (ev):

   -26.4853 -11.1870  -7.2524  -7.2410  -7.0868  -0.4224   0.3964   0.7850

     the Fermi energy is    -7.0693 ev

!    total energy              =     -31.80717246 Ry
     Harris-Foulkes estimate   =     -31.80717245 Ry
     estimated scf accuracy    <          4.5E-11 Ry

     convergence has been achieved in  24 iterations

     Forces acting on atoms (Ry/au):

     atom    1 type  1   force =    -0.00008094   -0.00003053   -0.00002728
     atom    2 type  1   force =     0.15932102    0.37191505    0.62619814
     atom    3 type  2   force =    -0.15924008   -0.37188452   -0.62617087

     Total force =     1.054312     Total SCF correction =     0.000015

     Entering Dynamics:    iteration =     3
                           time      =   0.0145 pico-seconds


     Andersen thermostat:    3 collisions

ATOMIC_POSITIONS (bohr)
H       10.634477184  17.756206093   2.999981491
H        7.090639580   3.477011077   5.305196980
O        4.751151746  18.347836519  16.402328740


     kinetic energy (Ekin) =     0.95789858 Ry
     temperature           = 50413.34769967 K 
     Ekin + Etot (const)   =   -30.84927388 Ry
     Message from routine dynamics:
     Total linear momentum <> 0

     Linear momentum :    0.3047675616   -0.3500624036   -0.1369358232

     Writing output data file pwscf.save

     second order wave-functions extrapolation
     Check: negative starting charge=   -0.349069
     second order charge density extrapolation
     Check: negative starting charge=   -0.347622

     negative rho (up, down):  2.381E+00 0.000E+00

     total cpu time spent up to now is        3.7 secs

     per-process dynamical memory:    20.4 Mb

     Self-consistent Calculation

     iteration #  1     ecut=    30.00 Ry     beta=0.70
     Davidson diagonalization with overlap
     ethr =  1.00E-06,  avg # of iterations = 11.0

     negative rho (up, down):  4.137E-01 0.000E+00

     total cpu time spent up to now is        3.8 secs

     total energy              =     123.08545278 Ry
     Harris-Foulkes estimate   =   -1658.57088746 Ry
     estimated scf accuracy    <      42.97227764 Ry

     iteration #  2     ecut=    30.00 Ry     beta=0.70
     Davidson diagonalization with overlap
     ethr =  1.00E-02,  avg # of iterations = 12.0

     negative rho (up, down):  1.438E-01 0.000E+00

     total cpu time spent up to now is        3.8 secs

     total energy              =      22.34473863 Ry
     Harris-Foulkes estimate   =    -200.52893440 Ry
     estimated scf accuracy    <      24.37317571 Ry

     iteration #  3     ecut=    30.00 Ry     beta=0.70
     Davidson diagonalization with overlap
     ethr =  1.00E-02,  avg # of iterations =  6.0

     negative rho (up, down):  1.062E-01 0.000E+00

     total cpu time spent up to now is        3.9 secs

     total energy              =      30.91709176 Ry
     Harris-Foulkes estimate   =    -238.49995735 Ry
     estimated scf accuracy    <      17.75747606 Ry

     iteration #  4     ecut=    30.00 Ry     beta=0.70
     Davidson diagonalization with overlap
     ethr =  1.00E-02,  avg # of iterations =  6.0

     negative rho (up, down):  1.061E-01 0.000E+00

     total cpu time spent up to now is        3.9 secs

     total energy              =     -36.13119175 Ry
     Harris-Foulkes estimate   =     -42.41091574 Ry
     estimated scf accuracy    <      16.98928150 Ry

     iteration #  5     ecut=    30.00 Ry     beta=0.70
     Davidson diagonalization with overlap
     ethr =  1.00E-02,  avg # of iterations =  3.0

     negative rho (up, down):  1.057E-01 0.000E+00

     total cpu time spent up to now is        3.9 secs

     total energy              =     -35.38588118 Ry
     Harris-Foulkes estimate   =     -36.72085332 Ry
     estimated scf accuracy    <      12.21311188 Ry

     iteration #  6     ecut=    30.00 Ry     beta=0.70
     Davidson diagonalization with overlap
     ethr =  1.00E-02,  avg # of iterations =  1.0

     negative rho (up, down):  1.578E-01 0.000E+00

     total cpu time spent up to now is        4.0 secs

     total energy              =     -58.15533382 Ry
     Harris-Foulkes estimate   =     -35.45169910 Ry
     estimated scf accuracy    <       6.95219698 Ry

     iteration #  7     ecut=    30.00 Ry     beta=0.70
     Davidson diagonalization with overlap
     ethr =  1.00E-02,  avg # of iterations =  5.0

     negative rho (up, down):  1.290E-01 0.000E+00

     total cpu time spent up to now is        4.0 secs

     total energy              =     -33.63775196 Ry
     Harris-Foulkes estimate   =   -3750.53740651 Ry
     estimated scf accuracy    <      32.16160130 Ry

     iteration #  8     ecut=    30.00 Ry     beta=0.70
     Davidson diagonalization with overlap
     ethr =  1.00E-02,  avg # of iterations =  5.0

     negative rho (up, down):  9.615E-02 0.000E+00

     total cpu time spent up to now is        4.1 secs

     total energy              =     -50.32191195 Ry
     Harris-Foulkes estimate   =    -270.36937524 Ry
     estimated scf accuracy    <      43.90359407 Ry

     iteration #  9     ecut=    30.00 Ry     beta=0.70
     Davidson diagonalization with overlap
     ethr =  1.00E-02,  avg # of iterations =  8.0

     negative rho (up, down):  8.560E-02 0.000E+00

     total cpu time spent up to now is        4.1 secs

     total energy              =    -128.94612032 Ry
     Harris-Foulkes estimate   =    -445.85429129 Ry
     estimated scf accuracy    <      13.81466802 Ry

     iteration # 10     ecut=    30.00 Ry     beta=0.70
     Davidson diagonalization with overlap
     ethr =  1.00E-02,  avg # of iterations =  5.0

     negative rho (up, down):  9.885E-02 0.000E+00

     total cpu time spent up to now is        4.2 secs

     total energy              =     102.44790182 Ry
     Harris-Foulkes estimate   =   -1840.23756912 Ry
     estimated scf accuracy    <      42.93550641 Ry

     iteration # 11     ecut=    30.00 Ry     beta=0.70
     Davidson diagonalization with overlap
     ethr =  1.00E-02,  avg # of iterations =  6.0

     negative rho (up, down):  8.151E-02 0.000E+00

     total cpu time spent up to now is        4.2 secs

     total energy              =      31.85537039 Ry
     Harris-Foulkes estimate   =    -169.00705256 Ry
     estimated scf accuracy    <      18.52455217 Ry

     iteration # 12     ecut=    30.00 Ry     beta=0.70
     Davidson diagonalization with overlap
     ethr =  1.00E-02,  avg # of iterations =  6.0

     negative rho (up, down):  8.352E-02 0.000E+00

     total cpu time spent up to now is        4.3 secs

     total energy              =      85.38114461 Ry
     Harris-Foulkes estimate   =    -291.76190973 Ry
     estimated scf accuracy    <      39.16124711 Ry

     iteration # 13     ecut=    30.00 Ry     beta=0.70
     Davidson diagonalization with overlap
     ethr =  1.00E-02,  avg # of iterations =  5.0

     negative rho (up, down):  1.473E-01 0.000E+00

     total cpu time spent up to now is        4.3 secs

     total energy              =     -20.66465292 Ry
     Harris-Foulkes estimate   =    -212.13987043 Ry
     estimated scf accuracy    <       9.67706788 Ry

     iteration # 14     ecut=    30.00 Ry     beta=0.70
     Davidson diagonalization with overlap
     ethr =  1.00E-02,  avg # of iterations =  8.0

     negative rho (up, down):  1.629E-01 0.000E+00

     total cpu time spent up to now is        4.4 secs

     total energy              =     -90.07796480 Ry
     Harris-Foulkes estimate   =    -350.12132895 Ry
     estimated scf accuracy    <      29.82970013 Ry

     iteration # 15     ecut=    30.00 Ry     beta=0.70
     Davidson diagonalization with overlap
     ethr =  1.00E-02,  avg # of iterations =  6.0

     negative rho (up, down):  3.747E-01 0.000E+00

     total cpu time spent up to now is        4.5 secs

     total energy              =    -589.86458453 Ry
     Harris-Foulkes estimate   =   -7274.36495303 Ry
     estimated scf accuracy    <      27.97572826 Ry

     iteration # 16     ecut=    30.00 Ry     beta=0.70
     Davidson diagonalization with overlap
     ethr =  1.00E-02,  avg # of iterations =  6.0

     negative rho (up, down):  3.889E-01 0.000E+00

     total cpu time spent up to now is        4.5 secs

     total energy              =      92.53838810 Ry
     Harris-Foulkes estimate   =   -1738.32281730 Ry
     estimated scf accuracy    <      26.37111899 Ry

     iteration # 17     ecut=    30.00 Ry     beta=0.70
     Davidson diagonalization with overlap
     ethr =  1.00E-02,  avg # of iterations =  6.0

     negative rho (up, down):  4.057E-01 0.000E+00

     total cpu time spent up to now is        4.6 secs

     total energy              =       9.40538098 Ry
     Harris-Foulkes estimate   =    -211.54275965 Ry
     estimated scf accuracy    <      38.50970945 Ry

     iteration # 18     ecut=    30.00 Ry     beta=0.70
     Davidson diagonalization with overlap
     ethr =  1.00E-02,  avg # of iterations =  6.0

     negative rho (up, down):  4.397E-01 0.000E+00

     total cpu time spent up to now is        4.6 secs

     total energy              =      31.20375178 Ry
     Harris-Foulkes estimate   =    -490.75263557 Ry
     estimated scf accuracy    <      27.74598112 Ry

     iteration # 19     ecut=    30.00 Ry     beta=0.70
     Davidson diagonalization with overlap
     ethr =  1.00E-02,  avg # of iterations =  7.0

     negative rho (up, down):  5.697E-01 0.000E+00

     total cpu time spent up to now is        4.7 secs

     total energy              =      12.66674749 Ry
     Harris-Foulkes estimate   =    -942.15317137 Ry
     estimated scf accuracy    <      23.49676031 Ry

     iteration # 20     ecut=    30.00 Ry     beta=0.70
     Davidson diagonalization with overlap
     ethr =  1.00E-02,  avg # of iterations =  7.0

     negative rho (up, down):  6.315E-01 0.000E+00

     total cpu time spent up to now is        4.8 secs

     total energy              =    -124.72986837 Ry
     Harris-Foulkes estimate   =    -737.29754915 Ry
     estimated scf accuracy    <      26.65726515 Ry

     iteration # 21     ecut=    30.00 Ry     beta=0.70
     Davidson diagonalization with overlap
     ethr =  1.00E-02,  avg # of iterations =  8.0

     negative rho (up, down):  4.693E-01 0.000E+00

     total cpu time spent up to now is        4.8 secs

     total energy              =   -4165.49207737 Ry
     Harris-Foulkes estimate   =    -506.17438169 Ry
     estimated scf accuracy    <      20.87947739 Ry

     iteration # 22     ecut=    30.00 Ry     beta=0.70
     Davidson diagonalization with overlap
     ethr =  1.00E-02,  avg # of iterations =  7.0

     negative rho (up, down):  4.667E-01 0.000E+00

     total cpu time spent up to now is        4.9 secs

     total energy              =      41.15206347 Ry
     Harris-Foulkes estimate   =  -12105.51139461 Ry
     estimated scf accuracy    <      30.79849535 Ry

     iteration # 23     ecut=    30.00 Ry     beta=0.70
     Davidson diagonalization with overlap
     ethr =  1.00E-02,  avg # of iterations =  7.0

     negative rho (up, down):  3.257E-02 0.000E+00

     total cpu time spent up to now is        4.9 secs

     total energy              =      68.60373912 Ry
     Harris-Foulkes estimate   =    -537.31445218 Ry
     estimated scf accuracy    <      19.99112754 Ry

     iteration # 24     ecut=    30.00 Ry     beta=0.70
     Davidson diagonalization with overlap
     ethr =  1.00E-02,  avg # of iterations = 11.0

     negative rho (up, down):  1.308E-02 0.000E+00

     total cpu time spent up to now is        5.0 secs

     total energy              =      -6.65768806 Ry
     Harris-Foulkes estimate   =    -123.10143860 Ry
     estimated scf accuracy    <      20.99290261 Ry

     iteration # 25     ecut=    30.00 Ry     beta=0.70
     Davidson diagonalization with overlap
     ethr =  1.00E-02,  avg # of iterations =  5.0

     negative rho (up, down):  2.943E-02 0.000E+00

     total cpu time spent up to now is        5.0 secs

     total energy              =     -30.04153749 Ry
     Harris-Foulkes estimate   =     -66.75005081 Ry
     estimated scf accuracy    <      20.66212301 Ry

     iteration # 26     ecut=    30.00 Ry     beta=0.70
     Davidson diagonalization with overlap
     ethr =  1.00E-02,  avg # of iterations =  6.0

     negative rho (up, down):  5.104E-02 0.000E+00

     total cpu time spent up to now is        5.1 secs

     total energy              =      48.78106598 Ry
     Harris-Foulkes estimate   =    -395.01880638 Ry
     estimated scf accuracy    <      20.21008816 Ry

     iteration # 27     ecut=    30.00 Ry     beta=0.70
     Davidson diagonalization with overlap
     ethr =  1.00E-02,  avg # of iterations =  5.0

     negative rho (up, down):  8.150E-02 0.000E+00

     total cpu time spent up to now is        5.1 secs

     total energy              =      33.29853570 Ry
     Harris-Foulkes estimate   =    -225.59703800 Ry
     estimated scf accuracy    <      20.79021740 Ry

     iteration # 28     ecut=    30.00 Ry     beta=0.70
     Davidson diagonalization with overlap
     ethr =  1.00E-02,  avg # of iterations =  6.0

     negative rho (up, down):  9.578E-02 0.000E+00

     total cpu time spent up to now is        5.2 secs

     total energy              =    -312.38668255 Ry
     Harris-Foulkes estimate   =    -480.50256567 Ry
     estimated scf accuracy    <      25.50075797 Ry

     iteration # 29     ecut=    30.00 Ry     beta=0.70
     Davidson diagonalization with overlap
     ethr =  1.00E-02,  avg # of iterations =  6.0

     negative rho (up, down):  4.776E-02 0.000E+00

     total cpu time spent up to now is        5.2 secs

     total energy              =      65.64229024 Ry
     Harris-Foulkes estimate   =    -718.67738856 Ry
     estimated scf accuracy    <      14.91328289 Ry

     iteration # 30     ecut=    30.00 Ry     beta=0.70
     Davidson diagonalization with overlap
     ethr =  1.00E-02,  avg # of iterations =  7.0

     negative rho (up, down):  1.602E-02 0.000E+00

     total cpu time spent up to now is        5.3 secs

     total energy              =      17.79588082 Ry
     Harris-Foulkes estimate   =    -253.38402383 Ry
     estimated scf accuracy    <      12.50332473 Ry

     iteration # 31     ecut=    30.00 Ry     beta=0.70
     Davidson diagonalization with overlap
     ethr =  1.00E-02,  avg # of iterations =  4.0

     negative rho (up, down):  2.361E-03 0.000E+00

     total cpu time spent up to now is        5.3 secs

     total energy              =      30.22022512 Ry
     Harris-Foulkes estimate   =    -142.41365136 Ry
     estimated scf accuracy    <       9.09628871 Ry

     iteration # 32     ecut=    30.00 Ry     beta=0.70
     Davidson diagonalization with overlap
     ethr =  1.00E-02,  avg # of iterations =  4.0

     negative rho (up, down):  2.326E-02 0.000E+00

     total cpu time spent up to now is        5.4 secs

     total energy              =      57.63831310 Ry
     Harris-Foulkes estimate   =     -42.85938762 Ry
     estimated scf accuracy    <      14.63905872 Ry

     iteration # 33     ecut=    30.00 Ry     beta=0.70
     Davidson diagonalization with overlap
     ethr =  1.00E-02,  avg # of iterations =  3.0

     negative rho (up, down):  3.570E-03 0.000E+00

     total cpu time spent up to now is        5.4 secs

     total energy              =     -35.48663257 Ry
     Harris-Foulkes estimate   =     -37.59791908 Ry
     estimated scf accuracy    <      11.83409807 Ry

     iteration # 34     ecut=    30.00 Ry     beta=0.70
     Davidson diagonalization with overlap
     ethr =  1.00E-02,  avg # of iterations =  4.0

     negative rho (up, down):  9.491E-04 0.000E+00

     total cpu time spent up to now is        5.5 secs

     total energy              =      -3.28840578 Ry
     Harris-Foulkes estimate   =     -74.98064289 Ry
     estimated scf accuracy    <      10.41448599 Ry

     iteration # 35     ecut=    30.00 Ry     beta=0.70
     Davidson diagonalization with overlap
     ethr =  1.00E-02,  avg # of iterations =  4.0

     negative rho (up, down):  4.680E-02 0.000E+00

     total cpu time spent up to now is        5.5 secs

     total energy              =     -35.67151966 Ry
     Harris-Foulkes estimate   =     -35.83182862 Ry
     estimated scf accuracy    <       8.28185007 Ry

     iteration # 36     ecut=    30.00 Ry     beta=0.70
     Davidson diagonalization with overlap
     ethr =  1.00E-02,  avg # of iterations =  3.0

     negative rho (up, down):  3.576E-01 0.000E+00

     total cpu time spent up to now is        5.5 secs

     total energy              =     -47.29052636 Ry
     Harris-Foulkes estimate   =     -37.07549801 Ry
     estimated scf accuracy    <       7.77852939 Ry

     iteration # 37     ecut=    30.00 Ry     beta=0.70
     Davidson diagonalization with overlap
     ethr =  1.00E-02,  avg # of iterations =  7.0

     negative rho (up, down):  1.221E-01 0.000E+00

     total cpu time spent up to now is        5.6 secs

     total energy              =      22.15244089 Ry
     Harris-Foulkes estimate   =   -1798.99865636 Ry
     estimated scf accuracy    <      33.30367059 Ry

     iteration # 38     ecut=    30.00 Ry     beta=0.70
     Davidson diagonalization with overlap
     ethr =  1.00E-02,  avg # of iterations =  7.0

     negative rho (up, down):  1.190E-01 0.000E+00

     total cpu time spent up to now is        5.7 secs

     total energy              =      10.80886081 Ry
     Harris-Foulkes estimate   =    -852.57499545 Ry
     estimated scf accuracy    <      44.01757548 Ry

     iteration # 39     ecut=    30.00 Ry     beta=0.70
     Davidson diagonalization with overlap
     ethr =  1.00E-02,  avg # of iterations = 10.0

     negative rho (up, down):  2.794E-01 0.000E+00

     total cpu time spent up to now is        5.7 secs

     total energy              =     -46.75915250 Ry
     Harris-Foulkes estimate   =    -105.43989873 Ry
     estimated scf accuracy    <      15.72328651 Ry

     iteration # 40     ecut=    30.00 Ry     beta=0.70
     Davidson diagonalization with overlap
     ethr =  1.00E-02,  avg # of iterations =  4.0

     negative rho (up, down):  6.197E-01 0.000E+00

     total cpu time spent up to now is        5.8 secs

     total energy              =      85.03439731 Ry
     Harris-Foulkes estimate   =    -498.94134439 Ry
     estimated scf accuracy    <      31.29453347 Ry

     iteration # 41     ecut=    30.00 Ry     beta=0.70
     Davidson diagonalization with overlap
     ethr =  1.00E-02,  avg # of iterations =  9.0

     negative rho (up, down):  2.573E-01 0.000E+00

     total cpu time spent up to now is        5.8 secs

     total energy              =      62.20097541 Ry
     Harris-Foulkes estimate   =    -205.30103631 Ry
     estimated scf accuracy    <      38.05829395 Ry

     iteration # 42     ecut=    30.00 Ry     beta=0.70
     Davidson diagonalization with overlap
     ethr =  1.00E-02,  avg # of iterations = 10.0

     negative rho (up, down):  2.800E-01 0.000E+00

     total cpu time spent up to now is        5.9 secs

     total energy              =      57.54921022 Ry
     Harris-Foulkes estimate   =    -309.85280170 Ry
     estimated scf accuracy    <      31.30823536 Ry

     iteration # 43     ecut=    30.00 Ry     beta=0.70
     Davidson diagonalization with overlap
     ethr =  1.00E-02,  avg # of iterations =  8.0

     negative rho (up, down):  4.639E-01 0.000E+00

     total cpu time spent up to now is        6.0 secs

     total energy              =    -806.30260349 Ry
     Harris-Foulkes estimate   =    -293.56401815 Ry
     estimated scf accuracy    <      39.21487427 Ry

     iteration # 44     ecut=    30.00 Ry     beta=0.70
     Davidson diagonalization with overlap
     ethr =  1.00E-02,  avg # of iterations =  6.0

     negative rho (up, down):  6.666E-01 0.000E+00

     total cpu time spent up to now is        6.0 secs

     total energy              =    -796.75603860 Ry
     Harris-Foulkes estimate   =   -4473.54829240 Ry
     estimated scf accuracy    <      46.33580477 Ry

     iteration # 45     ecut=    30.00 Ry     beta=0.70
     Davidson diagonalization with overlap
     ethr =  1.00E-02,  avg # of iterations =  8.0

     negative rho (up, down):  9.884E-01 0.000E+00

     total cpu time spent up to now is        6.1 secs

     total energy              =     -68.35193325 Ry
     Harris-Foulkes estimate   =   -3233.06261343 Ry
     estimated scf accuracy    <      31.02788514 Ry

     iteration # 46     ecut=    30.00 Ry     beta=0.70
     Davidson diagonalization with overlap
     ethr =  1.00E-02,  avg # of iterations =  8.0

     negative rho (up, down):  9.597E-01 0.000E+00

     total cpu time spent up to now is        6.1 secs

     total energy              =      58.09421340 Ry
     Harris-Foulkes estimate   =    -580.90755888 Ry
     estimated scf accuracy    <      31.04579768 Ry

     iteration # 47     ecut=    30.00 Ry     beta=0.70
     Davidson diagonalization with overlap
     ethr =  1.00E-02,  avg # of iterations =  7.0

     negative rho (up, down):  3.961E-01 0.000E+00

     total cpu time spent up to now is        6.2 secs

     total energy              =      52.71717044 Ry
     Harris-Foulkes estimate   =    -553.77320714 Ry
     estimated scf accuracy    <      24.47333973 Ry

     iteration # 48     ecut=    30.00 Ry     beta=0.70
     Davidson diagonalization with overlap
     ethr =  1.00E-02,  avg # of iterations =  7.0

     negative rho (up, down):  3.972E-01 0.000E+00

     total cpu time spent up to now is        6.2 secs

     total energy              =      46.50930143 Ry
     Harris-Foulkes estimate   =    -127.96746687 Ry
     estimated scf accuracy    <      24.45621360 Ry

     iteration # 49     ecut=    30.00 Ry     beta=0.70
     Davidson diagonalization with overlap
     ethr =  1.00E-02,  avg # of iterations =  8.0

     negative rho (up, down):  5.973E-01 0.000E+00

     total cpu time spent up to now is        6.3 secs

     total energy              =      70.31745764 Ry
     Harris-Foulkes estimate   =    -288.31034038 Ry
     estimated scf accuracy    <      25.35753103 Ry

     iteration # 50     ecut=    30.00 Ry     beta=0.70
     Davidson diagonalization with overlap
     ethr =  1.00E-02,  avg # of iterations =  7.0

     negative rho (up, down):  6.724E-01 0.000E+00

     total cpu time spent up to now is        6.4 secs

     total energy              =      49.85073024 Ry
     Harris-Foulkes estimate   =    -634.35263427 Ry
     estimated scf accuracy    <      21.84996947 Ry

     iteration # 51     ecut=    30.00 Ry     beta=0.70
     Davidson diagonalization with overlap
     ethr =  1.00E-02,  avg # of iterations =  7.0

     negative rho (up, down):  4.556E-01 0.000E+00

     total cpu time spent up to now is        6.4 secs

     total energy              =   -1561.15582491 Ry
     Harris-Foulkes estimate   =   -1875.79296280 Ry
     estimated scf accuracy    <      28.60867589 Ry

     iteration # 52     ecut=    30.00 Ry     beta=0.70
     Davidson diagonalization with overlap
     ethr =  1.00E-02,  avg # of iterations =  6.0

     negative rho (up, down):  3.117E-01 0.000E+00

     total cpu time spent up to now is        6.5 secs

     total energy              =      97.65767020 Ry
     Harris-Foulkes estimate   =  -55308.31822639 Ry
     estimated scf accuracy    <      39.04420684 Ry

     iteration # 53     ecut=    30.00 Ry     beta=0.70
     Davidson diagonalization with overlap
     ethr =  1.00E-02,  avg # of iterations =  7.0

     negative rho (up, down):  4.578E-01 0.000E+00

     total cpu time spent up to now is        6.5 secs

     total energy              =    -797.69430440 Ry
     Harris-Foulkes estimate   =  -11296.58559918 Ry
     estimated scf accuracy    <      18.43966642 Ry

     iteration # 54     ecut=    30.00 Ry     beta=0.70
     Davidson diagonalization with overlap
     ethr =  1.00E-02,  avg # of iterations =  6.0

     negative rho (up, down):  3.347E-02 0.000E+00

     total cpu time spent up to now is        6.6 secs

     total energy              =     118.20985314 Ry
     Harris-Foulkes estimate   =   -8047.24162305 Ry
     estimated scf accuracy    <      24.06656483 Ry

     iteration # 55     ecut=    30.00 Ry     beta=0.70
     Davidson diagonalization with overlap
     ethr =  1.00E-02,  avg # of iterations =  8.0

     negative rho (up, down):  2.071E-01 0.000E+00

     total cpu time spent up to now is        6.6 secs

     total energy              =      14.00814163 Ry
     Harris-Foulkes estimate   =    -266.46829112 Ry
     estimated scf accuracy    <      25.73793927 Ry

     iteration # 56     ecut=    30.00 Ry     beta=0.70
     Davidson diagonalization with overlap
     ethr =  1.00E-02,  avg # of iterations =  7.0

     negative rho (up, down):  1.484E-01 0.000E+00

     total cpu time spent up to now is        6.7 secs

     total energy              =     -31.42942236 Ry
     Harris-Foulkes estimate   =    -138.34303248 Ry
     estimated scf accuracy    <      38.44347591 Ry

     iteration # 57     ecut=    30.00 Ry     beta=0.70
     Davidson diagonalization with overlap
     ethr =  1.00E-02,  avg # of iterations =  4.0

     negative rho (up, down):  9.995E-02 0.000E+00

     total cpu time spent up to now is        6.7 secs

     total energy              =   -2077.07062111 Ry
     Harris-Foulkes estimate   =    -747.50727052 Ry
     estimated scf accuracy    <      28.74313865 Ry

     iteration # 58     ecut=    30.00 Ry     beta=0.70
     Davidson diagonalization with overlap
     ethr =  1.00E-02,  avg # of iterations =  6.0

     negative rho (up, down):  6.551E-02 0.000E+00

     total cpu time spent up to now is        6.8 secs

     total energy              =      31.01176737 Ry
     Harris-Foulkes estimate   =   -5427.80194765 Ry
     estimated scf accuracy    <      24.29270895 Ry

     iteration # 59     ecut=    30.00 Ry     beta=0.70
     Davidson diagonalization with overlap
     ethr =  1.00E-02,  avg # of iterations =  5.0

     negative rho (up, down):  6.111E-02 0.000E+00

     total cpu time spent up to now is        6.8 secs

     total energy              =     -20.59007926 Ry
     Harris-Foulkes estimate   =     -70.41218301 Ry
     estimated scf accuracy    <      24.83701461 Ry

     iteration # 60     ecut=    30.00 Ry     beta=0.70
     Davidson diagonalization with overlap
     ethr =  1.00E-02,  avg # of iterations =  4.0

     negative rho (up, down):  1.086E-02 0.000E+00

     total cpu time spent up to now is        6.9 secs

     total energy              =      19.27200777 Ry
     Harris-Foulkes estimate   =    -119.06608178 Ry
     estimated scf accuracy    <      24.16315662 Ry

     iteration # 61     ecut=    30.00 Ry     beta=0.70
     Davidson diagonalization with overlap
     ethr =  1.00E-02,  avg # of iterations =  7.0

     negative rho (up, down):  9.600E-02 0.000E+00

     total cpu time spent up to now is        6.9 secs

     total energy              =     -50.32552660 Ry
     Harris-Foulkes estimate   =     -51.84435272 Ry
     estimated scf accuracy    <      35.34069954 Ry

     iteration # 62     ecut=    30.00 Ry     beta=0.70
     Davidson diagonalization with overlap
     ethr =  1.00E-02,  avg # of iterations =  5.0

     negative rho (up, down):  1.919E-01 0.000E+00

     total cpu time spent up to now is        7.0 secs

     total energy              =    -156.06806677 Ry
     Harris-Foulkes estimate   =     -58.48794321 Ry
     estimated scf accuracy    <      23.13847008 Ry

     iteration # 63     ecut=    30.00 Ry     beta=0.70
     Davidson diagonalization with overlap
     ethr =  1.00E-02,  avg # of iterations =  5.0

     negative rho (up, down):  2.982E-01 0.000E+00

     total cpu time spent up to now is        7.0 secs

     total energy              =      34.66655396 Ry
     Harris-Foulkes estimate   =    -267.92698119 Ry
     estimated scf accuracy    <      21.29850060 Ry

     iteration # 64     ecut=    30.00 Ry     beta=0.70
     Davidson diagonalization with overlap
     ethr =  1.00E-02,  avg # of iterations =  5.0

     negative rho (up, down):  2.450E-01 0.000E+00

     total cpu time spent up to now is        7.1 secs

     total energy              =     -11.69672822 Ry
     Harris-Foulkes estimate   =     -70.97974868 Ry
     estimated scf accuracy    <      22.43599904 Ry

     iteration # 65     ecut=    30.00 Ry     beta=0.70
     Davidson diagonalization with overlap
     ethr =  1.00E-02,  avg # of iterations =  6.0

     negative rho (up, down):  6.960E-02 0.000E+00

     total cpu time spent up to now is        7.1 secs

     total energy              =    -122.75354444 Ry
     Harris-Foulkes estimate   =    -181.53211512 Ry
     estimated scf accuracy    <      19.00247793 Ry

     iteration # 66     ecut=    30.00 Ry     beta=0.70
     Davidson diagonalization with overlap
     ethr =  1.00E-02,  avg # of iterations =  6.0

     negative rho (up, down):  1.271E-01 0.000E+00

     total cpu time spent up to now is        7.2 secs

     total energy              =   -1286.06966741 Ry
     Harris-Foulkes estimate   =   -3929.00054077 Ry
     estimated scf accuracy    <      21.02686761 Ry

     iteration # 67     ecut=    30.00 Ry     beta=0.70
     Davidson diagonalization with overlap
     ethr =  1.00E-02,  avg # of iterations =  7.0

     negative rho (up, down):  2.158E-02 0.000E+00

     total cpu time spent up to now is        7.2 secs

     total energy              =      40.66221531 Ry
     Harris-Foulkes estimate   =   -3050.70128729 Ry
     estimated scf accuracy    <      12.49086571 Ry

     iteration # 68     ecut=    30.00 Ry     beta=0.70
     Davidson diagonalization with overlap
     ethr =  1.00E-02,  avg # of iterations =  6.0

     negative rho (up, down):  5.814E-04 0.000E+00

     total cpu time spent up to now is        7.3 secs

     total energy              =      11.88685400 Ry
     Harris-Foulkes estimate   =     -59.32388536 Ry
     estimated scf accuracy    <       9.64720720 Ry

     iteration # 69     ecut=    30.00 Ry     beta=0.70
     Davidson diagonalization with overlap
     ethr =  1.00E-02,  avg # of iterations =  9.0

     negative rho (up, down):  1.433E-01 0.000E+00

     total cpu time spent up to now is        7.3 secs

     total energy              =     -38.12540766 Ry
     Harris-Foulkes estimate   =     -41.57362257 Ry
     estimated scf accuracy    <      19.91542945 Ry

     iteration # 70     ecut=    30.00 Ry     beta=0.70
     Davidson diagonalization with overlap
     ethr =  1.00E-02,  avg # of iterations = 14.0

     negative rho (up, down):  1.662E-05 0.000E+00

     total cpu time spent up to now is        7.4 secs

     total energy              =     100.88470935 Ry
     Harris-Foulkes estimate   =   -1139.11684845 Ry
     estimated scf accuracy    <      34.90127069 Ry

     iteration # 71     ecut=    30.00 Ry     beta=0.70
     Davidson diagonalization with overlap
     ethr =  1.00E-02,  avg # of iterations =  8.0

     negative rho (up, down):  2.797E-02 0.000E+00

     total cpu time spent up to now is        7.4 secs

     total energy              =     -37.81370485 Ry
     Harris-Foulkes estimate   =     -39.22611813 Ry
     estimated scf accuracy    <      15.82148910 Ry

     iteration # 72     ecut=    30.00 Ry     beta=0.70
     Davidson diagonalization with overlap
     ethr =  1.00E-02,  avg # of iterations =  5.0

     negative rho (up, down):  4.363E-04 0.000E+00

     total cpu time spent up to now is        7.5 secs

     total energy              =      37.48376446 Ry
     Harris-Foulkes estimate   =    -131.50481164 Ry
     estimated scf accuracy    <      15.80139886 Ry

     iteration # 73     ecut=    30.00 Ry     beta=0.70
     Davidson diagonalization with overlap
     ethr =  1.00E-02,  avg # of iterations =  7.0

     negative rho (up, down):  1.619E-04 0.000E+00

     total cpu time spent up to now is        7.5 secs

     total energy              =     -38.10997527 Ry
     Harris-Foulkes estimate   =     -37.92204414 Ry
     estimated scf accuracy    <      10.99383878 Ry

     iteration # 74     ecut=    30.00 Ry     beta=0.70
     Davidson diagonalization with overlap
     ethr =  1.00E-02,  avg # of iterations =  1.0

     negative rho (up, down):  2.104E-02 0.000E+00

     total cpu time spent up to now is        7.5 secs

     total energy              =     -38.12367670 Ry
     Harris-Foulkes estimate   =     -38.12461798 Ry
     estimated scf accuracy    <      10.89839681 Ry

     iteration # 75     ecut=    30.00 Ry     beta=0.70
     Davidson diagonalization with overlap
     ethr =  1.00E-02,  avg # of iterations =  1.0

     negative rho (up, down):  6.918E-04 0.000E+00

     total cpu time spent up to now is        7.6 secs

     total energy              =     -38.60902153 Ry
     Harris-Foulkes estimate   =     -38.13677165 Ry
     estimated scf accuracy    <      10.59844913 Ry

     iteration # 76     ecut=    30.00 Ry     beta=0.70
     Davidson diagonalization with overlap
     ethr =  1.00E-02,  avg # of iterations =  1.0

     negative rho (up, down):  7.058E-02 0.000E+00

     total cpu time spent up to now is        7.6 secs

     total energy              =     -37.60174054 Ry
     Harris-Foulkes estimate   =     -38.70882056 Ry
     estimated scf accuracy    <      11.72080363 Ry

     iteration # 77     ecut=    30.00 Ry     beta=0.70
     Davidson diagonalization with overlap
     ethr =  1.00E-02,  avg # of iterations =  1.0

     negative rho (up, down):  3.053E-01 0.000E+00

     total cpu time spent up to now is        7.7 secs

     total energy              =     -50.19682766 Ry
     Harris-Foulkes estimate   =     -37.67303707 Ry
     estimated scf accuracy    <       9.32529446 Ry

     iteration # 78     ecut=    30.00 Ry     beta=0.70
     Davidson diagonalization with overlap
     ethr =  1.00E-02,  avg # of iterations =  3.0

     negative rho (up, down):  1.437E-01 0.000E+00

     total cpu time spent up to now is        7.7 secs

     total energy              =     -15.03554568 Ry
     Harris-Foulkes estimate   =    -356.12245046 Ry
     estimated scf accuracy    <      16.17562500 Ry

     iteration # 79     ecut=    30.00 Ry     beta=0.70
     Davidson diagonalization with overlap
     ethr =  1.00E-02,  avg # of iterations =  5.0

     negative rho (up, down):  2.274E-01 0.000E+00

     total cpu time spent up to now is        7.8 secs

     total energy              =     -92.99820818 Ry
     Harris-Foulkes estimate   =     -56.28674370 Ry
     estimated scf accuracy    <      15.07395849 Ry

     iteration # 80     ecut=    30.00 Ry     beta=0.70
     Davidson diagonalization with overlap
     ethr =  1.00E-02,  avg # of iterations =  6.0

     negative rho (up, down):  3.170E-02 0.000E+00

     total cpu time spent up to now is        7.8 secs

     total energy              =    -242.74066969 Ry
     Harris-Foulkes estimate   =    -444.00432665 Ry
     estimated scf accuracy    <      27.42862402 Ry

     iteration # 81     ecut=    30.00 Ry     beta=0.70
     Davidson diagonalization with overlap
     ethr =  1.00E-02,  avg # of iterations = 12.0

     negative rho (up, down):  1.591E-01 0.000E+00

     total cpu time spent up to now is        7.9 secs

     total energy              =      -1.88987654 Ry
     Harris-Foulkes estimate   =   -1553.24836861 Ry
     estimated scf accuracy    <      11.23270766 Ry

     iteration # 82     ecut=    30.00 Ry     beta=0.70
     Davidson diagonalization with overlap
     ethr =  1.00E-02,  avg # of iterations =  7.0

     negative rho (up, down):  5.851E-02 0.000E+00

     total cpu time spent up to now is        7.9 secs

     total energy              =    -139.95577171 Ry
     Harris-Foulkes estimate   =     -53.17642977 Ry
     estimated scf accuracy    <      25.12414813 Ry

     iteration # 83     ecut=    30.00 Ry     beta=0.70
     Davidson diagonalization with overlap
     ethr =  1.00E-02,  avg # of iterations =  4.0

     negative rho (up, down):  2.735E-03 0.000E+00

     total cpu time spent up to now is        8.0 secs

     total energy              =      77.91201650 Ry
     Harris-Foulkes estimate   =   -3961.45635929 Ry
     estimated scf accuracy    <      17.85835850 Ry

     iteration # 84     ecut=    30.00 Ry     beta=0.70
     Davidson diagonalization with overlap
     ethr =  1.00E-02,  avg # of iterations =  7.0

     negative rho (up, down):  3.007E-02 0.000E+00

     total cpu time spent up to now is        8.0 secs

     total energy              =     -29.52266658 Ry
     Harris-Foulkes estimate   =     -46.20549257 Ry
     estimated scf accuracy    <      11.17470683 Ry

     iteration # 85     ecut=    30.00 Ry     beta=0.70
     Davidson diagonalization with overlap
     ethr =  1.00E-02,  avg # of iterations =  3.0

     negative rho (up, down):  3.330E-02 0.000E+00

     total cpu time spent up to now is        8.1 secs

     total energy              =     -32.81870652 Ry
     Harris-Foulkes estimate   =     -38.90253567 Ry
     estimated scf accuracy    <       7.31338520 Ry

     iteration # 86     ecut=    30.00 Ry     beta=0.70
     Davidson diagonalization with overlap
     ethr =  1.00E-02,  avg # of iterations =  5.0

     negative rho (up, down):  5.824E-02 0.000E+00

     total cpu time spent up to now is        8.1 secs

     total energy              =    -152.14497604 Ry
     Harris-Foulkes estimate   =    -193.91441100 Ry
     estimated scf accuracy    <      12.32494118 Ry

     iteration # 87     ecut=    30.00 Ry     beta=0.70
     Davidson diagonalization with overlap
     ethr =  1.00E-02,  avg # of iterations =  4.0

     negative rho (up, down):  9.997E-05 0.000E+00

     total cpu time spent up to now is        8.1 secs

     total energy              =      49.09190030 Ry
     Harris-Foulkes estimate   =    -482.34752867 Ry
     estimated scf accuracy    <      10.49127792 Ry

     iteration # 88     ecut=    30.00 Ry     beta=0.70
     Davidson diagonalization with overlap
     ethr =  1.00E-02,  avg # of iterations =  4.0

     negative rho (up, down):  2.103E-05 0.000E+00

     total cpu time spent up to now is        8.2 secs

     total energy              =     -34.47681407 Ry
     Harris-Foulkes estimate   =     -35.08126268 Ry
     estimated scf accuracy    <       6.72862102 Ry

     iteration # 89     ecut=    30.00 Ry     beta=0.70
     Davidson diagonalization with overlap
     ethr =  1.00E-02,  avg # of iterations =  1.0

     negative rho (up, down):  3.078E-03 0.000E+00

     total cpu time spent up to now is        8.2 secs

     total energy              =     -34.59683034 Ry
     Harris-Foulkes estimate   =     -34.68373316 Ry
     estimated scf accuracy    <       6.95291778 Ry

     iteration # 90     ecut=    30.00 Ry     beta=0.70
     Davidson diagonalization with overlap
     ethr =  1.00E-02,  avg # of iterations =  4.0

     negative rho (up, down):  1.438E-04 0.000E+00

     total cpu time spent up to now is        8.3 secs

     total energy              =       1.33396691 Ry
     Harris-Foulkes estimate   =     -71.34409792 Ry
     estimated scf accuracy    <      12.42964205 Ry

     iteration # 91     ecut=    30.00 Ry     beta=0.70
     Davidson diagonalization with overlap
     ethr =  1.00E-02,  avg # of iterations =  4.0

     negative rho (up, down):  1.257E-03 0.000E+00

     total cpu time spent up to now is        8.3 secs

     total energy              =    -116.12153951 Ry
     Harris-Foulkes estimate   =     -33.48594708 Ry
     estimated scf accuracy    <       6.05020035 Ry

     iteration # 92     ecut=    30.00 Ry     beta=0.70
     Davidson diagonalization with overlap
     ethr =  1.00E-02,  avg # of iterations =  3.0

     negative rho (up, down):  4.840E-03 0.000E+00

     total cpu time spent up to now is        8.4 secs

     total energy              =      -6.02946283 Ry
     Harris-Foulkes estimate   =   -1478.99024510 Ry
     estimated scf accuracy    <       8.22356316 Ry

     iteration # 93     ecut=    30.00 Ry     beta=0.70
     Davidson diagonalization with overlap
     ethr =  1.00E-02,  avg # of iterations =  4.0

     negative rho (up, down):  4.226E-03 0.000E+00

     total cpu time spent up to now is        8.4 secs

     total energy              =       8.11812057 Ry
     Harris-Foulkes estimate   =    -110.21345069 Ry
     estimated scf accuracy    <      14.54768386 Ry

     iteration # 94     ecut=    30.00 Ry     beta=0.70
     Davidson diagonalization with overlap
     ethr =  1.00E-02,  avg # of iterations =  4.0

     total cpu time spent up to now is        8.4 secs

     total energy              =     -13.97355119 Ry
     Harris-Foulkes estimate   =     -38.87360855 Ry
     estimated scf accuracy    <       5.66510825 Ry

     iteration # 95     ecut=    30.00 Ry     beta=0.70
     Davidson diagonalization with overlap
     ethr =  1.00E-02,  avg # of iterations =  4.0

     negative rho (up, down):  2.233E-04 0.000E+00

     total cpu time spent up to now is        8.5 secs

     total energy              =     -32.43521412 Ry
     Harris-Foulkes estimate   =     -32.78179265 Ry
     estimated scf accuracy    <       3.49687043 Ry

     iteration # 96     ecut=    30.00 Ry     beta=0.70
     Davidson diagonalization with overlap
     ethr =  1.00E-02,  avg # of iterations =  1.0

     negative rho (up, down):  2.319E-02 0.000E+00

     total cpu time spent up to now is        8.5 secs

     total energy              =     -32.01390651 Ry
     Harris-Foulkes estimate   =     -32.77185901 Ry
     estimated scf accuracy    <       6.43322493 Ry

     iteration # 97     ecut=    30.00 Ry     beta=0.70
     Davidson diagonalization with overlap
     ethr =  1.00E-02,  avg # of iterations =  4.0

     negative rho (up, down):  2.873E-05 0.000E+00

     total cpu time spent up to now is        8.6 secs

     total energy              =      -0.71834074 Ry
     Harris-Foulkes estimate   =    -102.02940573 Ry
     estimated scf accuracy    <       7.31126997 Ry

     iteration # 98     ecut=    30.00 Ry     beta=0.70
     Davidson diagonalization with overlap
     ethr =  1.00E-02,  avg # of iterations =  3.0

     negative rho (up, down):  1.170E-02 0.000E+00

     total cpu time spent up to now is        8.6 secs

     total energy              =     -31.80600452 Ry
     Harris-Foulkes estimate   =     -32.11112765 Ry
     estimated scf accuracy    <       2.42029362 Ry

     iteration # 99     ecut=    30.00 Ry     beta=0.70
     Davidson diagonalization with overlap
     ethr =  1.00E-02,  avg # of iterations =  3.0

     negative rho (up, down):  5.247E-03 0.000E+00

     total cpu time spent up to now is        8.6 secs

     total energy              =     -28.61865495 Ry
     Harris-Foulkes estimate   =     -32.85665435 Ry
     estimated scf accuracy    <       2.10973653 Ry

     iteration #100     ecut=    30.00 Ry     beta=0.70
     Davidson diagonalization with overlap
     ethr =  1.00E-02,  avg # of iterations =  3.0

     negative rho (up, down):  8.953E-03 0.000E+00

     total cpu time spent up to now is        8.7 secs

     total energy              =     -31.74179764 Ry
     Harris-Foulkes estimate   =     -31.77993861 Ry
     estimated scf accuracy    <       0.87115333 Ry

     End of self-consistent calculation

     convergence NOT achieved after 100 iterations: stopping

     Writing output data file pwscf.save
 
     init_run     :      0.09s CPU      0.11s WALL (       1 calls)
     electrons    :      6.35s CPU      7.76s WALL (       4 calls)
     update_pot   :      0.32s CPU      0.45s WALL (       3 calls)
     forces       :      0.08s CPU      0.08s WALL (       3 calls)

     Called by init_run:
     wfcinit      :      0.01s CPU      0.03s WALL (       1 calls)
     potinit      :      0.02s CPU      0.03s WALL (       1 calls)

     Called by electrons:
     c_bands      :      3.14s CPU      3.32s WALL (     168 calls)
     sum_band     :      0.50s CPU      0.52s WALL (     168 calls)
     v_of_rho     :      1.25s CPU      1.32s WALL (     172 calls)
     mix_rho      :      1.25s CPU      2.08s WALL (     168 calls)

     Called by c_bands:
     init_us_2    :      0.02s CPU      0.02s WALL (     337 calls)
     cegterg      :      3.11s CPU      3.24s WALL (     168 calls)

     Called by sum_band:

     Called by *egterg:
     h_psi        :      2.58s CPU      2.67s WALL (     923 calls)
     g_psi        :      0.03s CPU      0.03s WALL (     754 calls)
     cdiaghg      :      0.22s CPU      0.25s WALL (     919 calls)

     Called by h_psi:
     h_psi:pot    :      2.56s CPU      2.65s WALL (     923 calls)
     h_psi:calbec :      0.05s CPU      0.05s WALL (     923 calls)
     vloc_psi     :      2.51s CPU      2.59s WALL (     923 calls)
     add_vuspsi   :      0.01s CPU      0.01s WALL (     923 calls)

     General routines
     calbec       :      0.06s CPU      0.07s WALL (     937 calls)
     fft          :      0.75s CPU      0.79s WALL (    1898 calls)
     fftw         :      2.58s CPU      2.68s WALL (   11566 calls)
     davcio       :      0.19s CPU      0.71s WALL (    3017 calls)
 
     Parallel routines
     fft_scatter  :      1.28s CPU      1.36s WALL (   13464 calls)
 
     PWSCF        :     7.00s CPU         8.76s WALL

 
   This run was terminated on:   8:18:39  14Feb2018            

=------------------------------------------------------------------------------=
   JOB DONE.
=------------------------------------------------------------------------------=
