
     Program PWSCF v.6.0 (svn rev. 13079) starts on 14Feb2018 at  8:18:51 

     This program is part of the open-source Quantum ESPRESSO suite
     for quantum simulation of materials; please cite
         "P. Giannozzi et al., J. Phys.:Condens. Matter 21 395502 (2009);
          URL http://www.quantum-espresso.org", 
     in publications or presentations arising from this work. More details at
     http://www.quantum-espresso.org/quote

     Parallel version (MPI), running on    28 processors
     R & G space division:  proc/nbgrp/npool/nimage =      28
     Reading input from inputs/MD-H2O-2/328.in

     Current dimensions of program PWSCF are:
     Max number of different atomic species (ntypx) = 10
     Max number of k-points (npk) =  40000
     Max angular momentum in pseudopotentials (lmaxx) =  3

     Subspace diagonalization in iterative solution of the eigenvalue problem:
     a serial algorithm will be used

 
     Parallelization info
     --------------------
     sticks:   dense  smooth     PW     G-vecs:    dense   smooth      PW
     Min         136     136     33                 6338     6338     787
     Max         137     137     34                 6341     6341     792
     Sum        3809    3809    949               177509   177509   22119
 


     bravais-lattice index     =            1
     lattice parameter (alat)  =      20.0000  a.u.
     unit-cell volume          =    8000.0000 (a.u.)^3
     number of atoms/cell      =            3
     number of atomic types    =            2
     number of electrons       =         8.00
     number of Kohn-Sham states=            8
     kinetic-energy cutoff     =      30.0000  Ry
     charge density cutoff     =     120.0000  Ry
     convergence threshold     =      1.0E-08
     mixing beta               =       0.7000
     number of iterations used =            8  plain     mixing
     Exchange-correlation      = BLYP ( 1  3  1  3 0 0)
     nstep                     =         5000


     celldm(1)=  20.000000  celldm(2)=   0.000000  celldm(3)=   0.000000
     celldm(4)=   0.000000  celldm(5)=   0.000000  celldm(6)=   0.000000

     crystal axes: (cart. coord. in units of alat)
               a(1) = (   1.000000   0.000000   0.000000 )  
               a(2) = (   0.000000   1.000000   0.000000 )  
               a(3) = (   0.000000   0.000000   1.000000 )  

     reciprocal axes: (cart. coord. in units 2 pi/alat)
               b(1) = (  1.000000  0.000000  0.000000 )  
               b(2) = (  0.000000  1.000000  0.000000 )  
               b(3) = (  0.000000  0.000000  1.000000 )  


     PseudoPot. # 1 for  H read from file:
     ./H.blyp-hgh.UPF
     MD5 check sum: c576e69559cde411e611be972c763230
     Pseudo is Norm-conserving, Zval =  1.0
     Generated in analytical, separable form
     Using radial grid of  929 points,  0 beta functions with: 

     PseudoPot. # 2 for  O read from file:
     ./O.blyp-hgh.UPF
     MD5 check sum: d0b7156309aa9befef28faac7bc56342
     Pseudo is Norm-conserving, Zval =  6.0
     Generated in analytical, separable form
     Using radial grid of 1095 points,  1 beta functions with: 
                l(1) =   0

     atomic species   valence    mass     pseudopotential
        H              1.00     1.01000      H( 1.00)
        O              6.00    16.00000      O( 1.00)

     No symmetry found



   Cartesian axes

     site n.     atom                  positions (alat units)
         1           H   tau(   1) = (   0.1404984   0.0483853   0.2778005  )
         2           H   tau(   2) = (   0.7492241   0.7551641   0.4993382  )
         3           O   tau(   3) = (   0.2271351   1.0067713   0.3034574  )

     number of k points=     1  Marzari-Vanderbilt smearing, width (Ry)=  0.0250
                       cart. coord. in units 2pi/alat
        k(    1) = (   0.0000000   0.0000000   0.0000000), wk =   2.0000000

     Dense  grid:   177509 G-vectors     FFT dimensions: (  72,  72,  72)

     Estimated max dynamical RAM per process >       6.09Mb

     Estimated total allocated dynamical RAM >     170.64Mb

     Initial potential from superposition of free atoms
     Check: negative starting charge=   -0.349146

     starting charge    7.99998, renormalised to    8.00000

     negative rho (up, down):  3.491E-01 0.000E+00
     Starting wfc are    6 randomized atomic wfcs +    2 random wfc

     total cpu time spent up to now is        0.2 secs

     per-process dynamical memory:    18.8 Mb

     Self-consistent Calculation

     iteration #  1     ecut=    30.00 Ry     beta=0.70
     Davidson diagonalization with overlap
     ethr =  1.00E-02,  avg # of iterations =  9.0

     negative rho (up, down):  9.107E-02 0.000E+00

     total cpu time spent up to now is        0.3 secs

     total energy              =     -30.35085702 Ry
     Harris-Foulkes estimate   =     -32.23621362 Ry
     estimated scf accuracy    <       2.16958729 Ry

     iteration #  2     ecut=    30.00 Ry     beta=0.70
     Davidson diagonalization with overlap
     ethr =  1.00E-02,  avg # of iterations =  3.0

     negative rho (up, down):  6.622E-02 0.000E+00

     total cpu time spent up to now is        0.3 secs

     total energy              =     -32.29510854 Ry
     Harris-Foulkes estimate   =     -34.57995273 Ry
     estimated scf accuracy    <       5.55840415 Ry

     iteration #  3     ecut=    30.00 Ry     beta=0.70
     Davidson diagonalization with overlap
     ethr =  1.00E-02,  avg # of iterations =  2.0

     negative rho (up, down):  6.362E-02 0.000E+00

     total cpu time spent up to now is        0.3 secs

     total energy              =     -32.44088432 Ry
     Harris-Foulkes estimate   =     -32.52901700 Ry
     estimated scf accuracy    <       1.80772126 Ry

     iteration #  4     ecut=    30.00 Ry     beta=0.70
     Davidson diagonalization with overlap
     ethr =  1.00E-02,  avg # of iterations =  1.0

     negative rho (up, down):  1.106E-02 0.000E+00

     total cpu time spent up to now is        0.4 secs

     total energy              =     -31.29201127 Ry
     Harris-Foulkes estimate   =     -32.44120023 Ry
     estimated scf accuracy    <       1.68613899 Ry

     iteration #  5     ecut=    30.00 Ry     beta=0.70
     Davidson diagonalization with overlap
     ethr =  1.00E-02,  avg # of iterations =  4.0

     negative rho (up, down):  2.353E-02 0.000E+00

     total cpu time spent up to now is        0.4 secs

     total energy              =     -33.44857972 Ry
     Harris-Foulkes estimate   =     -33.28065903 Ry
     estimated scf accuracy    <       8.74733833 Ry

     iteration #  6     ecut=    30.00 Ry     beta=0.70
     Davidson diagonalization with overlap
     ethr =  1.00E-02,  avg # of iterations =  3.0

     negative rho (up, down):  1.879E-02 0.000E+00

     total cpu time spent up to now is        0.4 secs

     total energy              =     -33.35517130 Ry
     Harris-Foulkes estimate   =     -33.45452458 Ry
     estimated scf accuracy    <       9.52019988 Ry

     iteration #  7     ecut=    30.00 Ry     beta=0.70
     Davidson diagonalization with overlap
     ethr =  1.00E-02,  avg # of iterations =  1.0

     negative rho (up, down):  2.699E-02 0.000E+00

     total cpu time spent up to now is        0.5 secs

     total energy              =     -33.24073062 Ry
     Harris-Foulkes estimate   =     -33.35634471 Ry
     estimated scf accuracy    <       9.29986512 Ry

     iteration #  8     ecut=    30.00 Ry     beta=0.70
     Davidson diagonalization with overlap
     ethr =  1.00E-02,  avg # of iterations =  1.0

     negative rho (up, down):  2.821E-02 0.000E+00

     total cpu time spent up to now is        0.5 secs

     total energy              =     -32.83134284 Ry
     Harris-Foulkes estimate   =     -33.24499522 Ry
     estimated scf accuracy    <       7.96114660 Ry

     iteration #  9     ecut=    30.00 Ry     beta=0.70
     Davidson diagonalization with overlap
     ethr =  1.00E-02,  avg # of iterations =  1.0

     negative rho (up, down):  2.200E-02 0.000E+00

     total cpu time spent up to now is        0.5 secs

     total energy              =     -32.68385707 Ry
     Harris-Foulkes estimate   =     -32.93920418 Ry
     estimated scf accuracy    <       3.04546676 Ry

     iteration # 10     ecut=    30.00 Ry     beta=0.70
     Davidson diagonalization with overlap
     ethr =  1.00E-02,  avg # of iterations =  1.0

     negative rho (up, down):  4.383E-02 0.000E+00

     total cpu time spent up to now is        0.6 secs

     total energy              =     -32.43211878 Ry
     Harris-Foulkes estimate   =     -32.68882316 Ry
     estimated scf accuracy    <       2.54922356 Ry

     iteration # 11     ecut=    30.00 Ry     beta=0.70
     Davidson diagonalization with overlap
     ethr =  1.00E-02,  avg # of iterations =  1.0

     negative rho (up, down):  4.910E-02 0.000E+00

     total cpu time spent up to now is        0.6 secs

     total energy              =     -31.96344318 Ry
     Harris-Foulkes estimate   =     -32.43747872 Ry
     estimated scf accuracy    <       2.08669530 Ry

     iteration # 12     ecut=    30.00 Ry     beta=0.70
     Davidson diagonalization with overlap
     ethr =  1.00E-02,  avg # of iterations =  1.0

     negative rho (up, down):  2.282E-01 0.000E+00

     total cpu time spent up to now is        0.6 secs

     total energy              =     -32.06066281 Ry
     Harris-Foulkes estimate   =     -31.98162612 Ry
     estimated scf accuracy    <       1.51685678 Ry

     iteration # 13     ecut=    30.00 Ry     beta=0.70
     Davidson diagonalization with overlap
     ethr =  1.00E-02,  avg # of iterations =  1.0

     negative rho (up, down):  5.147E-01 0.000E+00

     total cpu time spent up to now is        0.7 secs

     total energy              =     -30.92938879 Ry
     Harris-Foulkes estimate   =     -32.05755685 Ry
     estimated scf accuracy    <       1.41429062 Ry

     iteration # 14     ecut=    30.00 Ry     beta=0.70
     Davidson diagonalization with overlap
     ethr =  1.00E-02,  avg # of iterations =  5.0

     negative rho (up, down):  5.195E-02 0.000E+00

     total cpu time spent up to now is        0.7 secs

     total energy              =     -32.73148899 Ry
     Harris-Foulkes estimate   =     -36.35261117 Ry
     estimated scf accuracy    <       7.43180392 Ry

     iteration # 15     ecut=    30.00 Ry     beta=0.70
     Davidson diagonalization with overlap
     ethr =  1.00E-02,  avg # of iterations =  2.0

     negative rho (up, down):  2.961E-02 0.000E+00

     total cpu time spent up to now is        0.7 secs

     total energy              =     -32.51138672 Ry
     Harris-Foulkes estimate   =     -32.91008264 Ry
     estimated scf accuracy    <       2.28406008 Ry

     iteration # 16     ecut=    30.00 Ry     beta=0.70
     Davidson diagonalization with overlap
     ethr =  1.00E-02,  avg # of iterations =  1.0

     negative rho (up, down):  9.908E-03 0.000E+00

     total cpu time spent up to now is        0.8 secs

     total energy              =     -32.36839743 Ry
     Harris-Foulkes estimate   =     -32.51613724 Ry
     estimated scf accuracy    <       1.71542409 Ry

     iteration # 17     ecut=    30.00 Ry     beta=0.70
     Davidson diagonalization with overlap
     ethr =  1.00E-02,  avg # of iterations =  1.0

     negative rho (up, down):  7.246E-03 0.000E+00

     total cpu time spent up to now is        0.8 secs

     total energy              =     -32.26011661 Ry
     Harris-Foulkes estimate   =     -32.36907824 Ry
     estimated scf accuracy    <       1.50281389 Ry

     iteration # 18     ecut=    30.00 Ry     beta=0.70
     Davidson diagonalization with overlap
     ethr =  1.00E-02,  avg # of iterations =  3.0

     negative rho (up, down):  3.559E-03 0.000E+00

     total cpu time spent up to now is        0.8 secs

     total energy              =     -32.22136743 Ry
     Harris-Foulkes estimate   =     -32.25242959 Ry
     estimated scf accuracy    <       1.34182474 Ry

     iteration # 19     ecut=    30.00 Ry     beta=0.70
     Davidson diagonalization with overlap
     ethr =  1.00E-02,  avg # of iterations =  1.0

     negative rho (up, down):  2.114E-03 0.000E+00

     total cpu time spent up to now is        0.9 secs

     total energy              =     -31.97488885 Ry
     Harris-Foulkes estimate   =     -32.22139261 Ry
     estimated scf accuracy    <       1.29966209 Ry

     iteration # 20     ecut=    30.00 Ry     beta=0.70
     Davidson diagonalization with overlap
     ethr =  1.00E-02,  avg # of iterations =  1.0

     negative rho (up, down):  1.198E-03 0.000E+00

     total cpu time spent up to now is        0.9 secs

     total energy              =     -31.79356792 Ry
     Harris-Foulkes estimate   =     -31.97780296 Ry
     estimated scf accuracy    <       0.91729602 Ry

     iteration # 21     ecut=    30.00 Ry     beta=0.70
     Davidson diagonalization with overlap
     ethr =  1.00E-02,  avg # of iterations =  1.0

     negative rho (up, down):  1.926E-03 0.000E+00

     total cpu time spent up to now is        0.9 secs

     total energy              =     -32.18717608 Ry
     Harris-Foulkes estimate   =     -32.11519425 Ry
     estimated scf accuracy    <       1.42644188 Ry

     iteration # 22     ecut=    30.00 Ry     beta=0.70
     Davidson diagonalization with overlap
     ethr =  1.00E-02,  avg # of iterations =  1.0

     negative rho (up, down):  2.134E-03 0.000E+00

     total cpu time spent up to now is        1.0 secs

     total energy              =     -32.22352432 Ry
     Harris-Foulkes estimate   =     -32.18861126 Ry
     estimated scf accuracy    <       1.55913060 Ry

     iteration # 23     ecut=    30.00 Ry     beta=0.70
     Davidson diagonalization with overlap
     ethr =  1.00E-02,  avg # of iterations =  1.0

     negative rho (up, down):  3.780E-04 0.000E+00

     total cpu time spent up to now is        1.0 secs

     total energy              =     -32.32206910 Ry
     Harris-Foulkes estimate   =     -32.22390432 Ry
     estimated scf accuracy    <       1.62689100 Ry

     iteration # 24     ecut=    30.00 Ry     beta=0.70
     Davidson diagonalization with overlap
     ethr =  1.00E-02,  avg # of iterations =  1.0

     negative rho (up, down):  1.135E-03 0.000E+00

     total cpu time spent up to now is        1.0 secs

     total energy              =     -32.07520548 Ry
     Harris-Foulkes estimate   =     -32.32289243 Ry
     estimated scf accuracy    <       1.79992691 Ry

     iteration # 25     ecut=    30.00 Ry     beta=0.70
     Davidson diagonalization with overlap
     ethr =  1.00E-02,  avg # of iterations =  1.0

     negative rho (up, down):  3.262E-04 0.000E+00

     total cpu time spent up to now is        1.1 secs

     total energy              =     -31.96416715 Ry
     Harris-Foulkes estimate   =     -32.07894110 Ry
     estimated scf accuracy    <       1.39387661 Ry

     iteration # 26     ecut=    30.00 Ry     beta=0.70
     Davidson diagonalization with overlap
     ethr =  1.00E-02,  avg # of iterations =  1.0

     negative rho (up, down):  5.866E-05 0.000E+00

     total cpu time spent up to now is        1.1 secs

     total energy              =     -31.83456283 Ry
     Harris-Foulkes estimate   =     -31.96157778 Ry
     estimated scf accuracy    <       1.08746589 Ry

     iteration # 27     ecut=    30.00 Ry     beta=0.70
     Davidson diagonalization with overlap
     ethr =  1.00E-02,  avg # of iterations =  1.0

     negative rho (up, down):  1.096E-04 0.000E+00

     total cpu time spent up to now is        1.1 secs

     total energy              =     -31.96949431 Ry
     Harris-Foulkes estimate   =     -32.02628164 Ry
     estimated scf accuracy    <       0.99819758 Ry

     iteration # 28     ecut=    30.00 Ry     beta=0.70
     Davidson diagonalization with overlap
     ethr =  1.00E-02,  avg # of iterations =  1.0

     negative rho (up, down):  4.099E-05 0.000E+00

     total cpu time spent up to now is        1.2 secs

     total energy              =     -32.01092461 Ry
     Harris-Foulkes estimate   =     -31.96990348 Ry
     estimated scf accuracy    <       0.85026605 Ry

     iteration # 29     ecut=    30.00 Ry     beta=0.70
     Davidson diagonalization with overlap
     ethr =  1.00E-02,  avg # of iterations =  1.0

     negative rho (up, down):  7.642E-05 0.000E+00

     total cpu time spent up to now is        1.2 secs

     total energy              =     -32.01155415 Ry
     Harris-Foulkes estimate   =     -32.01235626 Ry
     estimated scf accuracy    <       0.97840015 Ry

     iteration # 30     ecut=    30.00 Ry     beta=0.70
     Davidson diagonalization with overlap
     ethr =  1.00E-02,  avg # of iterations =  1.0

     negative rho (up, down):  9.744E-06 0.000E+00

     total cpu time spent up to now is        1.2 secs

     total energy              =     -31.97244115 Ry
     Harris-Foulkes estimate   =     -32.01155757 Ry
     estimated scf accuracy    <       0.97800715 Ry

     iteration # 31     ecut=    30.00 Ry     beta=0.70
     Davidson diagonalization with overlap
     ethr =  1.00E-02,  avg # of iterations =  1.0

     negative rho (up, down):  1.346E-05 0.000E+00

     total cpu time spent up to now is        1.3 secs

     total energy              =     -31.96592572 Ry
     Harris-Foulkes estimate   =     -31.97265490 Ry
     estimated scf accuracy    <       0.87663840 Ry

     iteration # 32     ecut=    30.00 Ry     beta=0.70
     Davidson diagonalization with overlap
     ethr =  1.00E-02,  avg # of iterations =  1.0

     negative rho (up, down):  2.622E-05 0.000E+00

     total cpu time spent up to now is        1.3 secs

     total energy              =     -31.98499395 Ry
     Harris-Foulkes estimate   =     -31.96605646 Ry
     estimated scf accuracy    <       0.79412528 Ry

     iteration # 33     ecut=    30.00 Ry     beta=0.70
     Davidson diagonalization with overlap
     ethr =  9.93E-03,  avg # of iterations =  1.0

     negative rho (up, down):  2.128E-06 0.000E+00

     total cpu time spent up to now is        1.3 secs

     total energy              =     -31.89363753 Ry
     Harris-Foulkes estimate   =     -31.98593039 Ry
     estimated scf accuracy    <       0.93637863 Ry

     iteration # 34     ecut=    30.00 Ry     beta=0.70
     Davidson diagonalization with overlap
     ethr =  9.93E-03,  avg # of iterations =  1.0

     negative rho (up, down):  6.833E-07 0.000E+00

     total cpu time spent up to now is        1.4 secs

     total energy              =     -32.00821838 Ry
     Harris-Foulkes estimate   =     -31.97756997 Ry
     estimated scf accuracy    <       1.59268164 Ry

     iteration # 35     ecut=    30.00 Ry     beta=0.70
     Davidson diagonalization with overlap
     ethr =  9.93E-03,  avg # of iterations =  1.0

     negative rho (up, down):  1.677E-06 0.000E+00

     total cpu time spent up to now is        1.4 secs

     total energy              =     -31.91660953 Ry
     Harris-Foulkes estimate   =     -32.00710154 Ry
     estimated scf accuracy    <       1.33738727 Ry

     iteration # 36     ecut=    30.00 Ry     beta=0.70
     Davidson diagonalization with overlap
     ethr =  9.93E-03,  avg # of iterations =  1.0

     negative rho (up, down):  3.853E-06 0.000E+00

     total cpu time spent up to now is        1.5 secs

     total energy              =     -31.99817271 Ry
     Harris-Foulkes estimate   =     -31.95007968 Ry
     estimated scf accuracy    <       0.24027811 Ry

     iteration # 37     ecut=    30.00 Ry     beta=0.70
     Davidson diagonalization with overlap
     ethr =  3.00E-03,  avg # of iterations =  1.0

     negative rho (up, down):  1.532E-05 0.000E+00

     total cpu time spent up to now is        1.5 secs

     total energy              =     -32.09290708 Ry
     Harris-Foulkes estimate   =     -32.03523565 Ry
     estimated scf accuracy    <       1.01927982 Ry

     iteration # 38     ecut=    30.00 Ry     beta=0.70
     Davidson diagonalization with overlap
     ethr =  3.00E-03,  avg # of iterations =  1.0

     negative rho (up, down):  3.914E-07 0.000E+00

     total cpu time spent up to now is        1.5 secs

     total energy              =     -31.98320643 Ry
     Harris-Foulkes estimate   =     -32.09312576 Ry
     estimated scf accuracy    <       1.10880652 Ry

     iteration # 39     ecut=    30.00 Ry     beta=0.70
     Davidson diagonalization with overlap
     ethr =  3.00E-03,  avg # of iterations =  1.0

     negative rho (up, down):  2.858E-08 0.000E+00

     total cpu time spent up to now is        1.5 secs

     total energy              =     -31.90591271 Ry
     Harris-Foulkes estimate   =     -31.98384839 Ry
     estimated scf accuracy    <       0.93923978 Ry

     iteration # 40     ecut=    30.00 Ry     beta=0.70
     Davidson diagonalization with overlap
     ethr =  3.00E-03,  avg # of iterations =  1.0

     total cpu time spent up to now is        1.6 secs

     total energy              =     -31.92482076 Ry
     Harris-Foulkes estimate   =     -31.96147146 Ry
     estimated scf accuracy    <       1.06900389 Ry

     iteration # 41     ecut=    30.00 Ry     beta=0.70
     Davidson diagonalization with overlap
     ethr =  3.00E-03,  avg # of iterations =  1.0

     total cpu time spent up to now is        1.6 secs

     total energy              =     -31.95267897 Ry
     Harris-Foulkes estimate   =     -31.94758742 Ry
     estimated scf accuracy    <       0.08523742 Ry

     iteration # 42     ecut=    30.00 Ry     beta=0.70
     Davidson diagonalization with overlap
     ethr =  1.07E-03,  avg # of iterations =  1.0

     negative rho (up, down):  3.925E-07 0.000E+00

     total cpu time spent up to now is        1.6 secs

     total energy              =     -31.97723496 Ry
     Harris-Foulkes estimate   =     -31.95690879 Ry
     estimated scf accuracy    <       0.55568169 Ry

     iteration # 43     ecut=    30.00 Ry     beta=0.70
     Davidson diagonalization with overlap
     ethr =  1.07E-03,  avg # of iterations =  1.0

     negative rho (up, down):  1.481E-06 0.000E+00

     total cpu time spent up to now is        1.7 secs

     total energy              =     -32.01954672 Ry
     Harris-Foulkes estimate   =     -31.98091330 Ry
     estimated scf accuracy    <       0.92185770 Ry

     iteration # 44     ecut=    30.00 Ry     beta=0.70
     Davidson diagonalization with overlap
     ethr =  1.07E-03,  avg # of iterations =  1.0

     negative rho (up, down):  6.110E-07 0.000E+00

     total cpu time spent up to now is        1.7 secs

     total energy              =     -32.02246641 Ry
     Harris-Foulkes estimate   =     -32.01980596 Ry
     estimated scf accuracy    <       0.98982536 Ry

     iteration # 45     ecut=    30.00 Ry     beta=0.70
     Davidson diagonalization with overlap
     ethr =  1.07E-03,  avg # of iterations =  1.0

     negative rho (up, down):  2.865E-07 0.000E+00

     total cpu time spent up to now is        1.7 secs

     total energy              =     -32.01302017 Ry
     Harris-Foulkes estimate   =     -32.02247004 Ry
     estimated scf accuracy    <       0.99388835 Ry

     iteration # 46     ecut=    30.00 Ry     beta=0.70
     Davidson diagonalization with overlap
     ethr =  1.07E-03,  avg # of iterations =  1.0

     negative rho (up, down):  1.736E-06 0.000E+00

     total cpu time spent up to now is        1.8 secs

     total energy              =     -32.07744165 Ry
     Harris-Foulkes estimate   =     -32.01302242 Ry
     estimated scf accuracy    <       0.98106750 Ry

     iteration # 47     ecut=    30.00 Ry     beta=0.70
     Davidson diagonalization with overlap
     ethr =  1.07E-03,  avg # of iterations =  1.0

     negative rho (up, down):  1.095E-06 0.000E+00

     total cpu time spent up to now is        1.8 secs

     total energy              =     -32.01719279 Ry
     Harris-Foulkes estimate   =     -32.07765045 Ry
     estimated scf accuracy    <       1.07768863 Ry

     iteration # 48     ecut=    30.00 Ry     beta=0.70
     Davidson diagonalization with overlap
     ethr =  1.07E-03,  avg # of iterations =  1.0

     negative rho (up, down):  1.585E-06 0.000E+00

     total cpu time spent up to now is        1.9 secs

     total energy              =     -32.07901000 Ry
     Harris-Foulkes estimate   =     -32.01741586 Ry
     estimated scf accuracy    <       0.98658853 Ry

     iteration # 49     ecut=    30.00 Ry     beta=0.70
     Davidson diagonalization with overlap
     ethr =  1.07E-03,  avg # of iterations =  1.0

     total cpu time spent up to now is        1.9 secs

     total energy              =     -31.98351959 Ry
     Harris-Foulkes estimate   =     -32.07914086 Ry
     estimated scf accuracy    <       1.07168722 Ry

     iteration # 50     ecut=    30.00 Ry     beta=0.70
     Davidson diagonalization with overlap
     ethr =  1.07E-03,  avg # of iterations =  1.0

     negative rho (up, down):  5.071E-08 0.000E+00

     total cpu time spent up to now is        1.9 secs

     total energy              =     -31.88383849 Ry
     Harris-Foulkes estimate   =     -31.98388952 Ry
     estimated scf accuracy    <       0.92825481 Ry

     iteration # 51     ecut=    30.00 Ry     beta=0.70
     Davidson diagonalization with overlap
     ethr =  1.07E-03,  avg # of iterations =  1.0

     negative rho (up, down):  1.214E-08 0.000E+00

     total cpu time spent up to now is        2.0 secs

     total energy              =     -31.85537899 Ry
     Harris-Foulkes estimate   =     -31.99145689 Ry
     estimated scf accuracy    <       1.52712570 Ry

     iteration # 52     ecut=    30.00 Ry     beta=0.70
     Davidson diagonalization with overlap
     ethr =  1.07E-03,  avg # of iterations =  1.0

     total cpu time spent up to now is        2.0 secs

     total energy              =     -31.90744761 Ry
     Harris-Foulkes estimate   =     -31.98908999 Ry
     estimated scf accuracy    <       0.93183183 Ry

     iteration # 53     ecut=    30.00 Ry     beta=0.70
     Davidson diagonalization with overlap
     ethr =  1.07E-03,  avg # of iterations =  1.0

     total cpu time spent up to now is        2.0 secs

     total energy              =     -31.91845589 Ry
     Harris-Foulkes estimate   =     -31.95966630 Ry
     estimated scf accuracy    <       0.96988970 Ry

     iteration # 54     ecut=    30.00 Ry     beta=0.70
     Davidson diagonalization with overlap
     ethr =  1.07E-03,  avg # of iterations =  1.0

     total cpu time spent up to now is        2.1 secs

     total energy              =     -31.93091345 Ry
     Harris-Foulkes estimate   =     -31.95105249 Ry
     estimated scf accuracy    <       0.29331098 Ry

     iteration # 55     ecut=    30.00 Ry     beta=0.70
     Davidson diagonalization with overlap
     ethr =  1.07E-03,  avg # of iterations =  1.0

     total cpu time spent up to now is        2.1 secs

     total energy              =     -31.94534693 Ry
     Harris-Foulkes estimate   =     -31.95566237 Ry
     estimated scf accuracy    <       0.71278156 Ry

     iteration # 56     ecut=    30.00 Ry     beta=0.70
     Davidson diagonalization with overlap
     ethr =  1.07E-03,  avg # of iterations =  1.0

     total cpu time spent up to now is        2.1 secs

     total energy              =     -31.95112444 Ry
     Harris-Foulkes estimate   =     -31.94810672 Ry
     estimated scf accuracy    <       0.14119754 Ry

     iteration # 57     ecut=    30.00 Ry     beta=0.70
     Davidson diagonalization with overlap
     ethr =  1.07E-03,  avg # of iterations =  1.0

     total cpu time spent up to now is        2.2 secs

     total energy              =     -31.93548243 Ry
     Harris-Foulkes estimate   =     -31.95237038 Ry
     estimated scf accuracy    <       0.47548929 Ry

     iteration # 58     ecut=    30.00 Ry     beta=0.70
     Davidson diagonalization with overlap
     ethr =  1.07E-03,  avg # of iterations =  1.0

     total cpu time spent up to now is        2.2 secs

     total energy              =     -31.94524303 Ry
     Harris-Foulkes estimate   =     -31.94736877 Ry
     estimated scf accuracy    <       0.07246967 Ry

     iteration # 59     ecut=    30.00 Ry     beta=0.70
     Davidson diagonalization with overlap
     ethr =  9.06E-04,  avg # of iterations =  1.0

     total cpu time spent up to now is        2.2 secs

     total energy              =     -31.94634646 Ry
     Harris-Foulkes estimate   =     -31.94636209 Ry
     estimated scf accuracy    <       0.00052442 Ry

     iteration # 60     ecut=    30.00 Ry     beta=0.70
     Davidson diagonalization with overlap
     ethr =  6.56E-06,  avg # of iterations = 16.0

     total cpu time spent up to now is        2.3 secs

     total energy              =     -31.94635338 Ry
     Harris-Foulkes estimate   =     -31.94635378 Ry
     estimated scf accuracy    <       0.00000794 Ry

     iteration # 61     ecut=    30.00 Ry     beta=0.70
     Davidson diagonalization with overlap
     ethr =  9.92E-08,  avg # of iterations =  2.0

     total cpu time spent up to now is        2.3 secs

     total energy              =     -31.94628399 Ry
     Harris-Foulkes estimate   =     -31.94637082 Ry
     estimated scf accuracy    <       0.00132106 Ry

     iteration # 62     ecut=    30.00 Ry     beta=0.70
     Davidson diagonalization with overlap
     ethr =  9.92E-08,  avg # of iterations =  2.0

     total cpu time spent up to now is        2.3 secs

     total energy              =     -31.94642586 Ry
     Harris-Foulkes estimate   =     -31.94639609 Ry
     estimated scf accuracy    <       0.00325899 Ry

     iteration # 63     ecut=    30.00 Ry     beta=0.70
     Davidson diagonalization with overlap
     ethr =  9.92E-08,  avg # of iterations =  1.0

     total cpu time spent up to now is        2.4 secs

     total energy              =     -31.94630571 Ry
     Harris-Foulkes estimate   =     -31.94643115 Ry
     estimated scf accuracy    <       0.00594221 Ry

     iteration # 64     ecut=    30.00 Ry     beta=0.70
     Davidson diagonalization with overlap
     ethr =  9.92E-08,  avg # of iterations =  2.0

     total cpu time spent up to now is        2.4 secs

     total energy              =     -31.94634436 Ry
     Harris-Foulkes estimate   =     -31.94635667 Ry
     estimated scf accuracy    <       0.00020600 Ry

     iteration # 65     ecut=    30.00 Ry     beta=0.70
     Davidson diagonalization with overlap
     ethr =  9.92E-08,  avg # of iterations =  2.0

     total cpu time spent up to now is        2.4 secs

     total energy              =     -31.94633570 Ry
     Harris-Foulkes estimate   =     -31.94637819 Ry
     estimated scf accuracy    <       0.00139529 Ry

     iteration # 66     ecut=    30.00 Ry     beta=0.70
     Davidson diagonalization with overlap
     ethr =  9.92E-08,  avg # of iterations =  2.0

     total cpu time spent up to now is        2.5 secs

     total energy              =     -31.94635527 Ry
     Harris-Foulkes estimate   =     -31.94635563 Ry
     estimated scf accuracy    <       0.00000447 Ry

     iteration # 67     ecut=    30.00 Ry     beta=0.70
     Davidson diagonalization with overlap
     ethr =  5.58E-08,  avg # of iterations =  1.0

     total cpu time spent up to now is        2.5 secs

     total energy              =     -31.94635461 Ry
     Harris-Foulkes estimate   =     -31.94635536 Ry
     estimated scf accuracy    <       0.00002075 Ry

     iteration # 68     ecut=    30.00 Ry     beta=0.70
     Davidson diagonalization with overlap
     ethr =  5.58E-08,  avg # of iterations =  1.0

     total cpu time spent up to now is        2.5 secs

     total energy              =     -31.94635504 Ry
     Harris-Foulkes estimate   =     -31.94635495 Ry
     estimated scf accuracy    <       0.00000026 Ry

     iteration # 69     ecut=    30.00 Ry     beta=0.70
     Davidson diagonalization with overlap
     ethr =  3.30E-09,  avg # of iterations =  1.0

     total cpu time spent up to now is        2.6 secs

     End of self-consistent calculation

          k = 0.0000 0.0000 0.0000 ( 22119 PWs)   bands (ev):

   -24.7772 -10.6259  -7.0362  -7.0354  -6.8955  -0.6979   0.3353   0.8601

     the Fermi energy is    -6.8651 ev

!    total energy              =     -31.94635506 Ry
     Harris-Foulkes estimate   =     -31.94635505 Ry
     estimated scf accuracy    <          1.2E-09 Ry

     convergence has been achieved in  69 iterations

     Forces acting on atoms (Ry/au):

     atom    1 type  1   force =    -0.01331202    0.00684510   -0.00366149
     atom    2 type  1   force =    -0.00034688    0.00010701    0.00025997
     atom    3 type  2   force =     0.01365890   -0.00695211    0.00340152

     Total force =     0.022003     Total SCF correction =     0.000075

     Molecular Dynamics Calculation

     Starting temperature  =  1000.00 K

     temperature is controlled by Andersen thermostat
     Collision frequency = 1.0000/timestep
     mass H                =     1.01
     mass O                =    16.00
     Time step             =   100.00 a.u.,  4.8378 femto-seconds

     Entering Dynamics:    iteration =     1
                           time      =   0.0048 pico-seconds


     Andersen thermostat:    3 collisions

ATOMIC_POSITIONS (bohr)
H        2.796761790   0.921053513   5.341926180
H       14.606202694  15.313290886   9.921736515
O        4.567413523  20.125113064   6.086766027


     kinetic energy (Ekin) =     0.01149868 Ry
     temperature           =   605.16552484 K 
     Ekin + Etot (const)   =   -31.93485638 Ry

     Linear momentum :    0.0000000000   -0.0000000000   -0.0000000000

     Writing output data file pwscf.save
     Check: negative starting charge=   -0.349146
     NEW-OLD atomic charge density approx. for the potential
     Check: negative starting charge=   -0.349296

     negative rho (up, down):  6.382E-02 0.000E+00

     total cpu time spent up to now is        3.0 secs

     per-process dynamical memory:    20.4 Mb

     Self-consistent Calculation

     iteration #  1     ecut=    30.00 Ry     beta=0.70
     Davidson diagonalization with overlap
     ethr =  1.00E-06,  avg # of iterations = 19.0

     negative rho (up, down):  1.520E-02 0.000E+00

     total cpu time spent up to now is        3.1 secs

     total energy              =     -31.88433581 Ry
     Harris-Foulkes estimate   =     -31.88965043 Ry
     estimated scf accuracy    <       0.05975443 Ry

     iteration #  2     ecut=    30.00 Ry     beta=0.70
     Davidson diagonalization with overlap
     ethr =  7.47E-04,  avg # of iterations =  3.0

     negative rho (up, down):  1.325E-02 0.000E+00

     total cpu time spent up to now is        3.1 secs

     total energy              =     -31.95162585 Ry
     Harris-Foulkes estimate   =     -32.22922523 Ry
     estimated scf accuracy    <       1.42398048 Ry

     iteration #  3     ecut=    30.00 Ry     beta=0.70
     Davidson diagonalization with overlap
     ethr =  7.47E-04,  avg # of iterations =  2.0

     negative rho (up, down):  1.296E-02 0.000E+00

     total cpu time spent up to now is        3.2 secs

     total energy              =     -31.94006166 Ry
     Harris-Foulkes estimate   =     -31.95679095 Ry
     estimated scf accuracy    <       0.85855784 Ry

     iteration #  4     ecut=    30.00 Ry     beta=0.70
     Davidson diagonalization with overlap
     ethr =  7.47E-04,  avg # of iterations =  1.0

     negative rho (up, down):  8.757E-04 0.000E+00

     total cpu time spent up to now is        3.3 secs

     total energy              =     -31.88363568 Ry
     Harris-Foulkes estimate   =     -31.94153709 Ry
     estimated scf accuracy    <       0.50849626 Ry

     iteration #  5     ecut=    30.00 Ry     beta=0.70
     Davidson diagonalization with overlap
     ethr =  7.47E-04,  avg # of iterations =  3.0

     negative rho (up, down):  6.505E-04 0.000E+00

     total cpu time spent up to now is        3.3 secs

     total energy              =     -32.00057814 Ry
     Harris-Foulkes estimate   =     -32.02012184 Ry
     estimated scf accuracy    <       1.28874540 Ry

     iteration #  6     ecut=    30.00 Ry     beta=0.70
     Davidson diagonalization with overlap
     ethr =  7.47E-04,  avg # of iterations =  1.0

     negative rho (up, down):  6.371E-04 0.000E+00

     total cpu time spent up to now is        3.3 secs

     total energy              =     -31.98781845 Ry
     Harris-Foulkes estimate   =     -32.00035834 Ry
     estimated scf accuracy    <       1.37557059 Ry

     iteration #  7     ecut=    30.00 Ry     beta=0.70
     Davidson diagonalization with overlap
     ethr =  7.47E-04,  avg # of iterations =  1.0

     negative rho (up, down):  3.794E-04 0.000E+00

     total cpu time spent up to now is        3.3 secs

     total energy              =     -31.88928399 Ry
     Harris-Foulkes estimate   =     -31.98743183 Ry
     estimated scf accuracy    <       1.54523752 Ry

     iteration #  8     ecut=    30.00 Ry     beta=0.70
     Davidson diagonalization with overlap
     ethr =  7.47E-04,  avg # of iterations =  1.0

     negative rho (up, down):  1.255E-05 0.000E+00

     total cpu time spent up to now is        3.4 secs

     total energy              =     -31.93620100 Ry
     Harris-Foulkes estimate   =     -31.95788275 Ry
     estimated scf accuracy    <       0.65652269 Ry

     iteration #  9     ecut=    30.00 Ry     beta=0.70
     Davidson diagonalization with overlap
     ethr =  7.47E-04,  avg # of iterations =  1.0

     total cpu time spent up to now is        3.4 secs

     total energy              =     -31.94449318 Ry
     Harris-Foulkes estimate   =     -31.94423929 Ry
     estimated scf accuracy    <       0.00864060 Ry

     iteration # 10     ecut=    30.00 Ry     beta=0.70
     Davidson diagonalization with overlap
     ethr =  1.08E-04,  avg # of iterations =  1.0

     total cpu time spent up to now is        3.5 secs

     total energy              =     -31.94429184 Ry
     Harris-Foulkes estimate   =     -31.94463007 Ry
     estimated scf accuracy    <       0.03690170 Ry

     iteration # 11     ecut=    30.00 Ry     beta=0.70
     Davidson diagonalization with overlap
     ethr =  1.08E-04,  avg # of iterations =  1.0

     total cpu time spent up to now is        3.5 secs

     total energy              =     -31.94340859 Ry
     Harris-Foulkes estimate   =     -31.94434735 Ry
     estimated scf accuracy    <       0.01639292 Ry

     iteration # 12     ecut=    30.00 Ry     beta=0.70
     Davidson diagonalization with overlap
     ethr =  1.08E-04,  avg # of iterations =  1.0

     total cpu time spent up to now is        3.5 secs

     total energy              =     -31.94471235 Ry
     Harris-Foulkes estimate   =     -31.94445338 Ry
     estimated scf accuracy    <       0.02567191 Ry

     iteration # 13     ecut=    30.00 Ry     beta=0.70
     Davidson diagonalization with overlap
     ethr =  1.08E-04,  avg # of iterations =  1.0

     total cpu time spent up to now is        3.6 secs

     total energy              =     -31.94471763 Ry
     Harris-Foulkes estimate   =     -31.94476417 Ry
     estimated scf accuracy    <       0.05064643 Ry

     iteration # 14     ecut=    30.00 Ry     beta=0.70
     Davidson diagonalization with overlap
     ethr =  1.08E-04,  avg # of iterations =  1.0

     negative rho (up, down):  2.538E-08 0.000E+00

     total cpu time spent up to now is        3.6 secs

     total energy              =     -31.94437886 Ry
     Harris-Foulkes estimate   =     -31.94471851 Ry
     estimated scf accuracy    <       0.04703614 Ry

     iteration # 15     ecut=    30.00 Ry     beta=0.70
     Davidson diagonalization with overlap
     ethr =  1.08E-04,  avg # of iterations =  1.0

     negative rho (up, down):  7.992E-08 0.000E+00

     total cpu time spent up to now is        3.6 secs

     total energy              =     -31.94375460 Ry
     Harris-Foulkes estimate   =     -31.94442762 Ry
     estimated scf accuracy    <       0.02370808 Ry

     iteration # 16     ecut=    30.00 Ry     beta=0.70
     Davidson diagonalization with overlap
     ethr =  1.08E-04,  avg # of iterations =  1.0

     negative rho (up, down):  2.805E-07 0.000E+00

     total cpu time spent up to now is        3.7 secs

     total energy              =     -31.94415094 Ry
     Harris-Foulkes estimate   =     -31.94413241 Ry
     estimated scf accuracy    <       0.00035710 Ry

     iteration # 17     ecut=    30.00 Ry     beta=0.70
     Davidson diagonalization with overlap
     ethr =  4.46E-06,  avg # of iterations =  5.0

     negative rho (up, down):  1.358E-08 0.000E+00

     total cpu time spent up to now is        3.7 secs

     total energy              =     -31.94410339 Ry
     Harris-Foulkes estimate   =     -31.94416763 Ry
     estimated scf accuracy    <       0.00298257 Ry

     iteration # 18     ecut=    30.00 Ry     beta=0.70
     Davidson diagonalization with overlap
     ethr =  4.46E-06,  avg # of iterations =  1.0

     total cpu time spent up to now is        3.7 secs

     total energy              =     -31.94412652 Ry
     Harris-Foulkes estimate   =     -31.94412970 Ry
     estimated scf accuracy    <       0.00008952 Ry

     iteration # 19     ecut=    30.00 Ry     beta=0.70
     Davidson diagonalization with overlap
     ethr =  1.12E-06,  avg # of iterations =  1.0

     total cpu time spent up to now is        3.8 secs

     total energy              =     -31.94412838 Ry
     Harris-Foulkes estimate   =     -31.94412854 Ry
     estimated scf accuracy    <       0.00000907 Ry

     iteration # 20     ecut=    30.00 Ry     beta=0.70
     Davidson diagonalization with overlap
     ethr =  1.13E-07,  avg # of iterations =  1.0

     total cpu time spent up to now is        3.8 secs

     End of self-consistent calculation

          k = 0.0000 0.0000 0.0000 ( 22119 PWs)   bands (ev):

   -24.5641 -10.4863  -7.0112  -7.0104  -6.8712  -0.8141   0.2818   0.8696

     the Fermi energy is    -6.8404 ev

!    total energy              =     -31.94412839 Ry
     Harris-Foulkes estimate   =     -31.94412851 Ry
     estimated scf accuracy    <          6.2E-09 Ry

     convergence has been achieved in  20 iterations

     Forces acting on atoms (Ry/au):

     atom    1 type  1   force =     0.05322143   -0.02373810    0.02258443
     atom    2 type  1   force =    -0.00000472   -0.00014416    0.00039930
     atom    3 type  2   force =    -0.05321670    0.02388226   -0.02298373

     Total force =     0.088526     Total SCF correction =     0.001309

     Entering Dynamics:    iteration =     2
                           time      =   0.0097 pico-seconds


     Andersen thermostat:    3 collisions

ATOMIC_POSITIONS (bohr)
H        3.938495367   0.597309054   5.491094701
H       14.493932862  15.014414406   9.809542460
O        4.502428624  20.164416011   6.084432014


     kinetic energy (Ekin) =     0.04432110 Ry
     temperature           =  2332.57984049 K 
     Ekin + Etot (const)   =   -31.89980729 Ry
     Message from routine dynamics:
     Total linear momentum <> 0

     Linear momentum :   -0.0839447069    0.2621515896   -0.2148964874

     Writing output data file pwscf.save

     first order wave-functions extrapolation
     Check: negative starting charge=   -0.349296
     first order charge density extrapolation
     Check: negative starting charge=   -0.353863

     negative rho (up, down):  2.738E-01 0.000E+00

     total cpu time spent up to now is        4.1 secs

     per-process dynamical memory:    20.4 Mb

     Self-consistent Calculation

     iteration #  1     ecut=    30.00 Ry     beta=0.70
     Davidson diagonalization with overlap
     c_bands:  1 eigenvalues not converged
     ethr =  1.00E-06,  avg # of iterations = 20.0

     negative rho (up, down):  7.184E-02 0.000E+00

     total cpu time spent up to now is        4.3 secs

     total energy              =     -28.80606737 Ry
     Harris-Foulkes estimate   =     -30.34134516 Ry
     estimated scf accuracy    <       1.85906007 Ry

     iteration #  2     ecut=    30.00 Ry     beta=0.70
     Davidson diagonalization with overlap
     ethr =  1.00E-02,  avg # of iterations =  3.0

     negative rho (up, down):  1.469E-02 0.000E+00

     total cpu time spent up to now is        4.3 secs

     total energy              =     -27.73374362 Ry
     Harris-Foulkes estimate   =     -32.53577580 Ry
     estimated scf accuracy    <      16.59457362 Ry

     iteration #  3     ecut=    30.00 Ry     beta=0.70
     Davidson diagonalization with overlap
     ethr =  1.00E-02,  avg # of iterations =  6.0

     negative rho (up, down):  1.511E-02 0.000E+00

     total cpu time spent up to now is        4.4 secs

     total energy              =     -29.73066227 Ry
     Harris-Foulkes estimate   =     -29.93418437 Ry
     estimated scf accuracy    <       1.67001854 Ry

     iteration #  4     ecut=    30.00 Ry     beta=0.70
     Davidson diagonalization with overlap
     ethr =  1.00E-02,  avg # of iterations =  1.0

     negative rho (up, down):  3.080E-01 0.000E+00

     total cpu time spent up to now is        4.4 secs

     total energy              =     -29.15522748 Ry
     Harris-Foulkes estimate   =     -29.74111006 Ry
     estimated scf accuracy    <       1.27006924 Ry

     iteration #  5     ecut=    30.00 Ry     beta=0.70
     Davidson diagonalization with overlap
     ethr =  1.00E-02,  avg # of iterations =  1.0

     negative rho (up, down):  2.244E-01 0.000E+00

     total cpu time spent up to now is        4.4 secs

     total energy              =     -29.20473035 Ry
     Harris-Foulkes estimate   =     -29.26695154 Ry
     estimated scf accuracy    <       0.44622781 Ry

     iteration #  6     ecut=    30.00 Ry     beta=0.70
     Davidson diagonalization with overlap
     ethr =  5.58E-03,  avg # of iterations =  5.0

     negative rho (up, down):  3.224E-02 0.000E+00

     total cpu time spent up to now is        4.5 secs

     total energy              =     -30.31224261 Ry
     Harris-Foulkes estimate   =     -30.65655163 Ry
     estimated scf accuracy    <       2.04259599 Ry

     iteration #  7     ecut=    30.00 Ry     beta=0.70
     Davidson diagonalization with overlap
     ethr =  5.58E-03,  avg # of iterations =  1.0

     negative rho (up, down):  1.497E-01 0.000E+00

     total cpu time spent up to now is        4.5 secs

     total energy              =     -30.64724411 Ry
     Harris-Foulkes estimate   =     -30.31604627 Ry
     estimated scf accuracy    <       1.48997036 Ry

     iteration #  8     ecut=    30.00 Ry     beta=0.70
     Davidson diagonalization with overlap
     ethr =  5.58E-03,  avg # of iterations =  1.0

     negative rho (up, down):  1.579E-01 0.000E+00

     total cpu time spent up to now is        4.5 secs

     total energy              =     -30.88247389 Ry
     Harris-Foulkes estimate   =     -30.64977018 Ry
     estimated scf accuracy    <       1.98262466 Ry

     iteration #  9     ecut=    30.00 Ry     beta=0.70
     Davidson diagonalization with overlap
     ethr =  5.58E-03,  avg # of iterations =  1.0

     negative rho (up, down):  1.379E-01 0.000E+00

     total cpu time spent up to now is        4.6 secs

     total energy              =     -31.03786343 Ry
     Harris-Foulkes estimate   =     -30.88411169 Ry
     estimated scf accuracy    <       2.33037696 Ry

     iteration # 10     ecut=    30.00 Ry     beta=0.70
     Davidson diagonalization with overlap
     ethr =  5.58E-03,  avg # of iterations =  1.0

     negative rho (up, down):  4.783E-01 0.000E+00

     total cpu time spent up to now is        4.6 secs

     total energy              =     -29.07068997 Ry
     Harris-Foulkes estimate   =     -31.03828324 Ry
     estimated scf accuracy    <       2.54329537 Ry

     iteration # 11     ecut=    30.00 Ry     beta=0.70
     Davidson diagonalization with overlap
     ethr =  5.58E-03,  avg # of iterations =  6.0

     negative rho (up, down):  1.342E-01 0.000E+00

     total cpu time spent up to now is        4.6 secs

     total energy              =     -31.72320447 Ry
     Harris-Foulkes estimate   =     -35.32683015 Ry
     estimated scf accuracy    <      30.68441093 Ry

     iteration # 12     ecut=    30.00 Ry     beta=0.70
     Davidson diagonalization with overlap
     ethr =  5.58E-03,  avg # of iterations =  2.0

     negative rho (up, down):  6.298E-02 0.000E+00

     total cpu time spent up to now is        4.7 secs

     total energy              =     -30.23559370 Ry
     Harris-Foulkes estimate   =     -31.81675778 Ry
     estimated scf accuracy    <      24.23392830 Ry

     iteration # 13     ecut=    30.00 Ry     beta=0.70
     Davidson diagonalization with overlap
     ethr =  5.58E-03,  avg # of iterations =  5.0

     negative rho (up, down):  1.245E-01 0.000E+00

     total cpu time spent up to now is        4.7 secs

     total energy              =     -32.10548301 Ry
     Harris-Foulkes estimate   =     -31.00111077 Ry
     estimated scf accuracy    <       9.82048427 Ry

     iteration # 14     ecut=    30.00 Ry     beta=0.70
     Davidson diagonalization with overlap
     ethr =  5.58E-03,  avg # of iterations =  2.0

     negative rho (up, down):  1.781E-01 0.000E+00

     total cpu time spent up to now is        4.8 secs

     total energy              =     -32.34197019 Ry
     Harris-Foulkes estimate   =     -32.13841296 Ry
     estimated scf accuracy    <      11.72101621 Ry

     iteration # 15     ecut=    30.00 Ry     beta=0.70
     Davidson diagonalization with overlap
     ethr =  5.58E-03,  avg # of iterations =  2.0

     negative rho (up, down):  1.388E-01 0.000E+00

     total cpu time spent up to now is        4.8 secs

     total energy              =     -31.87487058 Ry
     Harris-Foulkes estimate   =     -32.38354729 Ry
     estimated scf accuracy    <      12.15218519 Ry

     iteration # 16     ecut=    30.00 Ry     beta=0.70
     Davidson diagonalization with overlap
     ethr =  5.58E-03,  avg # of iterations =  2.0

     negative rho (up, down):  6.106E-01 0.000E+00

     total cpu time spent up to now is        4.9 secs

     total energy              =     -34.89485722 Ry
     Harris-Foulkes estimate   =     -31.91161566 Ry
     estimated scf accuracy    <      11.78659712 Ry

     iteration # 17     ecut=    30.00 Ry     beta=0.70
     Davidson diagonalization with overlap
     ethr =  5.58E-03,  avg # of iterations =  4.0

     negative rho (up, down):  3.409E-01 0.000E+00

     total cpu time spent up to now is        4.9 secs

     total energy              =     -32.23239353 Ry
     Harris-Foulkes estimate   =     -35.82813864 Ry
     estimated scf accuracy    <      30.74748139 Ry

     iteration # 18     ecut=    30.00 Ry     beta=0.70
     Davidson diagonalization with overlap
     ethr =  5.58E-03,  avg # of iterations =  2.0

     negative rho (up, down):  5.413E-02 0.000E+00

     total cpu time spent up to now is        4.9 secs

     total energy              =     -26.77125624 Ry
     Harris-Foulkes estimate   =     -32.40689845 Ry
     estimated scf accuracy    <      25.04147189 Ry

     iteration # 19     ecut=    30.00 Ry     beta=0.70
     Davidson diagonalization with overlap
     ethr =  5.58E-03,  avg # of iterations =  7.0

     negative rho (up, down):  2.411E-01 0.000E+00

     total cpu time spent up to now is        5.0 secs

     total energy              =     -29.08496908 Ry
     Harris-Foulkes estimate   =     -29.82181673 Ry
     estimated scf accuracy    <       1.11493401 Ry

     iteration # 20     ecut=    30.00 Ry     beta=0.70
     Davidson diagonalization with overlap
     ethr =  5.58E-03,  avg # of iterations =  6.0

     negative rho (up, down):  2.175E-03 0.000E+00

     total cpu time spent up to now is        5.0 secs

     total energy              =     -30.23924774 Ry
     Harris-Foulkes estimate   =     -31.27544546 Ry
     estimated scf accuracy    <       2.98540879 Ry

     iteration # 21     ecut=    30.00 Ry     beta=0.70
     Davidson diagonalization with overlap
     ethr =  5.58E-03,  avg # of iterations =  2.0

     negative rho (up, down):  1.550E-02 0.000E+00

     total cpu time spent up to now is        5.1 secs

     total energy              =     -29.82490138 Ry
     Harris-Foulkes estimate   =     -30.26574930 Ry
     estimated scf accuracy    <       1.41730175 Ry

     iteration # 22     ecut=    30.00 Ry     beta=0.70
     Davidson diagonalization with overlap
     ethr =  5.58E-03,  avg # of iterations =  2.0

     negative rho (up, down):  1.147E-03 0.000E+00

     total cpu time spent up to now is        5.1 secs

     total energy              =     -29.74503255 Ry
     Harris-Foulkes estimate   =     -29.90505025 Ry
     estimated scf accuracy    <       1.60838192 Ry

     iteration # 23     ecut=    30.00 Ry     beta=0.70
     Davidson diagonalization with overlap
     ethr =  5.58E-03,  avg # of iterations =  1.0

     negative rho (up, down):  2.677E-04 0.000E+00

     total cpu time spent up to now is        5.1 secs

     total energy              =     -29.93836335 Ry
     Harris-Foulkes estimate   =     -29.96524665 Ry
     estimated scf accuracy    <       0.96054006 Ry

     iteration # 24     ecut=    30.00 Ry     beta=0.70
     Davidson diagonalization with overlap
     ethr =  5.58E-03,  avg # of iterations =  1.0

     negative rho (up, down):  7.523E-03 0.000E+00

     total cpu time spent up to now is        5.2 secs

     total energy              =     -29.83439952 Ry
     Harris-Foulkes estimate   =     -29.93841215 Ry
     estimated scf accuracy    <       0.92703559 Ry

     iteration # 25     ecut=    30.00 Ry     beta=0.70
     Davidson diagonalization with overlap
     ethr =  5.58E-03,  avg # of iterations =  1.0

     negative rho (up, down):  4.219E-02 0.000E+00

     total cpu time spent up to now is        5.2 secs

     total energy              =     -30.01193540 Ry
     Harris-Foulkes estimate   =     -29.90077756 Ry
     estimated scf accuracy    <       1.43871176 Ry

     iteration # 26     ecut=    30.00 Ry     beta=0.70
     Davidson diagonalization with overlap
     ethr =  5.58E-03,  avg # of iterations =  1.0

     negative rho (up, down):  1.313E-03 0.000E+00

     total cpu time spent up to now is        5.2 secs

     total energy              =     -29.86547242 Ry
     Harris-Foulkes estimate   =     -30.01732364 Ry
     estimated scf accuracy    <       1.53822404 Ry

     iteration # 27     ecut=    30.00 Ry     beta=0.70
     Davidson diagonalization with overlap
     ethr =  5.58E-03,  avg # of iterations =  1.0

     negative rho (up, down):  2.654E-03 0.000E+00

     total cpu time spent up to now is        5.3 secs

     total energy              =     -29.87537049 Ry
     Harris-Foulkes estimate   =     -29.87899202 Ry
     estimated scf accuracy    <       0.05634116 Ry

     iteration # 28     ecut=    30.00 Ry     beta=0.70
     Davidson diagonalization with overlap
     ethr =  7.04E-04,  avg # of iterations =  1.0

     negative rho (up, down):  4.119E-03 0.000E+00

     total cpu time spent up to now is        5.3 secs

     total energy              =     -29.88035285 Ry
     Harris-Foulkes estimate   =     -29.90850214 Ry
     estimated scf accuracy    <       0.85568246 Ry

     iteration # 29     ecut=    30.00 Ry     beta=0.70
     Davidson diagonalization with overlap
     ethr =  7.04E-04,  avg # of iterations =  1.0

     negative rho (up, down):  4.296E-03 0.000E+00

     total cpu time spent up to now is        5.3 secs

     total energy              =     -29.88237513 Ry
     Harris-Foulkes estimate   =     -29.88383724 Ry
     estimated scf accuracy    <       0.33847009 Ry

     iteration # 30     ecut=    30.00 Ry     beta=0.70
     Davidson diagonalization with overlap
     ethr =  7.04E-04,  avg # of iterations =  1.0

     negative rho (up, down):  7.861E-03 0.000E+00

     total cpu time spent up to now is        5.4 secs

     total energy              =     -29.85998116 Ry
     Harris-Foulkes estimate   =     -29.88252956 Ry
     estimated scf accuracy    <       0.25424244 Ry

     iteration # 31     ecut=    30.00 Ry     beta=0.70
     Davidson diagonalization with overlap
     ethr =  7.04E-04,  avg # of iterations =  1.0

     negative rho (up, down):  5.960E-04 0.000E+00

     total cpu time spent up to now is        5.4 secs

     total energy              =     -29.80373455 Ry
     Harris-Foulkes estimate   =     -29.88989523 Ry
     estimated scf accuracy    <       1.07356636 Ry

     iteration # 32     ecut=    30.00 Ry     beta=0.70
     Davidson diagonalization with overlap
     ethr =  7.04E-04,  avg # of iterations =  1.0

     negative rho (up, down):  6.408E-04 0.000E+00

     total cpu time spent up to now is        5.4 secs

     total energy              =     -29.90215612 Ry
     Harris-Foulkes estimate   =     -29.91592754 Ry
     estimated scf accuracy    <       0.88425852 Ry

     iteration # 33     ecut=    30.00 Ry     beta=0.70
     Davidson diagonalization with overlap
     ethr =  7.04E-04,  avg # of iterations =  1.0

     negative rho (up, down):  3.315E-04 0.000E+00

     total cpu time spent up to now is        5.5 secs

     total energy              =     -29.88720525 Ry
     Harris-Foulkes estimate   =     -29.90231006 Ry
     estimated scf accuracy    <       0.83771497 Ry

     iteration # 34     ecut=    30.00 Ry     beta=0.70
     Davidson diagonalization with overlap
     ethr =  7.04E-04,  avg # of iterations =  1.0

     negative rho (up, down):  1.836E-04 0.000E+00

     total cpu time spent up to now is        5.5 secs

     total energy              =     -29.85879617 Ry
     Harris-Foulkes estimate   =     -29.88792546 Ry
     estimated scf accuracy    <       0.63473214 Ry

     iteration # 35     ecut=    30.00 Ry     beta=0.70
     Davidson diagonalization with overlap
     ethr =  7.04E-04,  avg # of iterations =  1.0

     negative rho (up, down):  7.231E-05 0.000E+00

     total cpu time spent up to now is        5.5 secs

     total energy              =     -29.86898827 Ry
     Harris-Foulkes estimate   =     -29.87538433 Ry
     estimated scf accuracy    <       0.09031326 Ry

     iteration # 36     ecut=    30.00 Ry     beta=0.70
     Davidson diagonalization with overlap
     ethr =  7.04E-04,  avg # of iterations =  1.0

     negative rho (up, down):  7.844E-08 0.000E+00

     total cpu time spent up to now is        5.6 secs

     total energy              =     -29.87549890 Ry
     Harris-Foulkes estimate   =     -29.87744416 Ry
     estimated scf accuracy    <       0.21428460 Ry

     iteration # 37     ecut=    30.00 Ry     beta=0.70
     Davidson diagonalization with overlap
     ethr =  7.04E-04,  avg # of iterations =  1.0

     total cpu time spent up to now is        5.6 secs

     total energy              =     -29.87369446 Ry
     Harris-Foulkes estimate   =     -29.87576146 Ry
     estimated scf accuracy    <       0.11201243 Ry

     iteration # 38     ecut=    30.00 Ry     beta=0.70
     Davidson diagonalization with overlap
     ethr =  7.04E-04,  avg # of iterations =  1.0

     total cpu time spent up to now is        5.6 secs

     total energy              =     -29.87410881 Ry
     Harris-Foulkes estimate   =     -29.87434092 Ry
     estimated scf accuracy    <       0.01384334 Ry

     iteration # 39     ecut=    30.00 Ry     beta=0.70
     Davidson diagonalization with overlap
     ethr =  1.73E-04,  avg # of iterations =  1.0

     total cpu time spent up to now is        5.7 secs

     total energy              =     -29.87414239 Ry
     Harris-Foulkes estimate   =     -29.87417986 Ry
     estimated scf accuracy    <       0.00191486 Ry

     iteration # 40     ecut=    30.00 Ry     beta=0.70
     Davidson diagonalization with overlap
     ethr =  2.39E-05,  avg # of iterations =  3.0

     total cpu time spent up to now is        5.7 secs

     total energy              =     -29.87415145 Ry
     Harris-Foulkes estimate   =     -29.87415575 Ry
     estimated scf accuracy    <       0.00014572 Ry

     iteration # 41     ecut=    30.00 Ry     beta=0.70
     Davidson diagonalization with overlap
     ethr =  1.82E-06,  avg # of iterations =  9.0

     total cpu time spent up to now is        5.7 secs

     total energy              =     -29.87415368 Ry
     Harris-Foulkes estimate   =     -29.87415387 Ry
     estimated scf accuracy    <       0.00000278 Ry

     iteration # 42     ecut=    30.00 Ry     beta=0.70
     Davidson diagonalization with overlap
     ethr =  3.47E-08,  avg # of iterations =  1.0

     total cpu time spent up to now is        5.8 secs

     total energy              =     -29.87415372 Ry
     Harris-Foulkes estimate   =     -29.87415396 Ry
     estimated scf accuracy    <       0.00000890 Ry

     iteration # 43     ecut=    30.00 Ry     beta=0.70
     Davidson diagonalization with overlap
     ethr =  3.47E-08,  avg # of iterations =  1.0

     total cpu time spent up to now is        5.8 secs

     total energy              =     -29.87415380 Ry
     Harris-Foulkes estimate   =     -29.87415381 Ry
     estimated scf accuracy    <       0.00000011 Ry

     iteration # 44     ecut=    30.00 Ry     beta=0.70
     Davidson diagonalization with overlap
     ethr =  1.36E-09,  avg # of iterations =  1.0

     total cpu time spent up to now is        5.8 secs

     End of self-consistent calculation

          k = 0.0000 0.0000 0.0000 ( 22119 PWs)   bands (ev):

   -30.5386 -11.8819  -7.3866  -7.3858  -7.2311  -0.3214   0.5998   0.8151

     the Fermi energy is    -7.2105 ev

!    total energy              =     -29.87415381 Ry
     Harris-Foulkes estimate   =     -29.87415381 Ry
     estimated scf accuracy    <          5.3E-11 Ry

     convergence has been achieved in  44 iterations

     Forces acting on atoms (Ry/au):

     atom    1 type  1   force =    -5.07506120    3.89671788   -5.33948324
     atom    2 type  1   force =    -0.00050235    0.00017676   -0.00009574
     atom    3 type  2   force =     5.07556355   -3.89689464    5.33957898

     Total force =    11.785965     Total SCF correction =     0.000003

     Entering Dynamics:    iteration =     3
                           time      =   0.0145 pico-seconds


     Andersen thermostat:    3 collisions

ATOMIC_POSITIONS (bohr)
H      -51.069318701  42.899146084 -52.016216460
H       14.722043964  15.363097124   9.510043702
O        7.960397374  17.472101952   9.733486890


     kinetic energy (Ekin) =    98.54565662 Ry
     temperature           = ************** K 
     Ekin + Etot (const)   =    68.67150281 Ry
     Message from routine dynamics:
     Total linear momentum <> 0

     Linear momentum :    0.1118877834   -0.0072007441   -0.2099558970

     Writing output data file pwscf.save

     second order wave-functions extrapolation
     Message from extrapolate_wfcs: 
     the matrix <psi(t-dt)|psi(t)> has  1 small (< 0.1) eigenvalues
     Check: negative starting charge=   -0.353863
     second order charge density extrapolation
     Check: negative starting charge=   -0.335236

     negative rho (up, down):  4.053E+01 0.000E+00

     total cpu time spent up to now is        6.1 secs

     per-process dynamical memory:    20.4 Mb

     Self-consistent Calculation

     iteration #  1     ecut=    30.00 Ry     beta=0.70
     Davidson diagonalization with overlap
     c_bands:  3 eigenvalues not converged
     ethr =  1.00E-06,  avg # of iterations = 40.0

     negative rho (up, down):  1.162E+01 0.000E+00

     total cpu time spent up to now is        6.4 secs

     total energy              =      56.94962047 Ry
     Harris-Foulkes estimate   =   -3012.33400121 Ry
     estimated scf accuracy    <     647.53942881 Ry

     iteration #  2     ecut=    30.00 Ry     beta=0.70
     Davidson diagonalization with overlap
     ethr =  1.00E-02,  avg # of iterations = 12.0

     negative rho (up, down):  4.698E-01 0.000E+00

     total cpu time spent up to now is        6.5 secs

     total energy              =     -13.66011179 Ry
     Harris-Foulkes estimate   =   -2155.64607224 Ry
     estimated scf accuracy    <     106.85872979 Ry

     iteration #  3     ecut=    30.00 Ry     beta=0.70
     Davidson diagonalization with overlap
     ethr =  1.00E-02,  avg # of iterations =  9.0

     negative rho (up, down):  5.024E-01 0.000E+00

     total cpu time spent up to now is        6.5 secs

     total energy              =     161.08470243 Ry
     Harris-Foulkes estimate   =   -2585.12304879 Ry
     estimated scf accuracy    <      23.23642398 Ry

     iteration #  4     ecut=    30.00 Ry     beta=0.70
     Davidson diagonalization with overlap
     ethr =  1.00E-02,  avg # of iterations = 12.0

     negative rho (up, down):  8.668E-03 0.000E+00

     total cpu time spent up to now is        6.6 secs

     total energy              =      70.02222946 Ry
     Harris-Foulkes estimate   =    -503.77989522 Ry
     estimated scf accuracy    <      40.80703821 Ry

     iteration #  5     ecut=    30.00 Ry     beta=0.70
     Davidson diagonalization with overlap
     ethr =  1.00E-02,  avg # of iterations =  8.0

     negative rho (up, down):  1.166E-02 0.000E+00

     total cpu time spent up to now is        6.6 secs

     total energy              =     -18.94478003 Ry
     Harris-Foulkes estimate   =    -223.97321865 Ry
     estimated scf accuracy    <      39.18156144 Ry

     iteration #  6     ecut=    30.00 Ry     beta=0.70
     Davidson diagonalization with overlap
     ethr =  1.00E-02,  avg # of iterations =  6.0

     negative rho (up, down):  9.363E-02 0.000E+00

     total cpu time spent up to now is        6.7 secs

     total energy              =     -22.54965981 Ry
     Harris-Foulkes estimate   =    -102.24413803 Ry
     estimated scf accuracy    <      36.26533276 Ry

     iteration #  7     ecut=    30.00 Ry     beta=0.70
     Davidson diagonalization with overlap
     ethr =  1.00E-02,  avg # of iterations =  4.0

     negative rho (up, down):  1.227E-01 0.000E+00

     total cpu time spent up to now is        6.7 secs

     total energy              =     -21.18862243 Ry
     Harris-Foulkes estimate   =    -235.79542725 Ry
     estimated scf accuracy    <      32.29272799 Ry

     iteration #  8     ecut=    30.00 Ry     beta=0.70
     Davidson diagonalization with overlap
     ethr =  1.00E-02,  avg # of iterations =  5.0

     negative rho (up, down):  9.384E-02 0.000E+00

     total cpu time spent up to now is        6.7 secs

     total energy              =     -72.99648494 Ry
     Harris-Foulkes estimate   =     -72.00224161 Ry
     estimated scf accuracy    <      55.29496909 Ry

     iteration #  9     ecut=    30.00 Ry     beta=0.70
     Davidson diagonalization with overlap
     ethr =  1.00E-02,  avg # of iterations =  4.0

     negative rho (up, down):  9.898E-02 0.000E+00

     total cpu time spent up to now is        6.8 secs

     total energy              =    -362.14567839 Ry
     Harris-Foulkes estimate   =    -290.95423830 Ry
     estimated scf accuracy    <      31.09298185 Ry

     iteration # 10     ecut=    30.00 Ry     beta=0.70
     Davidson diagonalization with overlap
     ethr =  1.00E-02,  avg # of iterations =  3.0

     negative rho (up, down):  5.816E-01 0.000E+00

     total cpu time spent up to now is        6.8 secs

     total energy              =    -403.47536016 Ry
     Harris-Foulkes estimate   =    -838.24766559 Ry
     estimated scf accuracy    <      29.18397459 Ry

     iteration # 11     ecut=    30.00 Ry     beta=0.70
     Davidson diagonalization with overlap
     ethr =  1.00E-02,  avg # of iterations =  6.0

     negative rho (up, down):  6.960E-01 0.000E+00

     total cpu time spent up to now is        6.9 secs

     total energy              =     127.93834653 Ry
     Harris-Foulkes estimate   =   -7430.10685081 Ry
     estimated scf accuracy    <      32.39087919 Ry

     iteration # 12     ecut=    30.00 Ry     beta=0.70
     Davidson diagonalization with overlap
     ethr =  1.00E-02,  avg # of iterations =  9.0

     negative rho (up, down):  7.768E-01 0.000E+00

     total cpu time spent up to now is        6.9 secs

     total energy              =    -105.64690452 Ry
     Harris-Foulkes estimate   =    -161.08162111 Ry
     estimated scf accuracy    <      18.64632868 Ry

     iteration # 13     ecut=    30.00 Ry     beta=0.70
     Davidson diagonalization with overlap
     ethr =  1.00E-02,  avg # of iterations =  5.0

     negative rho (up, down):  7.719E-01 0.000E+00

     total cpu time spent up to now is        7.0 secs

     total energy              =     136.78572940 Ry
     Harris-Foulkes estimate   =   -7628.71094441 Ry
     estimated scf accuracy    <      28.65410642 Ry

     iteration # 14     ecut=    30.00 Ry     beta=0.70
     Davidson diagonalization with overlap
     ethr =  1.00E-02,  avg # of iterations =  7.0

     negative rho (up, down):  1.662E-01 0.000E+00

     total cpu time spent up to now is        7.0 secs

     total energy              =       5.17803474 Ry
     Harris-Foulkes estimate   =    -531.17227102 Ry
     estimated scf accuracy    <      10.20709540 Ry

     iteration # 15     ecut=    30.00 Ry     beta=0.70
     Davidson diagonalization with overlap
     ethr =  1.00E-02,  avg # of iterations =  5.0

     negative rho (up, down):  2.348E-01 0.000E+00

     total cpu time spent up to now is        7.1 secs

     total energy              =      97.46928642 Ry
     Harris-Foulkes estimate   =   -4496.14203885 Ry
     estimated scf accuracy    <      20.93264846 Ry

     iteration # 16     ecut=    30.00 Ry     beta=0.70
     Davidson diagonalization with overlap
     ethr =  1.00E-02,  avg # of iterations =  6.0

     negative rho (up, down):  5.482E-02 0.000E+00

     total cpu time spent up to now is        7.1 secs

     total energy              =      -2.39634363 Ry
     Harris-Foulkes estimate   =    -192.14246065 Ry
     estimated scf accuracy    <      13.19877234 Ry

     iteration # 17     ecut=    30.00 Ry     beta=0.70
     Davidson diagonalization with overlap
     ethr =  1.00E-02,  avg # of iterations =  5.0

     negative rho (up, down):  6.656E-02 0.000E+00

     total cpu time spent up to now is        7.2 secs

     total energy              =      -5.59377634 Ry
     Harris-Foulkes estimate   =    -114.45749918 Ry
     estimated scf accuracy    <      15.03138476 Ry

     iteration # 18     ecut=    30.00 Ry     beta=0.70
     Davidson diagonalization with overlap
     ethr =  1.00E-02,  avg # of iterations =  6.0

     negative rho (up, down):  5.014E-03 0.000E+00

     total cpu time spent up to now is        7.2 secs

     total energy              =      26.77634401 Ry
     Harris-Foulkes estimate   =    -121.55743460 Ry
     estimated scf accuracy    <       9.58839011 Ry

     iteration # 19     ecut=    30.00 Ry     beta=0.70
     Davidson diagonalization with overlap
     ethr =  1.00E-02,  avg # of iterations =  5.0

     negative rho (up, down):  7.706E-04 0.000E+00

     total cpu time spent up to now is        7.3 secs

     total energy              =      -5.72475683 Ry
     Harris-Foulkes estimate   =     -63.00123256 Ry
     estimated scf accuracy    <       9.68427191 Ry

     iteration # 20     ecut=    30.00 Ry     beta=0.70
     Davidson diagonalization with overlap
     ethr =  1.00E-02,  avg # of iterations =  4.0

     negative rho (up, down):  1.053E-03 0.000E+00

     total cpu time spent up to now is        7.3 secs

     total energy              =     -47.43634247 Ry
     Harris-Foulkes estimate   =     -47.41224914 Ry
     estimated scf accuracy    <      23.08377250 Ry

     iteration # 21     ecut=    30.00 Ry     beta=0.70
     Davidson diagonalization with overlap
     ethr =  1.00E-02,  avg # of iterations =  4.0

     negative rho (up, down):  1.284E-03 0.000E+00

     total cpu time spent up to now is        7.3 secs

     total energy              =      -3.83949323 Ry
     Harris-Foulkes estimate   =    -110.30197503 Ry
     estimated scf accuracy    <      12.13720240 Ry

     iteration # 22     ecut=    30.00 Ry     beta=0.70
     Davidson diagonalization with overlap
     ethr =  1.00E-02,  avg # of iterations =  4.0

     negative rho (up, down):  6.660E-02 0.000E+00

     total cpu time spent up to now is        7.4 secs

     total energy              =     -48.42822932 Ry
     Harris-Foulkes estimate   =     -47.17723589 Ry
     estimated scf accuracy    <      22.75302278 Ry

     iteration # 23     ecut=    30.00 Ry     beta=0.70
     Davidson diagonalization with overlap
     ethr =  1.00E-02,  avg # of iterations =  7.0

     negative rho (up, down):  3.077E-05 0.000E+00

     total cpu time spent up to now is        7.4 secs

     total energy              =      76.20364670 Ry
     Harris-Foulkes estimate   =   -1669.16212838 Ry
     estimated scf accuracy    <      18.96093601 Ry

     iteration # 24     ecut=    30.00 Ry     beta=0.70
     Davidson diagonalization with overlap
     ethr =  1.00E-02,  avg # of iterations =  7.0

     negative rho (up, down):  6.890E-02 0.000E+00

     total cpu time spent up to now is        7.5 secs

     total energy              =     -48.90234550 Ry
     Harris-Foulkes estimate   =     -47.34023332 Ry
     estimated scf accuracy    <      23.09765579 Ry

     iteration # 25     ecut=    30.00 Ry     beta=0.70
     Davidson diagonalization with overlap
     ethr =  1.00E-02,  avg # of iterations = 10.0

     negative rho (up, down):  5.535E-02 0.000E+00

     total cpu time spent up to now is        7.5 secs

     total energy              =     107.87716981 Ry
     Harris-Foulkes estimate   =    -170.50510929 Ry
     estimated scf accuracy    <      31.43901099 Ry

     iteration # 26     ecut=    30.00 Ry     beta=0.70
     Davidson diagonalization with overlap
     ethr =  1.00E-02,  avg # of iterations =  9.0

     negative rho (up, down):  1.139E-04 0.000E+00

     total cpu time spent up to now is        7.6 secs

     total energy              =      -4.59178003 Ry
     Harris-Foulkes estimate   =    -139.23073316 Ry
     estimated scf accuracy    <      13.52468261 Ry

     iteration # 27     ecut=    30.00 Ry     beta=0.70
     Davidson diagonalization with overlap
     ethr =  1.00E-02,  avg # of iterations =  5.0

     negative rho (up, down):  1.385E-02 0.000E+00

     total cpu time spent up to now is        7.6 secs

     total energy              =     -46.47179239 Ry
     Harris-Foulkes estimate   =     -46.94979235 Ry
     estimated scf accuracy    <      22.66379536 Ry

     iteration # 28     ecut=    30.00 Ry     beta=0.70
     Davidson diagonalization with overlap
     ethr =  1.00E-02,  avg # of iterations =  1.0

     negative rho (up, down):  1.658E-02 0.000E+00

     total cpu time spent up to now is        7.6 secs

     total energy              =     -46.27490592 Ry
     Harris-Foulkes estimate   =     -46.47213385 Ry
     estimated scf accuracy    <      21.91583437 Ry

     iteration # 29     ecut=    30.00 Ry     beta=0.70
     Davidson diagonalization with overlap
     ethr =  1.00E-02,  avg # of iterations =  1.0

     negative rho (up, down):  8.209E-05 0.000E+00

     total cpu time spent up to now is        7.7 secs

     total energy              =     -46.28628569 Ry
     Harris-Foulkes estimate   =     -46.27516039 Ry
     estimated scf accuracy    <      21.79588507 Ry

     iteration # 30     ecut=    30.00 Ry     beta=0.70
     Davidson diagonalization with overlap
     ethr =  1.00E-02,  avg # of iterations =  1.0

     negative rho (up, down):  4.435E-02 0.000E+00

     total cpu time spent up to now is        7.7 secs

     total energy              =     -45.63302338 Ry
     Harris-Foulkes estimate   =     -46.28660646 Ry
     estimated scf accuracy    <      21.83987688 Ry

     iteration # 31     ecut=    30.00 Ry     beta=0.70
     Davidson diagonalization with overlap
     ethr =  1.00E-02,  avg # of iterations =  5.0

     negative rho (up, down):  3.416E-02 0.000E+00

     total cpu time spent up to now is        7.8 secs

     total energy              =      -5.06065008 Ry
     Harris-Foulkes estimate   =     -98.11569852 Ry
     estimated scf accuracy    <      13.09402981 Ry

     iteration # 32     ecut=    30.00 Ry     beta=0.70
     Davidson diagonalization with overlap
     ethr =  1.00E-02,  avg # of iterations =  4.0

     negative rho (up, down):  2.228E-05 0.000E+00

     total cpu time spent up to now is        7.8 secs

     total energy              =      45.83220755 Ry
     Harris-Foulkes estimate   =    -429.61488850 Ry
     estimated scf accuracy    <      12.00845964 Ry

     iteration # 33     ecut=    30.00 Ry     beta=0.70
     Davidson diagonalization with overlap
     ethr =  1.00E-02,  avg # of iterations =  7.0

     negative rho (up, down):  1.795E-02 0.000E+00

     total cpu time spent up to now is        7.8 secs

     total energy              =     -45.30958822 Ry
     Harris-Foulkes estimate   =     -45.48677615 Ry
     estimated scf accuracy    <      20.94263949 Ry

     iteration # 34     ecut=    30.00 Ry     beta=0.70
     Davidson diagonalization with overlap
     ethr =  1.00E-02,  avg # of iterations =  1.0

     negative rho (up, down):  6.895E-02 0.000E+00

     total cpu time spent up to now is        7.9 secs

     total energy              =     -49.11392056 Ry
     Harris-Foulkes estimate   =     -45.30978160 Ry
     estimated scf accuracy    <      20.69489885 Ry

     iteration # 35     ecut=    30.00 Ry     beta=0.70
     Davidson diagonalization with overlap
     ethr =  1.00E-02,  avg # of iterations =  7.0

     negative rho (up, down):  3.330E-04 0.000E+00

     total cpu time spent up to now is        7.9 secs

     total energy              =      41.25885729 Ry
     Harris-Foulkes estimate   =    -191.13615572 Ry
     estimated scf accuracy    <      14.45038269 Ry

     iteration # 36     ecut=    30.00 Ry     beta=0.70
     Davidson diagonalization with overlap
     ethr =  1.00E-02,  avg # of iterations =  4.0

     negative rho (up, down):  1.315E-03 0.000E+00

     total cpu time spent up to now is        8.0 secs

     total energy              =      -6.97940708 Ry
     Harris-Foulkes estimate   =     -69.27891981 Ry
     estimated scf accuracy    <      14.11556028 Ry

     iteration # 37     ecut=    30.00 Ry     beta=0.70
     Davidson diagonalization with overlap
     ethr =  1.00E-02,  avg # of iterations =  4.0

     negative rho (up, down):  9.500E-03 0.000E+00

     total cpu time spent up to now is        8.0 secs

     total energy              =       1.13883914 Ry
     Harris-Foulkes estimate   =    -195.80290539 Ry
     estimated scf accuracy    <       8.38295909 Ry

     iteration # 38     ecut=    30.00 Ry     beta=0.70
     Davidson diagonalization with overlap
     ethr =  1.00E-02,  avg # of iterations =  5.0

     negative rho (up, down):  2.598E-02 0.000E+00

     total cpu time spent up to now is        8.1 secs

     total energy              =     -44.64419501 Ry
     Harris-Foulkes estimate   =     -45.81021685 Ry
     estimated scf accuracy    <      20.94930404 Ry

     iteration # 39     ecut=    30.00 Ry     beta=0.70
     Davidson diagonalization with overlap
     ethr =  1.00E-02,  avg # of iterations =  6.0

     negative rho (up, down):  1.746E-02 0.000E+00

     total cpu time spent up to now is        8.1 secs

     total energy              =     104.85817123 Ry
     Harris-Foulkes estimate   =    -200.42224742 Ry
     estimated scf accuracy    <      34.99883026 Ry

[...]

     total cpu time spent up to now is        9.1 secs

     total energy              =      46.25412119 Ry
     Harris-Foulkes estimate   =    -322.78180596 Ry
     estimated scf accuracy    <      27.38931036 Ry

     iteration # 59     ecut=    30.00 Ry     beta=0.70
     Davidson diagonalization with overlap
     ethr =  1.00E-02,  avg # of iterations =  5.0

     negative rho (up, down):  2.810E-01 0.000E+00

     total cpu time spent up to now is        9.1 secs

     total energy              =  -10005.26815677 Ry
     Harris-Foulkes estimate   =    -131.29778461 Ry
     estimated scf accuracy    <      24.22101659 Ry

     iteration # 60     ecut=    30.00 Ry     beta=0.70
     Davidson diagonalization with overlap
     ethr =  1.00E-02,  avg # of iterations =  7.0

     negative rho (up, down):  2.586E-01 0.000E+00

     total cpu time spent up to now is        9.2 secs

     total energy              =   -1236.75238683 Ry
     Harris-Foulkes estimate   =  -15403.97264531 Ry
     estimated scf accuracy    <      50.93672519 Ry

     iteration # 61     ecut=    30.00 Ry     beta=0.70
     Davidson diagonalization with overlap
     ethr =  1.00E-02,  avg # of iterations =  6.0

     negative rho (up, down):  1.456E+00 0.000E+00

     total cpu time spent up to now is        9.2 secs

     total energy              =    -389.22454717 Ry
     Harris-Foulkes estimate   =   -6421.40169483 Ry
     estimated scf accuracy    <      46.07920318 Ry

     iteration # 62     ecut=    30.00 Ry     beta=0.70
     Davidson diagonalization with overlap
     ethr =  1.00E-02,  avg # of iterations =  9.0

     negative rho (up, down):  1.553E+00 0.000E+00

     total cpu time spent up to now is        9.3 secs

     total energy              =    -941.06167599 Ry
     Harris-Foulkes estimate   =   -3816.28301505 Ry
     estimated scf accuracy    <      35.99141992 Ry

     iteration # 63     ecut=    30.00 Ry     beta=0.70
     Davidson diagonalization with overlap
     ethr =  1.00E-02,  avg # of iterations =  8.0

     negative rho (up, down):  1.731E+00 0.000E+00

     total cpu time spent up to now is        9.4 secs

     total energy              =      89.17464769 Ry
     Harris-Foulkes estimate   =  -20904.93139851 Ry
     estimated scf accuracy    <      28.03078736 Ry

     iteration # 64     ecut=    30.00 Ry     beta=0.70
     Davidson diagonalization with overlap
     ethr =  1.00E-02,  avg # of iterations = 11.0

     negative rho (up, down):  1.691E+00 0.000E+00

     total cpu time spent up to now is        9.4 secs

     total energy              =     -98.46179059 Ry
     Harris-Foulkes estimate   =   -2914.15530006 Ry
     estimated scf accuracy    <      30.95369323 Ry

     iteration # 65     ecut=    30.00 Ry     beta=0.70
     Davidson diagonalization with overlap
     ethr =  1.00E-02,  avg # of iterations =  8.0

     negative rho (up, down):  1.456E+00 0.000E+00

     total cpu time spent up to now is        9.5 secs

     total energy              =    -326.43556713 Ry
     Harris-Foulkes estimate   =   -2739.75016753 Ry
     estimated scf accuracy    <      32.24810715 Ry

     iteration # 66     ecut=    30.00 Ry     beta=0.70
     Davidson diagonalization with overlap
     ethr =  1.00E-02,  avg # of iterations = 11.0

     negative rho (up, down):  1.769E+00 0.000E+00

     total cpu time spent up to now is        9.5 secs

     total energy              =    -164.61051294 Ry
     Harris-Foulkes estimate   =  -47878.45771948 Ry
     estimated scf accuracy    <      24.85461494 Ry

     iteration # 67     ecut=    30.00 Ry     beta=0.70
     Davidson diagonalization with overlap
     ethr =  1.00E-02,  avg # of iterations =  7.0

     negative rho (up, down):  1.508E+00 0.000E+00

     total cpu time spent up to now is        9.6 secs

     total energy              =      42.98929727 Ry
     Harris-Foulkes estimate   =  -19318.89471028 Ry
     estimated scf accuracy    <      23.46024044 Ry

     iteration # 68     ecut=    30.00 Ry     beta=0.70
     Davidson diagonalization with overlap
     ethr =  1.00E-02,  avg # of iterations =  9.0

     negative rho (up, down):  9.077E-01 0.000E+00

     total cpu time spent up to now is        9.6 secs

     total energy              =    -271.39218325 Ry
     Harris-Foulkes estimate   =    -736.24114473 Ry
     estimated scf accuracy    <      25.41267378 Ry

     iteration # 69     ecut=    30.00 Ry     beta=0.70
     Davidson diagonalization with overlap
     ethr =  1.00E-02,  avg # of iterations = 14.0

     negative rho (up, down):  1.786E-01 0.000E+00

     total cpu time spent up to now is        9.7 secs

     total energy              =     109.64045269 Ry
     Harris-Foulkes estimate   =  -37910.04525829 Ry
     estimated scf accuracy    <      19.17499061 Ry

     iteration # 70     ecut=    30.00 Ry     beta=0.70
     Davidson diagonalization with overlap
     ethr =  1.00E-02,  avg # of iterations =  7.0

     negative rho (up, down):  2.175E-02 0.000E+00

     total cpu time spent up to now is        9.8 secs

     total energy              =     123.88015247 Ry
     Harris-Foulkes estimate   =    -467.15880371 Ry
     estimated scf accuracy    <      16.99023852 Ry

     iteration # 71     ecut=    30.00 Ry     beta=0.70
     Davidson diagonalization with overlap
     ethr =  1.00E-02,  avg # of iterations =  8.0

     negative rho (up, down):  6.663E-03 0.000E+00

     total cpu time spent up to now is        9.8 secs

     total energy              =      69.58847965 Ry
     Harris-Foulkes estimate   =   -1077.10151025 Ry
     estimated scf accuracy    <      16.36026744 Ry

     iteration # 72     ecut=    30.00 Ry     beta=0.70
     Davidson diagonalization with overlap
     ethr =  1.00E-02,  avg # of iterations =  6.0

     negative rho (up, down):  5.531E-05 0.000E+00

     total cpu time spent up to now is        9.9 secs

     total energy              =      90.13841230 Ry
     Harris-Foulkes estimate   =    -922.48021897 Ry
     estimated scf accuracy    <      13.25931798 Ry

     iteration # 73     ecut=    30.00 Ry     beta=0.70
     Davidson diagonalization with overlap
     ethr =  1.00E-02,  avg # of iterations =  7.0

     negative rho (up, down):  5.115E-05 0.000E+00

     total cpu time spent up to now is        9.9 secs

     total energy              =     -73.83970234 Ry
     Harris-Foulkes estimate   =     -79.58694212 Ry
     estimated scf accuracy    <      64.01257349 Ry

     iteration # 74     ecut=    30.00 Ry     beta=0.70
     Davidson diagonalization with overlap
     ethr =  1.00E-02,  avg # of iterations =  1.0

     total cpu time spent up to now is       10.0 secs

     total energy              =     -73.49660780 Ry
     Harris-Foulkes estimate   =     -73.85560787 Ry
     estimated scf accuracy    <      56.57949275 Ry

     iteration # 75     ecut=    30.00 Ry     beta=0.70
     Davidson diagonalization with overlap
     ethr =  1.00E-02,  avg # of iterations =  1.0

     negative rho (up, down):  1.260E-03 0.000E+00

     total cpu time spent up to now is       10.0 secs

     total energy              =     -83.41447648 Ry
     Harris-Foulkes estimate   =     -73.49677157 Ry
     estimated scf accuracy    <      56.15713740 Ry

     iteration # 76     ecut=    30.00 Ry     beta=0.70
     Davidson diagonalization with overlap
     ethr =  1.00E-02,  avg # of iterations =  1.0

     negative rho (up, down):  4.674E-03 0.000E+00

     total cpu time spent up to now is       10.0 secs

     total energy              =     -84.83714662 Ry
     Harris-Foulkes estimate   =     -83.45374718 Ry
     estimated scf accuracy    <      69.01922309 Ry

     iteration # 77     ecut=    30.00 Ry     beta=0.70
     Davidson diagonalization with overlap
     ethr =  1.00E-02,  avg # of iterations =  1.0

     negative rho (up, down):  1.247E-01 0.000E+00

     total cpu time spent up to now is       10.1 secs

     total energy              =     -75.77911117 Ry
     Harris-Foulkes estimate   =     -84.84882268 Ry
     estimated scf accuracy    <      71.13299689 Ry

     iteration # 78     ecut=    30.00 Ry     beta=0.70
     Davidson diagonalization with overlap
     ethr =  1.00E-02,  avg # of iterations =  8.0

     negative rho (up, down):  1.805E-02 0.000E+00

     total cpu time spent up to now is       10.1 secs

     total energy              =      84.80559191 Ry
     Harris-Foulkes estimate   =    -399.61358065 Ry
     estimated scf accuracy    <      28.08062647 Ry

     iteration # 79     ecut=    30.00 Ry     beta=0.70
     Davidson diagonalization with overlap
     ethr =  1.00E-02,  avg # of iterations =  6.0

     negative rho (up, down):  3.445E-02 0.000E+00

     total cpu time spent up to now is       10.2 secs

     total energy              =     -21.83517270 Ry
     Harris-Foulkes estimate   =    -305.92386882 Ry
     estimated scf accuracy    <      38.50749037 Ry

     iteration # 80     ecut=    30.00 Ry     beta=0.70
     Davidson diagonalization with overlap
     ethr =  1.00E-02,  avg # of iterations =  4.0

     negative rho (up, down):  4.813E-02 0.000E+00

     total cpu time spent up to now is       10.2 secs

     total energy              =     -40.06474015 Ry
     Harris-Foulkes estimate   =     -88.76302289 Ry
     estimated scf accuracy    <      56.50087239 Ry

     iteration # 81     ecut=    30.00 Ry     beta=0.70
     Davidson diagonalization with overlap
     ethr =  1.00E-02,  avg # of iterations =  9.0

     negative rho (up, down):  3.524E-02 0.000E+00

     total cpu time spent up to now is       10.3 secs

     total energy              =     138.10423178 Ry
     Harris-Foulkes estimate   =    -783.41269060 Ry
     estimated scf accuracy    <      39.06835545 Ry

     iteration # 82     ecut=    30.00 Ry     beta=0.70
     Davidson diagonalization with overlap
     ethr =  1.00E-02,  avg # of iterations = 14.0

     negative rho (up, down):  3.825E-03 0.000E+00

     total cpu time spent up to now is       10.3 secs

     total energy              =      31.23864670 Ry
     Harris-Foulkes estimate   =    -173.17971693 Ry
     estimated scf accuracy    <      13.66992464 Ry

     iteration # 83     ecut=    30.00 Ry     beta=0.70
     Davidson diagonalization with overlap
     ethr =  1.00E-02,  avg # of iterations =  5.0

     negative rho (up, down):  3.460E-02 0.000E+00

     total cpu time spent up to now is       10.4 secs

     total energy              =     -50.16559967 Ry
     Harris-Foulkes estimate   =     -57.05138556 Ry
     estimated scf accuracy    <      36.53988692 Ry

     iteration # 84     ecut=    30.00 Ry     beta=0.70
     Davidson diagonalization with overlap
     ethr =  1.00E-02,  avg # of iterations =  5.0

     negative rho (up, down):  8.355E-02 0.000E+00

     total cpu time spent up to now is       10.4 secs

     total energy              =     -36.44132169 Ry
     Harris-Foulkes estimate   =    -146.18281099 Ry
     estimated scf accuracy    <      13.74415372 Ry

     iteration # 85     ecut=    30.00 Ry     beta=0.70
     Davidson diagonalization with overlap
     ethr =  1.00E-02,  avg # of iterations =  6.0

     negative rho (up, down):  9.710E-02 0.000E+00

     total cpu time spent up to now is       10.5 secs

     total energy              =      28.18981899 Ry
     Harris-Foulkes estimate   =    -370.17295291 Ry
     estimated scf accuracy    <      12.00312292 Ry

     iteration # 86     ecut=    30.00 Ry     beta=0.70
     Davidson diagonalization with overlap
     ethr =  1.00E-02,  avg # of iterations =  7.0

     total cpu time spent up to now is       10.5 secs

     total energy              =      61.82115028 Ry
     Harris-Foulkes estimate   =     -89.44338210 Ry
     estimated scf accuracy    <      20.46176203 Ry

     iteration # 87     ecut=    30.00 Ry     beta=0.70
     Davidson diagonalization with overlap
     ethr =  1.00E-02,  avg # of iterations =  6.0

     negative rho (up, down):  1.735E-01 0.000E+00

     total cpu time spent up to now is       10.6 secs

     total energy              =    -125.97429418 Ry
     Harris-Foulkes estimate   =     -56.34226834 Ry
     estimated scf accuracy    <      35.24899351 Ry

     iteration # 88     ecut=    30.00 Ry     beta=0.70
     Davidson diagonalization with overlap
     ethr =  1.00E-02,  avg # of iterations =  7.0

     negative rho (up, down):  1.039E-01 0.000E+00

     total cpu time spent up to now is       10.6 secs

     total energy              =     105.22598816 Ry
     Harris-Foulkes estimate   =   -1992.78603813 Ry
     estimated scf accuracy    <      20.51858640 Ry

     iteration # 89     ecut=    30.00 Ry     beta=0.70
     Davidson diagonalization with overlap
     ethr =  1.00E-02,  avg # of iterations = 10.0

     negative rho (up, down):  1.601E-03 0.000E+00

     total cpu time spent up to now is       10.7 secs

     total energy              =     125.67282985 Ry
     Harris-Foulkes estimate   =    -867.40782697 Ry
     estimated scf accuracy    <      27.94462852 Ry

     iteration # 90     ecut=    30.00 Ry     beta=0.70
     Davidson diagonalization with overlap
     ethr =  1.00E-02,  avg # of iterations =  9.0

     negative rho (up, down):  4.321E-03 0.000E+00

     total cpu time spent up to now is       10.8 secs

     total energy              =      24.23864999 Ry
     Harris-Foulkes estimate   =     -66.52891693 Ry
     estimated scf accuracy    <      10.48285230 Ry

     iteration # 91     ecut=    30.00 Ry     beta=0.70
     Davidson diagonalization with overlap
     ethr =  1.00E-02,  avg # of iterations =  7.0

     negative rho (up, down):  4.116E-02 0.000E+00

     total cpu time spent up to now is       10.8 secs

     total energy              =     -44.93930258 Ry
     Harris-Foulkes estimate   =     -49.50113208 Ry
     estimated scf accuracy    <      26.29529295 Ry

     iteration # 92     ecut=    30.00 Ry     beta=0.70
     Davidson diagonalization with overlap
     ethr =  1.00E-02,  avg # of iterations =  1.0

     negative rho (up, down):  9.582E-02 0.000E+00

     total cpu time spent up to now is       10.8 secs

     total energy              =     -44.44087611 Ry
     Harris-Foulkes estimate   =     -44.97638368 Ry
     estimated scf accuracy    <      20.40945494 Ry

     iteration # 93     ecut=    30.00 Ry     beta=0.70
     Davidson diagonalization with overlap
     ethr =  1.00E-02,  avg # of iterations =  9.0

     negative rho (up, down):  1.332E-01 0.000E+00

     total cpu time spent up to now is       10.9 secs

     total energy              =     -51.16436731 Ry
     Harris-Foulkes estimate   =    -972.36037659 Ry
     estimated scf accuracy    <      42.66892000 Ry

     iteration # 94     ecut=    30.00 Ry     beta=0.70
     Davidson diagonalization with overlap
     ethr =  1.00E-02,  avg # of iterations =  7.0

     negative rho (up, down):  1.730E-03 0.000E+00

     total cpu time spent up to now is       10.9 secs

     total energy              =     109.79051712 Ry
     Harris-Foulkes estimate   =    -474.98205920 Ry
     estimated scf accuracy    <      52.67679191 Ry

     iteration # 95     ecut=    30.00 Ry     beta=0.70
     Davidson diagonalization with overlap
     ethr =  1.00E-02,  avg # of iterations =  8.0

     negative rho (up, down):  6.018E-03 0.000E+00

     total cpu time spent up to now is       11.0 secs

     total energy              =     -41.64001849 Ry
     Harris-Foulkes estimate   =     -43.84381908 Ry
     estimated scf accuracy    <      19.04166015 Ry

     iteration # 96     ecut=    30.00 Ry     beta=0.70
     Davidson diagonalization with overlap
     ethr =  1.00E-02,  avg # of iterations =  4.0

     negative rho (up, down):  9.832E-06 0.000E+00

     total cpu time spent up to now is       11.1 secs

     total energy              =      47.90977448 Ry
     Harris-Foulkes estimate   =    -471.59037159 Ry
     estimated scf accuracy    <       8.46877697 Ry

     iteration # 97     ecut=    30.00 Ry     beta=0.70
     Davidson diagonalization with overlap
     ethr =  1.00E-02,  avg # of iterations =  6.0

     negative rho (up, down):  4.524E-02 0.000E+00

     total cpu time spent up to now is       11.1 secs

     total energy              =     -40.87094990 Ry
     Harris-Foulkes estimate   =     -42.18991766 Ry
     estimated scf accuracy    <      16.74985361 Ry

     iteration # 98     ecut=    30.00 Ry     beta=0.70
     Davidson diagonalization with overlap
     ethr =  1.00E-02,  avg # of iterations =  1.0

     negative rho (up, down):  5.672E-03 0.000E+00

     total cpu time spent up to now is       11.1 secs

     total energy              =     -39.56676004 Ry
     Harris-Foulkes estimate   =     -40.89754258 Ry
     estimated scf accuracy    <      14.54825358 Ry

     iteration # 99     ecut=    30.00 Ry     beta=0.70
     Davidson diagonalization with overlap
     ethr =  1.00E-02,  avg # of iterations =  1.0

     negative rho (up, down):  8.044E-03 0.000E+00

     total cpu time spent up to now is       11.2 secs

     total energy              =     -38.68364111 Ry
     Harris-Foulkes estimate   =     -39.57403554 Ry
     estimated scf accuracy    <      13.03970621 Ry

     iteration #100     ecut=    30.00 Ry     beta=0.70
     Davidson diagonalization with overlap
     ethr =  1.00E-02,  avg # of iterations =  1.0

     negative rho (up, down):  1.728E-03 0.000E+00

     total cpu time spent up to now is       11.2 secs

     total energy              =     -37.62311926 Ry
     Harris-Foulkes estimate   =     -38.69887918 Ry
     estimated scf accuracy    <      11.82654886 Ry

     End of self-consistent calculation

     convergence NOT achieved after 100 iterations: stopping

     Writing output data file pwscf.save
 
     init_run     :      0.09s CPU      0.11s WALL (       1 calls)
     electrons    :      8.22s CPU     10.13s WALL (       4 calls)
     update_pot   :      0.35s CPU      0.55s WALL (       3 calls)
     forces       :      0.07s CPU      0.08s WALL (       3 calls)

     Called by init_run:
     wfcinit      :      0.01s CPU      0.02s WALL (       1 calls)
     potinit      :      0.02s CPU      0.03s WALL (       1 calls)

     Called by electrons:
     c_bands      :      3.90s CPU      4.10s WALL (     233 calls)
     sum_band     :      0.67s CPU      0.72s WALL (     233 calls)
     v_of_rho     :      1.70s CPU      1.80s WALL (     237 calls)
     mix_rho      :      1.67s CPU      2.86s WALL (     233 calls)

     Called by c_bands:
     init_us_2    :      0.02s CPU      0.03s WALL (     467 calls)
     cegterg      :      3.85s CPU      3.98s WALL (     234 calls)

     Called by sum_band:

     Called by *egterg:
     h_psi        :      3.24s CPU      3.33s WALL (    1160 calls)
     g_psi        :      0.03s CPU      0.03s WALL (     925 calls)
     cdiaghg      :      0.23s CPU      0.24s WALL (    1155 calls)

     Called by h_psi:
     h_psi:pot    :      3.22s CPU      3.31s WALL (    1160 calls)
     h_psi:calbec :      0.05s CPU      0.06s WALL (    1160 calls)
     vloc_psi     :      3.16s CPU      3.24s WALL (    1160 calls)
     add_vuspsi   :      0.01s CPU      0.01s WALL (    1160 calls)

     General routines
     calbec       :      0.09s CPU      0.13s WALL (    1174 calls)
     fft          :      1.13s CPU      1.20s WALL (    2613 calls)
     fftw         :      3.29s CPU      3.39s WALL (   14490 calls)
     davcio       :      0.23s CPU      1.02s WALL (    4317 calls)
 
     Parallel routines
     fft_scatter  :      1.71s CPU      1.81s WALL (   17103 calls)
 
     PWSCF        :     8.89s CPU        11.30s WALL

 
   This run was terminated on:   8:19: 2  14Feb2018            

=------------------------------------------------------------------------------=
   JOB DONE.
=------------------------------------------------------------------------------=
