
     Program PWSCF v.6.0 (svn rev. 13079) starts on 14Feb2018 at  8:24: 2 

     This program is part of the open-source Quantum ESPRESSO suite
     for quantum simulation of materials; please cite
         "P. Giannozzi et al., J. Phys.:Condens. Matter 21 395502 (2009);
          URL http://www.quantum-espresso.org", 
     in publications or presentations arising from this work. More details at
     http://www.quantum-espresso.org/quote

     Parallel version (MPI), running on    28 processors
     R & G space division:  proc/nbgrp/npool/nimage =      28
     Reading input from inputs/MD-H2O-2/353.in

     Current dimensions of program PWSCF are:
     Max number of different atomic species (ntypx) = 10
     Max number of k-points (npk) =  40000
     Max angular momentum in pseudopotentials (lmaxx) =  3

     Subspace diagonalization in iterative solution of the eigenvalue problem:
     a serial algorithm will be used

 
     Parallelization info
     --------------------
     sticks:   dense  smooth     PW     G-vecs:    dense   smooth      PW
     Min         136     136     33                 6338     6338     787
     Max         137     137     34                 6341     6341     792
     Sum        3809    3809    949               177509   177509   22119
 


     bravais-lattice index     =            1
     lattice parameter (alat)  =      20.0000  a.u.
     unit-cell volume          =    8000.0000 (a.u.)^3
     number of atoms/cell      =            3
     number of atomic types    =            2
     number of electrons       =         8.00
     number of Kohn-Sham states=            8
     kinetic-energy cutoff     =      30.0000  Ry
     charge density cutoff     =     120.0000  Ry
     convergence threshold     =      1.0E-08
     mixing beta               =       0.7000
     number of iterations used =            8  plain     mixing
     Exchange-correlation      = BLYP ( 1  3  1  3 0 0)
     nstep                     =         5000


     celldm(1)=  20.000000  celldm(2)=   0.000000  celldm(3)=   0.000000
     celldm(4)=   0.000000  celldm(5)=   0.000000  celldm(6)=   0.000000

     crystal axes: (cart. coord. in units of alat)
               a(1) = (   1.000000   0.000000   0.000000 )  
               a(2) = (   0.000000   1.000000   0.000000 )  
               a(3) = (   0.000000   0.000000   1.000000 )  

     reciprocal axes: (cart. coord. in units 2 pi/alat)
               b(1) = (  1.000000  0.000000  0.000000 )  
               b(2) = (  0.000000  1.000000  0.000000 )  
               b(3) = (  0.000000  0.000000  1.000000 )  


     PseudoPot. # 1 for  H read from file:
     ./H.blyp-hgh.UPF
     MD5 check sum: c576e69559cde411e611be972c763230
     Pseudo is Norm-conserving, Zval =  1.0
     Generated in analytical, separable form
     Using radial grid of  929 points,  0 beta functions with: 

     PseudoPot. # 2 for  O read from file:
     ./O.blyp-hgh.UPF
     MD5 check sum: d0b7156309aa9befef28faac7bc56342
     Pseudo is Norm-conserving, Zval =  6.0
     Generated in analytical, separable form
     Using radial grid of 1095 points,  1 beta functions with: 
                l(1) =   0

     atomic species   valence    mass     pseudopotential
        H              1.00     1.01000      H( 1.00)
        O              6.00    16.00000      O( 1.00)

     No symmetry found



   Cartesian axes

     site n.     atom                  positions (alat units)
         1           H   tau(   1) = (   0.5650053   0.0887303   0.2270000  )
         2           H   tau(   2) = (   0.4978724   0.4773829   0.7805366  )
         3           O   tau(   3) = (   0.4270320   0.4839391   0.7110630  )

     number of k points=     1  Marzari-Vanderbilt smearing, width (Ry)=  0.0250
                       cart. coord. in units 2pi/alat
        k(    1) = (   0.0000000   0.0000000   0.0000000), wk =   2.0000000

     Dense  grid:   177509 G-vectors     FFT dimensions: (  72,  72,  72)

     Estimated max dynamical RAM per process >       6.09Mb

     Estimated total allocated dynamical RAM >     170.64Mb

     Initial potential from superposition of free atoms
     Check: negative starting charge=   -0.349220

     starting charge    7.99998, renormalised to    8.00000

     negative rho (up, down):  3.492E-01 0.000E+00
     Starting wfc are    6 randomized atomic wfcs +    2 random wfc

     total cpu time spent up to now is        0.2 secs

     per-process dynamical memory:    18.8 Mb

     Self-consistent Calculation

     iteration #  1     ecut=    30.00 Ry     beta=0.70
     Davidson diagonalization with overlap
     ethr =  1.00E-02,  avg # of iterations =  7.0

     negative rho (up, down):  9.132E-02 0.000E+00

     total cpu time spent up to now is        0.3 secs

     total energy              =     -30.33589896 Ry
     Harris-Foulkes estimate   =     -32.23885989 Ry
     estimated scf accuracy    <       2.18642725 Ry

     iteration #  2     ecut=    30.00 Ry     beta=0.70
     Davidson diagonalization with overlap
     ethr =  1.00E-02,  avg # of iterations =  3.0

     negative rho (up, down):  6.642E-02 0.000E+00

     total cpu time spent up to now is        0.3 secs

     total energy              =     -32.30234482 Ry
     Harris-Foulkes estimate   =     -34.60963497 Ry
     estimated scf accuracy    <       5.61026581 Ry

     iteration #  3     ecut=    30.00 Ry     beta=0.70
     Davidson diagonalization with overlap
     ethr =  1.00E-02,  avg # of iterations =  2.0

     negative rho (up, down):  6.383E-02 0.000E+00

     total cpu time spent up to now is        0.4 secs

     total energy              =     -32.44812996 Ry
     Harris-Foulkes estimate   =     -32.53706512 Ry
     estimated scf accuracy    <       1.83052352 Ry

     iteration #  4     ecut=    30.00 Ry     beta=0.70
     Davidson diagonalization with overlap
     ethr =  1.00E-02,  avg # of iterations =  1.0

     negative rho (up, down):  1.164E-02 0.000E+00

     total cpu time spent up to now is        0.4 secs

     total energy              =     -31.28705890 Ry
     Harris-Foulkes estimate   =     -32.44844786 Ry
     estimated scf accuracy    <       1.70821184 Ry

     iteration #  5     ecut=    30.00 Ry     beta=0.70
     Davidson diagonalization with overlap
     ethr =  1.00E-02,  avg # of iterations =  4.0

     negative rho (up, down):  2.442E-02 0.000E+00

     total cpu time spent up to now is        0.4 secs

     total energy              =     -33.44599959 Ry
     Harris-Foulkes estimate   =     -33.27372750 Ry
     estimated scf accuracy    <       8.81779105 Ry

     iteration #  6     ecut=    30.00 Ry     beta=0.70
     Davidson diagonalization with overlap
     ethr =  1.00E-02,  avg # of iterations =  2.0

     negative rho (up, down):  1.802E-02 0.000E+00

     total cpu time spent up to now is        0.5 secs

     total energy              =     -33.21964127 Ry
     Harris-Foulkes estimate   =     -33.45140996 Ry
     estimated scf accuracy    <       9.51845930 Ry

     iteration #  7     ecut=    30.00 Ry     beta=0.70
     Davidson diagonalization with overlap
     ethr =  1.00E-02,  avg # of iterations =  1.0

     negative rho (up, down):  1.413E-02 0.000E+00

     total cpu time spent up to now is        0.5 secs

     total energy              =     -32.72699282 Ry
     Harris-Foulkes estimate   =     -33.22486557 Ry
     estimated scf accuracy    <       7.94926678 Ry

     iteration #  8     ecut=    30.00 Ry     beta=0.70
     Davidson diagonalization with overlap
     ethr =  1.00E-02,  avg # of iterations =  1.0

     negative rho (up, down):  2.961E-02 0.000E+00

     total cpu time spent up to now is        0.5 secs

     total energy              =     -32.87173416 Ry
     Harris-Foulkes estimate   =     -32.87074227 Ry
     estimated scf accuracy    <       2.87791032 Ry

     iteration #  9     ecut=    30.00 Ry     beta=0.70
     Davidson diagonalization with overlap
     ethr =  1.00E-02,  avg # of iterations =  1.0

     negative rho (up, down):  2.819E-02 0.000E+00

     total cpu time spent up to now is        0.6 secs

     total energy              =     -32.87329751 Ry
     Harris-Foulkes estimate   =     -32.87256290 Ry
     estimated scf accuracy    <       2.88703723 Ry

     iteration # 10     ecut=    30.00 Ry     beta=0.70
     Davidson diagonalization with overlap
     ethr =  1.00E-02,  avg # of iterations =  1.0

     negative rho (up, down):  3.386E-03 0.000E+00

     total cpu time spent up to now is        0.6 secs

     total energy              =     -32.78062778 Ry
     Harris-Foulkes estimate   =     -32.87341939 Ry
     estimated scf accuracy    <       2.88687498 Ry

     iteration # 11     ecut=    30.00 Ry     beta=0.70
     Davidson diagonalization with overlap
     ethr =  1.00E-02,  avg # of iterations =  1.0

     negative rho (up, down):  5.172E-03 0.000E+00

     total cpu time spent up to now is        0.6 secs

     total energy              =     -32.16520439 Ry
     Harris-Foulkes estimate   =     -32.78204338 Ry
     estimated scf accuracy    <       2.67383975 Ry

     iteration # 12     ecut=    30.00 Ry     beta=0.70
     Davidson diagonalization with overlap
     ethr =  1.00E-02,  avg # of iterations =  1.0

     negative rho (up, down):  3.856E-01 0.000E+00

     total cpu time spent up to now is        0.7 secs

     total energy              =     -32.07771574 Ry
     Harris-Foulkes estimate   =     -32.18742126 Ry
     estimated scf accuracy    <       1.60934757 Ry

     iteration # 13     ecut=    30.00 Ry     beta=0.70
     Davidson diagonalization with overlap
     ethr =  1.00E-02,  avg # of iterations =  1.0

     negative rho (up, down):  3.003E+00 0.000E+00

     total cpu time spent up to now is        0.7 secs

     total energy              =     -34.62120046 Ry
     Harris-Foulkes estimate   =     -32.09224146 Ry
     estimated scf accuracy    <       1.51105301 Ry

     iteration # 14     ecut=    30.00 Ry     beta=0.70
     Davidson diagonalization with overlap
     ethr =  1.00E-02,  avg # of iterations =  6.0

     negative rho (up, down):  4.843E-01 0.000E+00

     total cpu time spent up to now is        0.8 secs

     total energy              =     -27.67112556 Ry
     Harris-Foulkes estimate   =     -38.72164186 Ry
     estimated scf accuracy    <      26.78831484 Ry

     iteration # 15     ecut=    30.00 Ry     beta=0.70
     Davidson diagonalization with overlap
     ethr =  1.00E-02,  avg # of iterations = 10.0

     negative rho (up, down):  1.238E-01 0.000E+00

     total cpu time spent up to now is        0.8 secs

     total energy              =     -32.29102291 Ry
     Harris-Foulkes estimate   =     -32.74063301 Ry
     estimated scf accuracy    <       1.94775298 Ry

     iteration # 16     ecut=    30.00 Ry     beta=0.70
     Davidson diagonalization with overlap
     ethr =  1.00E-02,  avg # of iterations =  1.0

     negative rho (up, down):  2.204E-02 0.000E+00

     total cpu time spent up to now is        0.8 secs

     total energy              =     -32.02969340 Ry
     Harris-Foulkes estimate   =     -32.29253487 Ry
     estimated scf accuracy    <       1.37869311 Ry

     iteration # 17     ecut=    30.00 Ry     beta=0.70
     Davidson diagonalization with overlap
     ethr =  1.00E-02,  avg # of iterations =  1.0

     negative rho (up, down):  2.426E-02 0.000E+00

     total cpu time spent up to now is        0.9 secs

     total energy              =     -32.02967357 Ry
     Harris-Foulkes estimate   =     -32.02326058 Ry
     estimated scf accuracy    <       1.00727616 Ry

     iteration # 18     ecut=    30.00 Ry     beta=0.70
     Davidson diagonalization with overlap
     ethr =  1.00E-02,  avg # of iterations =  1.0

     negative rho (up, down):  7.538E-04 0.000E+00

     total cpu time spent up to now is        0.9 secs

     total energy              =     -31.83261843 Ry
     Harris-Foulkes estimate   =     -32.02974690 Ry
     estimated scf accuracy    <       1.01406004 Ry

     iteration # 19     ecut=    30.00 Ry     beta=0.70
     Davidson diagonalization with overlap
     ethr =  1.00E-02,  avg # of iterations =  1.0

     negative rho (up, down):  6.320E-04 0.000E+00

     total cpu time spent up to now is        0.9 secs

     total energy              =     -32.01452800 Ry
     Harris-Foulkes estimate   =     -32.05497967 Ry
     estimated scf accuracy    <       1.35181176 Ry

     iteration # 20     ecut=    30.00 Ry     beta=0.70
     Davidson diagonalization with overlap
     ethr =  1.00E-02,  avg # of iterations =  1.0

     negative rho (up, down):  7.988E-04 0.000E+00

     total cpu time spent up to now is        1.0 secs

     total energy              =     -32.00623806 Ry
     Harris-Foulkes estimate   =     -32.01483505 Ry
     estimated scf accuracy    <       1.32110642 Ry

     iteration # 21     ecut=    30.00 Ry     beta=0.70
     Davidson diagonalization with overlap
     ethr =  1.00E-02,  avg # of iterations =  1.0

     negative rho (up, down):  6.866E-04 0.000E+00

     total cpu time spent up to now is        1.0 secs

     total energy              =     -31.98795013 Ry
     Harris-Foulkes estimate   =     -32.00618919 Ry
     estimated scf accuracy    <       1.35837641 Ry

     iteration # 22     ecut=    30.00 Ry     beta=0.70
     Davidson diagonalization with overlap
     ethr =  1.00E-02,  avg # of iterations =  1.0

     negative rho (up, down):  8.720E-04 0.000E+00

     total cpu time spent up to now is        1.0 secs

     total energy              =     -31.97392349 Ry
     Harris-Foulkes estimate   =     -31.98719692 Ry
     estimated scf accuracy    <       1.58967775 Ry

     iteration # 23     ecut=    30.00 Ry     beta=0.70
     Davidson diagonalization with overlap
     ethr =  1.00E-02,  avg # of iterations =  1.0

     negative rho (up, down):  1.096E-03 0.000E+00

     total cpu time spent up to now is        1.1 secs

     total energy              =     -31.96781374 Ry
     Harris-Foulkes estimate   =     -31.97379461 Ry
     estimated scf accuracy    <       1.57762533 Ry

     iteration # 24     ecut=    30.00 Ry     beta=0.70
     Davidson diagonalization with overlap
     ethr =  1.00E-02,  avg # of iterations =  1.0

     negative rho (up, down):  1.207E-03 0.000E+00

     total cpu time spent up to now is        1.1 secs

     total energy              =     -31.95807348 Ry
     Harris-Foulkes estimate   =     -31.96803417 Ry
     estimated scf accuracy    <       1.39610784 Ry

     iteration # 25     ecut=    30.00 Ry     beta=0.70
     Davidson diagonalization with overlap
     ethr =  1.00E-02,  avg # of iterations =  1.0

     negative rho (up, down):  1.000E-03 0.000E+00

     total cpu time spent up to now is        1.1 secs

     total energy              =     -31.94920217 Ry
     Harris-Foulkes estimate   =     -31.95888751 Ry
     estimated scf accuracy    <       0.93847765 Ry

     iteration # 26     ecut=    30.00 Ry     beta=0.70
     Davidson diagonalization with overlap
     ethr =  1.00E-02,  avg # of iterations =  1.0

     negative rho (up, down):  1.788E-04 0.000E+00

     total cpu time spent up to now is        1.2 secs

     total energy              =     -31.95780064 Ry
     Harris-Foulkes estimate   =     -31.95090564 Ry
     estimated scf accuracy    <       0.37270862 Ry

     iteration # 27     ecut=    30.00 Ry     beta=0.70
     Davidson diagonalization with overlap
     ethr =  4.66E-03,  avg # of iterations =  1.0

     negative rho (up, down):  2.513E-04 0.000E+00

     total cpu time spent up to now is        1.2 secs

     total energy              =     -31.96695751 Ry
     Harris-Foulkes estimate   =     -31.96007376 Ry
     estimated scf accuracy    <       1.00661527 Ry

     iteration # 28     ecut=    30.00 Ry     beta=0.70
     Davidson diagonalization with overlap
     ethr =  4.66E-03,  avg # of iterations =  1.0

     negative rho (up, down):  5.303E-05 0.000E+00

     total cpu time spent up to now is        1.2 secs

     total energy              =     -31.98287485 Ry
     Harris-Foulkes estimate   =     -31.96756147 Ry
     estimated scf accuracy    <       1.37236327 Ry

     iteration # 29     ecut=    30.00 Ry     beta=0.70
     Davidson diagonalization with overlap
     ethr =  4.66E-03,  avg # of iterations =  1.0

     negative rho (up, down):  2.371E-04 0.000E+00

     total cpu time spent up to now is        1.3 secs

     total energy              =     -31.96237081 Ry
     Harris-Foulkes estimate   =     -31.98380531 Ry
     estimated scf accuracy    <       1.61480173 Ry

     iteration # 30     ecut=    30.00 Ry     beta=0.70
     Davidson diagonalization with overlap
     ethr =  4.66E-03,  avg # of iterations =  1.0

     negative rho (up, down):  2.056E-04 0.000E+00

     total cpu time spent up to now is        1.3 secs

     total energy              =     -31.94642171 Ry
     Harris-Foulkes estimate   =     -31.96313203 Ry
     estimated scf accuracy    <       1.18072782 Ry

     iteration # 31     ecut=    30.00 Ry     beta=0.70
     Davidson diagonalization with overlap
     ethr =  4.66E-03,  avg # of iterations =  1.0

     negative rho (up, down):  1.204E-06 0.000E+00

     total cpu time spent up to now is        1.3 secs

     total energy              =     -31.94152682 Ry
     Harris-Foulkes estimate   =     -31.95014065 Ry
     estimated scf accuracy    <       0.31298984 Ry

     iteration # 32     ecut=    30.00 Ry     beta=0.70
     Davidson diagonalization with overlap
     ethr =  3.91E-03,  avg # of iterations =  1.0

     negative rho (up, down):  7.217E-07 0.000E+00

     total cpu time spent up to now is        1.4 secs

     total energy              =     -31.94616530 Ry
     Harris-Foulkes estimate   =     -31.94634315 Ry
     estimated scf accuracy    <       0.00422909 Ry

     iteration # 33     ecut=    30.00 Ry     beta=0.70
     Davidson diagonalization with overlap
     ethr =  5.29E-05,  avg # of iterations =  1.0

     negative rho (up, down):  3.227E-08 0.000E+00

     total cpu time spent up to now is        1.4 secs

     total energy              =     -31.94627446 Ry
     Harris-Foulkes estimate   =     -31.94630701 Ry
     estimated scf accuracy    <       0.00163244 Ry

     iteration # 34     ecut=    30.00 Ry     beta=0.70
     Davidson diagonalization with overlap
     ethr =  2.04E-05,  avg # of iterations =  3.0

     total cpu time spent up to now is        1.4 secs

     total energy              =     -31.94628721 Ry
     Harris-Foulkes estimate   =     -31.94628765 Ry
     estimated scf accuracy    <       0.00006813 Ry

     iteration # 35     ecut=    30.00 Ry     beta=0.70
     Davidson diagonalization with overlap
     ethr =  8.52E-07,  avg # of iterations =  7.0

     total cpu time spent up to now is        1.5 secs

     total energy              =     -31.94628642 Ry
     Harris-Foulkes estimate   =     -31.94628731 Ry
     estimated scf accuracy    <       0.00003166 Ry

     iteration # 36     ecut=    30.00 Ry     beta=0.70
     Davidson diagonalization with overlap
     ethr =  3.96E-07,  avg # of iterations =  1.0

     total cpu time spent up to now is        1.5 secs

     total energy              =     -31.94628674 Ry
     Harris-Foulkes estimate   =     -31.94628680 Ry
     estimated scf accuracy    <       0.00000003 Ry

     iteration # 37     ecut=    30.00 Ry     beta=0.70
     Davidson diagonalization with overlap
     ethr =  3.52E-10,  avg # of iterations =  1.0

     total cpu time spent up to now is        1.5 secs

     total energy              =     -31.94628674 Ry
     Harris-Foulkes estimate   =     -31.94628675 Ry
     estimated scf accuracy    <       0.00000075 Ry

     iteration # 38     ecut=    30.00 Ry     beta=0.70
     Davidson diagonalization with overlap
     ethr =  3.52E-10,  avg # of iterations =  1.0

     total cpu time spent up to now is        1.6 secs

     total energy              =     -31.94628673 Ry
     Harris-Foulkes estimate   =     -31.94628675 Ry
     estimated scf accuracy    <       0.00000047 Ry

     iteration # 39     ecut=    30.00 Ry     beta=0.70
     Davidson diagonalization with overlap
     ethr =  3.52E-10,  avg # of iterations =  1.0

     total cpu time spent up to now is        1.6 secs

     End of self-consistent calculation

          k = 0.0000 0.0000 0.0000 ( 22119 PWs)   bands (ev):

   -24.7885 -10.6365  -7.0459  -7.0456  -6.9064  -0.7007   0.3604   0.8046

     the Fermi energy is    -6.8754 ev

!    total energy              =     -31.94628673 Ry
     Harris-Foulkes estimate   =     -31.94628674 Ry
     estimated scf accuracy    <          6.4E-09 Ry

     convergence has been achieved in  39 iterations

     Forces acting on atoms (Ry/au):

     atom    1 type  1   force =     0.00041632    0.00044900   -0.00050774
     atom    2 type  1   force =     0.01247026   -0.00081743    0.01122272
     atom    3 type  2   force =    -0.01288658    0.00036843   -0.01071498

     Total force =     0.023744     Total SCF correction =     0.000020

     Molecular Dynamics Calculation

     Starting temperature  =  1000.00 K

     temperature is controlled by Andersen thermostat
     Collision frequency = 1.0000/timestep
     mass H                =     1.01
     mass O                =    16.00
     Time step             =   100.00 a.u.,  4.8378 femto-seconds

     Entering Dynamics:    iteration =     1
                           time      =   0.0048 pico-seconds


     Andersen thermostat:    3 collisions

ATOMIC_POSITIONS (bohr)
H       11.533925336   2.053584910   4.339114363
H       10.031710408   9.772232147  15.482791914
O        8.521192277   9.646995213  14.242017124


     kinetic energy (Ekin) =     0.01319564 Ry
     temperature           =   694.47456190 K 
     Ekin + Etot (const)   =   -31.93309110 Ry

     Linear momentum :    0.0000000000   -0.0000000000    0.0000000000

     Writing output data file pwscf.save
     Check: negative starting charge=   -0.349220
     NEW-OLD atomic charge density approx. for the potential
     Check: negative starting charge=   -0.349993

     negative rho (up, down):  8.736E-02 0.000E+00

     total cpu time spent up to now is        1.9 secs

     per-process dynamical memory:    20.4 Mb

     Self-consistent Calculation

     iteration #  1     ecut=    30.00 Ry     beta=0.70
     Davidson diagonalization with overlap
     c_bands:  1 eigenvalues not converged
     ethr =  1.00E-06,  avg # of iterations = 20.0

     negative rho (up, down):  2.162E-02 0.000E+00

     total cpu time spent up to now is        2.0 secs

     total energy              =     -31.87528701 Ry
     Harris-Foulkes estimate   =     -31.87911830 Ry
     estimated scf accuracy    <       0.06606850 Ry

     iteration #  2     ecut=    30.00 Ry     beta=0.70
     Davidson diagonalization with overlap
     ethr =  8.26E-04,  avg # of iterations =  2.0

     negative rho (up, down):  1.871E-02 0.000E+00

     total cpu time spent up to now is        2.1 secs

     total energy              =     -31.95036926 Ry
     Harris-Foulkes estimate   =     -32.27884568 Ry
     estimated scf accuracy    <       1.84052250 Ry

     iteration #  3     ecut=    30.00 Ry     beta=0.70
     Davidson diagonalization with overlap
     ethr =  8.26E-04,  avg # of iterations =  2.0

     negative rho (up, down):  1.855E-02 0.000E+00

     total cpu time spent up to now is        2.1 secs

     total energy              =     -31.92584070 Ry
     Harris-Foulkes estimate   =     -31.96156690 Ry
     estimated scf accuracy    <       1.62566157 Ry

     iteration #  4     ecut=    30.00 Ry     beta=0.70
     Davidson diagonalization with overlap
     ethr =  8.26E-04,  avg # of iterations =  1.0

     negative rho (up, down):  2.448E-03 0.000E+00

     total cpu time spent up to now is        2.1 secs

     total energy              =     -31.92405368 Ry
     Harris-Foulkes estimate   =     -31.93271810 Ry
     estimated scf accuracy    <       0.34988715 Ry

     iteration #  5     ecut=    30.00 Ry     beta=0.70
     Davidson diagonalization with overlap
     ethr =  8.26E-04,  avg # of iterations =  3.0

     negative rho (up, down):  1.022E-03 0.000E+00

     total cpu time spent up to now is        2.2 secs

     total energy              =     -31.94051687 Ry
     Harris-Foulkes estimate   =     -31.95642826 Ry
     estimated scf accuracy    <       0.61770489 Ry

     iteration #  6     ecut=    30.00 Ry     beta=0.70
     Davidson diagonalization with overlap
     ethr =  8.26E-04,  avg # of iterations =  1.0

     negative rho (up, down):  4.639E-05 0.000E+00

     total cpu time spent up to now is        2.2 secs

     total energy              =     -31.94296384 Ry
     Harris-Foulkes estimate   =     -31.94587035 Ry
     estimated scf accuracy    <       0.04480911 Ry

     iteration #  7     ecut=    30.00 Ry     beta=0.70
     Davidson diagonalization with overlap
     ethr =  5.60E-04,  avg # of iterations =  1.0

     negative rho (up, down):  2.305E-05 0.000E+00

     total cpu time spent up to now is        2.2 secs

     total energy              =     -31.94492992 Ry
     Harris-Foulkes estimate   =     -31.94697234 Ry
     estimated scf accuracy    <       0.12879482 Ry

     iteration #  8     ecut=    30.00 Ry     beta=0.70
     Davidson diagonalization with overlap
     ethr =  5.60E-04,  avg # of iterations =  1.0

     negative rho (up, down):  2.037E-08 0.000E+00

     total cpu time spent up to now is        2.3 secs

     total energy              =     -31.94469154 Ry
     Harris-Foulkes estimate   =     -31.94558859 Ry
     estimated scf accuracy    <       0.01612376 Ry

     iteration #  9     ecut=    30.00 Ry     beta=0.70
     Davidson diagonalization with overlap
     ethr =  2.02E-04,  avg # of iterations =  1.0

     total cpu time spent up to now is        2.3 secs

     total energy              =     -31.94481140 Ry
     Harris-Foulkes estimate   =     -31.94570769 Ry
     estimated scf accuracy    <       0.02356339 Ry

     iteration # 10     ecut=    30.00 Ry     beta=0.70
     Davidson diagonalization with overlap
     ethr =  2.02E-04,  avg # of iterations =  1.0

     total cpu time spent up to now is        2.3 secs

     total energy              =     -31.94529930 Ry
     Harris-Foulkes estimate   =     -31.94546105 Ry
     estimated scf accuracy    <       0.00531162 Ry

     iteration # 11     ecut=    30.00 Ry     beta=0.70
     Davidson diagonalization with overlap
     ethr =  6.64E-05,  avg # of iterations =  3.0

     total cpu time spent up to now is        2.4 secs

     total energy              =     -31.94539308 Ry
     Harris-Foulkes estimate   =     -31.94539628 Ry
     estimated scf accuracy    <       0.00021667 Ry

     iteration # 12     ecut=    30.00 Ry     beta=0.70
     Davidson diagonalization with overlap
     ethr =  2.71E-06,  avg # of iterations = 17.0

     total cpu time spent up to now is        2.4 secs

     total energy              =     -31.94539314 Ry
     Harris-Foulkes estimate   =     -31.94539397 Ry
     estimated scf accuracy    <       0.00004135 Ry

     iteration # 13     ecut=    30.00 Ry     beta=0.70
     Davidson diagonalization with overlap
     ethr =  5.17E-07,  avg # of iterations =  1.0

     total cpu time spent up to now is        2.4 secs

     total energy              =     -31.94539340 Ry
     Harris-Foulkes estimate   =     -31.94539345 Ry
     estimated scf accuracy    <       0.00000214 Ry

     iteration # 14     ecut=    30.00 Ry     beta=0.70
     Davidson diagonalization with overlap
     ethr =  2.67E-08,  avg # of iterations =  1.0

     total cpu time spent up to now is        2.5 secs

     total energy              =     -31.94539344 Ry
     Harris-Foulkes estimate   =     -31.94539342 Ry
     estimated scf accuracy    <       0.00000001 Ry

     iteration # 15     ecut=    30.00 Ry     beta=0.70
     Davidson diagonalization with overlap
     ethr =  1.78E-10,  avg # of iterations =  1.0

     total cpu time spent up to now is        2.5 secs

     End of self-consistent calculation

          k = 0.0000 0.0000 0.0000 ( 22119 PWs)   bands (ev):

   -24.8655 -10.6781  -7.0530  -7.0528  -6.9133  -0.6679   0.3798   0.8077

     the Fermi energy is    -6.8825 ev

!    total energy              =     -31.94539343 Ry
     Harris-Foulkes estimate   =     -31.94539344 Ry
     estimated scf accuracy    <          8.9E-09 Ry

     convergence has been achieved in  15 iterations

     Forces acting on atoms (Ry/au):

     atom    1 type  1   force =     0.00026944    0.00037369   -0.00027552
     atom    2 type  1   force =     0.03660335    0.00365149    0.02974012
     atom    3 type  2   force =    -0.03687279   -0.00402518   -0.02946459

     Total force =     0.066947     Total SCF correction =     0.000043

     Entering Dynamics:    iteration =     2
                           time      =   0.0097 pico-seconds


     Andersen thermostat:    3 collisions

ATOMIC_POSITIONS (bohr)
H       11.589265922   2.233794103   4.481252064
H       10.492587935   9.658047499  15.982099054
O        8.488606008   9.642827414  14.201525918


     kinetic energy (Ekin) =     0.01565874 Ry
     temperature           =   824.10566029 K 
     Ekin + Etot (const)   =   -31.92973468 Ry
     Message from routine dynamics:
     Total linear momentum <> 0

     Linear momentum :   -0.0482643422    0.4839037204    0.0463385468

     Writing output data file pwscf.save

     first order wave-functions extrapolation
     Check: negative starting charge=   -0.349993
     first order charge density extrapolation
     Check: negative starting charge=   -0.348493

     negative rho (up, down):  1.407E-01 0.000E+00

     total cpu time spent up to now is        2.8 secs

     per-process dynamical memory:    20.4 Mb

     Self-consistent Calculation

     iteration #  1     ecut=    30.00 Ry     beta=0.70
     Davidson diagonalization with overlap
     c_bands:  1 eigenvalues not converged
     ethr =  1.00E-06,  avg # of iterations = 20.0

     negative rho (up, down):  3.422E-02 0.000E+00

     total cpu time spent up to now is        3.0 secs

     total energy              =     -30.60969028 Ry
     Harris-Foulkes estimate   =     -31.81678484 Ry
     estimated scf accuracy    <       1.55994762 Ry

     iteration #  2     ecut=    30.00 Ry     beta=0.70
     Davidson diagonalization with overlap
     ethr =  1.00E-02,  avg # of iterations =  3.0

     negative rho (up, down):  2.582E-02 0.000E+00

     total cpu time spent up to now is        3.0 secs

     total energy              =     -32.13228778 Ry
     Harris-Foulkes estimate   =     -34.28775438 Ry
     estimated scf accuracy    <       5.75047214 Ry

     iteration #  3     ecut=    30.00 Ry     beta=0.70
     Davidson diagonalization with overlap
     ethr =  1.00E-02,  avg # of iterations =  2.0

     negative rho (up, down):  2.212E-02 0.000E+00

     total cpu time spent up to now is        3.1 secs

     total energy              =     -32.13228100 Ry
     Harris-Foulkes estimate   =     -32.40715735 Ry
     estimated scf accuracy    <       1.75035307 Ry

     iteration #  4     ecut=    30.00 Ry     beta=0.70
     Davidson diagonalization with overlap
     ethr =  1.00E-02,  avg # of iterations =  1.0

     negative rho (up, down):  1.507E-02 0.000E+00

     total cpu time spent up to now is        3.1 secs

     total energy              =     -31.67484434 Ry
     Harris-Foulkes estimate   =     -32.13360358 Ry
     estimated scf accuracy    <       1.40012019 Ry

     iteration #  5     ecut=    30.00 Ry     beta=0.70
     Davidson diagonalization with overlap
     ethr =  1.00E-02,  avg # of iterations =  4.0

     negative rho (up, down):  2.367E-03 0.000E+00

     total cpu time spent up to now is        3.1 secs

     total energy              =     -31.88105989 Ry
     Harris-Foulkes estimate   =     -31.99064993 Ry
     estimated scf accuracy    <       1.44364578 Ry

     iteration #  6     ecut=    30.00 Ry     beta=0.70
     Davidson diagonalization with overlap
     ethr =  1.00E-02,  avg # of iterations =  1.0

     negative rho (up, down):  6.870E-04 0.000E+00

     total cpu time spent up to now is        3.1 secs

     total energy              =     -31.68434679 Ry
     Harris-Foulkes estimate   =     -31.88081440 Ry
     estimated scf accuracy    <       1.61401046 Ry

     iteration #  7     ecut=    30.00 Ry     beta=0.70
     Davidson diagonalization with overlap
     ethr =  1.00E-02,  avg # of iterations =  1.0

     negative rho (up, down):  6.789E-05 0.000E+00

     total cpu time spent up to now is        3.2 secs

     total energy              =     -31.89732364 Ry
     Harris-Foulkes estimate   =     -31.94416034 Ry
     estimated scf accuracy    <       1.05529152 Ry

     iteration #  8     ecut=    30.00 Ry     beta=0.70
     Davidson diagonalization with overlap
     ethr =  1.00E-02,  avg # of iterations =  1.0

     negative rho (up, down):  4.105E-05 0.000E+00

     total cpu time spent up to now is        3.2 secs

     total energy              =     -31.87279081 Ry
     Harris-Foulkes estimate   =     -31.89743116 Ry
     estimated scf accuracy    <       0.99455422 Ry

     iteration #  9     ecut=    30.00 Ry     beta=0.70
     Davidson diagonalization with overlap
     ethr =  1.00E-02,  avg # of iterations =  1.0

     negative rho (up, down):  3.906E-05 0.000E+00

     total cpu time spent up to now is        3.2 secs

     total energy              =     -31.83985435 Ry
     Harris-Foulkes estimate   =     -31.87293251 Ry
     estimated scf accuracy    <       0.92142778 Ry

     iteration # 10     ecut=    30.00 Ry     beta=0.70
     Davidson diagonalization with overlap
     ethr =  1.00E-02,  avg # of iterations =  1.0

     negative rho (up, down):  2.175E-05 0.000E+00

     total cpu time spent up to now is        3.3 secs

     total energy              =     -31.81446412 Ry
     Harris-Foulkes estimate   =     -31.84636811 Ry
     estimated scf accuracy    <       0.15046091 Ry

     iteration # 11     ecut=    30.00 Ry     beta=0.70
     Davidson diagonalization with overlap
     ethr =  1.88E-03,  avg # of iterations =  1.0

     total cpu time spent up to now is        3.3 secs

     total energy              =     -31.87100951 Ry
     Harris-Foulkes estimate   =     -31.91905122 Ry
     estimated scf accuracy    <       1.28783724 Ry

     iteration # 12     ecut=    30.00 Ry     beta=0.70
     Davidson diagonalization with overlap
     ethr =  1.88E-03,  avg # of iterations =  1.0

     negative rho (up, down):  2.673E-08 0.000E+00

     total cpu time spent up to now is        3.3 secs

     total energy              =     -31.79218105 Ry
     Harris-Foulkes estimate   =     -31.86775096 Ry
     estimated scf accuracy    <       1.44971602 Ry

     iteration # 13     ecut=    30.00 Ry     beta=0.70
     Davidson diagonalization with overlap
     ethr =  1.88E-03,  avg # of iterations =  1.0

     negative rho (up, down):  3.553E-08 0.000E+00

     total cpu time spent up to now is        3.4 secs

     total energy              =     -31.85160231 Ry
     Harris-Foulkes estimate   =     -31.85766039 Ry
     estimated scf accuracy    <       0.66277545 Ry

     iteration # 14     ecut=    30.00 Ry     beta=0.70
     Davidson diagonalization with overlap
     ethr =  1.88E-03,  avg # of iterations =  1.0

     total cpu time spent up to now is        3.4 secs

     total energy              =     -31.85260538 Ry
     Harris-Foulkes estimate   =     -31.85207263 Ry
     estimated scf accuracy    <       0.45627309 Ry

     iteration # 15     ecut=    30.00 Ry     beta=0.70
     Davidson diagonalization with overlap
     ethr =  1.88E-03,  avg # of iterations =  1.0

     negative rho (up, down):  6.722E-07 0.000E+00

     total cpu time spent up to now is        3.4 secs

     total energy              =     -31.85433426 Ry
     Harris-Foulkes estimate   =     -31.85261247 Ry
     estimated scf accuracy    <       0.48008680 Ry

     iteration # 16     ecut=    30.00 Ry     beta=0.70
     Davidson diagonalization with overlap
     ethr =  1.88E-03,  avg # of iterations =  1.0

     negative rho (up, down):  4.627E-07 0.000E+00

     total cpu time spent up to now is        3.5 secs

     total energy              =     -31.83945785 Ry
     Harris-Foulkes estimate   =     -31.85439656 Ry
     estimated scf accuracy    <       0.55272440 Ry

     iteration # 17     ecut=    30.00 Ry     beta=0.70
     Davidson diagonalization with overlap
     ethr =  1.88E-03,  avg # of iterations =  1.0

     negative rho (up, down):  6.148E-07 0.000E+00

     total cpu time spent up to now is        3.5 secs

     total energy              =     -31.84249649 Ry
     Harris-Foulkes estimate   =     -31.84456513 Ry
     estimated scf accuracy    <       0.02709217 Ry

     iteration # 18     ecut=    30.00 Ry     beta=0.70
     Davidson diagonalization with overlap
     ethr =  3.39E-04,  avg # of iterations =  1.0

     negative rho (up, down):  5.532E-07 0.000E+00

     total cpu time spent up to now is        3.5 secs

     total energy              =     -31.84302460 Ry
     Harris-Foulkes estimate   =     -31.84565890 Ry
     estimated scf accuracy    <       0.11867562 Ry

     iteration # 19     ecut=    30.00 Ry     beta=0.70
     Davidson diagonalization with overlap
     ethr =  3.39E-04,  avg # of iterations =  1.0

     negative rho (up, down):  3.119E-07 0.000E+00

     total cpu time spent up to now is        3.6 secs

     total energy              =     -31.84415088 Ry
     Harris-Foulkes estimate   =     -31.84421704 Ry
     estimated scf accuracy    <       0.00104360 Ry

     iteration # 20     ecut=    30.00 Ry     beta=0.70
     Davidson diagonalization with overlap
     ethr =  1.30E-05,  avg # of iterations =  7.0

     negative rho (up, down):  1.002E-08 0.000E+00

     total cpu time spent up to now is        3.6 secs

     total energy              =     -31.84408900 Ry
     Harris-Foulkes estimate   =     -31.84423942 Ry
     estimated scf accuracy    <       0.00264317 Ry

     iteration # 21     ecut=    30.00 Ry     beta=0.70
     Davidson diagonalization with overlap
     ethr =  1.30E-05,  avg # of iterations =  1.0

     total cpu time spent up to now is        3.6 secs

     total energy              =     -31.84415851 Ry
     Harris-Foulkes estimate   =     -31.84426166 Ry
     estimated scf accuracy    <       0.00437541 Ry

     iteration # 22     ecut=    30.00 Ry     beta=0.70
     Davidson diagonalization with overlap
     ethr =  1.30E-05,  avg # of iterations =  1.0

     total cpu time spent up to now is        3.7 secs

     total energy              =     -31.84420643 Ry
     Harris-Foulkes estimate   =     -31.84420709 Ry
     estimated scf accuracy    <       0.00001440 Ry

     iteration # 23     ecut=    30.00 Ry     beta=0.70
     Davidson diagonalization with overlap
     ethr =  1.80E-07,  avg # of iterations =  1.0

     total cpu time spent up to now is        3.7 secs

     total energy              =     -31.84420703 Ry
     Harris-Foulkes estimate   =     -31.84420711 Ry
     estimated scf accuracy    <       0.00001190 Ry

     iteration # 24     ecut=    30.00 Ry     beta=0.70
     Davidson diagonalization with overlap
     ethr =  1.49E-07,  avg # of iterations =  1.0

     total cpu time spent up to now is        3.7 secs

     total energy              =     -31.84420691 Ry
     Harris-Foulkes estimate   =     -31.84420704 Ry
     estimated scf accuracy    <       0.00000761 Ry

     iteration # 25     ecut=    30.00 Ry     beta=0.70
     Davidson diagonalization with overlap
     ethr =  9.51E-08,  avg # of iterations =  1.0

     total cpu time spent up to now is        3.8 secs

     total energy              =     -31.84420696 Ry
     Harris-Foulkes estimate   =     -31.84420699 Ry
     estimated scf accuracy    <       0.00000002 Ry

     iteration # 26     ecut=    30.00 Ry     beta=0.70
     Davidson diagonalization with overlap
     ethr =  3.12E-10,  avg # of iterations =  1.0

     total cpu time spent up to now is        3.8 secs

     End of self-consistent calculation

          k = 0.0000 0.0000 0.0000 ( 22119 PWs)   bands (ev):

   -23.8184  -9.5375  -6.9429  -6.9429  -6.8076  -2.5050  -0.0158   0.8161

     the Fermi energy is    -6.7739 ev

!    total energy              =     -31.84420696 Ry
     Harris-Foulkes estimate   =     -31.84420696 Ry
     estimated scf accuracy    <          5.7E-10 Ry

     convergence has been achieved in  26 iterations

     Forces acting on atoms (Ry/au):

     atom    1 type  1   force =     0.00014415    0.00045071   -0.00016390
     atom    2 type  1   force =    -0.13860973   -0.00054880   -0.12377796
     atom    3 type  2   force =     0.13846559    0.00009809    0.12394185

     Total force =     0.262809     Total SCF correction =     0.000015

     Entering Dynamics:    iteration =     3
                           time      =   0.0145 pico-seconds


     Andersen thermostat:    3 collisions

ATOMIC_POSITIONS (bohr)
H       11.812444303   1.955970983   4.567919336
H        9.130231922   9.724642975  14.976453196
O        8.560516596   9.656161159  14.259536441


     kinetic energy (Ekin) =     0.03227287 Ry
     temperature           =  1698.49249478 K 
     Ekin + Etot (const)   =   -31.81193409 Ry
     Message from routine dynamics:
     Total linear momentum <> 0

     Linear momentum :    0.3047675616   -0.3500624036   -0.1369358232

     Writing output data file pwscf.save

     second order wave-functions extrapolation
     Check: negative starting charge=   -0.348493
     second order charge density extrapolation
     Check: negative starting charge=   -0.354985

     negative rho (up, down):  1.230E-01 0.000E+00

     total cpu time spent up to now is        4.2 secs

     per-process dynamical memory:    20.4 Mb

     Self-consistent Calculation

     iteration #  1     ecut=    30.00 Ry     beta=0.70
     Davidson diagonalization with overlap
     c_bands:  1 eigenvalues not converged
     ethr =  1.00E-06,  avg # of iterations = 20.0

     negative rho (up, down):  2.363E-02 0.000E+00

     total cpu time spent up to now is        4.3 secs

     total energy              =     -11.20438763 Ry
     Harris-Foulkes estimate   =     -38.71143118 Ry
     estimated scf accuracy    <       5.75983002 Ry

     iteration #  2     ecut=    30.00 Ry     beta=0.70
     Davidson diagonalization with overlap
     ethr =  1.00E-02,  avg # of iterations =  3.0

     negative rho (up, down):  1.409E-02 0.000E+00

     total cpu time spent up to now is        4.3 secs

     total energy              =     -30.20698831 Ry
     Harris-Foulkes estimate   =     -32.86572953 Ry
     estimated scf accuracy    <       5.70856570 Ry

     iteration #  3     ecut=    30.00 Ry     beta=0.70
     Davidson diagonalization with overlap
     ethr =  1.00E-02,  avg # of iterations =  2.0

     negative rho (up, down):  1.194E-02 0.000E+00

     total cpu time spent up to now is        4.4 secs

     total energy              =     -30.21304177 Ry
     Harris-Foulkes estimate   =     -30.96128361 Ry
     estimated scf accuracy    <       3.02276877 Ry

     iteration #  4     ecut=    30.00 Ry     beta=0.70
     Davidson diagonalization with overlap
     ethr =  1.00E-02,  avg # of iterations =  1.0

     negative rho (up, down):  7.559E-03 0.000E+00

     total cpu time spent up to now is        4.4 secs

     total energy              =     -29.83976859 Ry
     Harris-Foulkes estimate   =     -30.41649829 Ry
     estimated scf accuracy    <       2.20956936 Ry

     iteration #  5     ecut=    30.00 Ry     beta=0.70
     Davidson diagonalization with overlap
     ethr =  1.00E-02,  avg # of iterations =  1.0

     negative rho (up, down):  4.577E-03 0.000E+00

     total cpu time spent up to now is        4.4 secs

     total energy              =     -29.93189515 Ry
     Harris-Foulkes estimate   =     -30.15392375 Ry
     estimated scf accuracy    <       1.62535037 Ry

     iteration #  6     ecut=    30.00 Ry     beta=0.70
     Davidson diagonalization with overlap
     ethr =  1.00E-02,  avg # of iterations =  1.0

     negative rho (up, down):  1.545E-03 0.000E+00

     total cpu time spent up to now is        4.4 secs

     total energy              =     -29.60836211 Ry
     Harris-Foulkes estimate   =     -29.93698595 Ry
     estimated scf accuracy    <       1.22134719 Ry

     iteration #  7     ecut=    30.00 Ry     beta=0.70
     Davidson diagonalization with overlap
     ethr =  1.00E-02,  avg # of iterations =  1.0

     negative rho (up, down):  2.549E-04 0.000E+00

     total cpu time spent up to now is        4.5 secs

     total energy              =     -29.87156829 Ry
     Harris-Foulkes estimate   =     -30.04883203 Ry
     estimated scf accuracy    <       1.68385662 Ry

     iteration #  8     ecut=    30.00 Ry     beta=0.70
     Davidson diagonalization with overlap
     ethr =  1.00E-02,  avg # of iterations =  1.0

     negative rho (up, down):  9.838E-05 0.000E+00

     total cpu time spent up to now is        4.5 secs

     total energy              =     -29.81522908 Ry
     Harris-Foulkes estimate   =     -29.87460188 Ry
     estimated scf accuracy    <       1.44030204 Ry

     iteration #  9     ecut=    30.00 Ry     beta=0.70
     Davidson diagonalization with overlap
     ethr =  1.00E-02,  avg # of iterations =  1.0

     negative rho (up, down):  1.821E-05 0.000E+00

     total cpu time spent up to now is        4.5 secs

     total energy              =     -29.75930364 Ry
     Harris-Foulkes estimate   =     -29.81402520 Ry
     estimated scf accuracy    <       0.67056710 Ry

     iteration # 10     ecut=    30.00 Ry     beta=0.70
     Davidson diagonalization with overlap
     ethr =  8.38E-03,  avg # of iterations =  1.0

     total cpu time spent up to now is        4.6 secs

     total energy              =     -29.85561487 Ry
     Harris-Foulkes estimate   =     -29.83971460 Ry
     estimated scf accuracy    <       0.87457494 Ry

     iteration # 11     ecut=    30.00 Ry     beta=0.70
     Davidson diagonalization with overlap
     ethr =  8.38E-03,  avg # of iterations =  1.0

     total cpu time spent up to now is        4.6 secs

     total energy              =     -29.84859293 Ry
     Harris-Foulkes estimate   =     -29.85573173 Ry
     estimated scf accuracy    <       0.90668491 Ry

     iteration # 12     ecut=    30.00 Ry     beta=0.70
     Davidson diagonalization with overlap
     ethr =  8.38E-03,  avg # of iterations =  1.0

     total cpu time spent up to now is        4.6 secs

     total energy              =     -29.77238419 Ry
     Harris-Foulkes estimate   =     -29.84859839 Ry
     estimated scf accuracy    <       0.89591148 Ry

     iteration # 13     ecut=    30.00 Ry     beta=0.70
     Davidson diagonalization with overlap
     ethr =  8.38E-03,  avg # of iterations =  1.0

     total cpu time spent up to now is        4.7 secs

     total energy              =     -29.81361728 Ry
     Harris-Foulkes estimate   =     -29.81934069 Ry
     estimated scf accuracy    <       0.89394617 Ry

     iteration # 14     ecut=    30.00 Ry     beta=0.70
     Davidson diagonalization with overlap
     ethr =  8.38E-03,  avg # of iterations =  1.0

     total cpu time spent up to now is        4.7 secs

     total energy              =     -29.81171299 Ry
     Harris-Foulkes estimate   =     -29.81428569 Ry
     estimated scf accuracy    <       0.51963052 Ry

     iteration # 15     ecut=    30.00 Ry     beta=0.70
     Davidson diagonalization with overlap
     ethr =  6.50E-03,  avg # of iterations =  1.0

     total cpu time spent up to now is        4.7 secs

     total energy              =     -29.79335212 Ry
     Harris-Foulkes estimate   =     -29.81196449 Ry
     estimated scf accuracy    <       0.33320840 Ry

     iteration # 16     ecut=    30.00 Ry     beta=0.70
     Davidson diagonalization with overlap
     ethr =  4.17E-03,  avg # of iterations =  1.0

     total cpu time spent up to now is        4.8 secs

     total energy              =     -29.80600883 Ry
     Harris-Foulkes estimate   =     -29.81416276 Ry
     estimated scf accuracy    <       0.37354157 Ry

     iteration # 17     ecut=    30.00 Ry     beta=0.70
     Davidson diagonalization with overlap
     ethr =  4.17E-03,  avg # of iterations =  1.0

     total cpu time spent up to now is        4.8 secs

     total energy              =     -29.80783978 Ry
     Harris-Foulkes estimate   =     -29.80851305 Ry
     estimated scf accuracy    <       0.04141668 Ry

     iteration # 18     ecut=    30.00 Ry     beta=0.70
     Davidson diagonalization with overlap
     ethr =  5.18E-04,  avg # of iterations =  1.0

     total cpu time spent up to now is        4.8 secs

     total energy              =     -29.80790794 Ry
     Harris-Foulkes estimate   =     -29.80803810 Ry
     estimated scf accuracy    <       0.00662052 Ry

     iteration # 19     ecut=    30.00 Ry     beta=0.70
     Davidson diagonalization with overlap
     ethr =  8.28E-05,  avg # of iterations = 11.0

     total cpu time spent up to now is        4.9 secs

     total energy              =     -29.80793878 Ry
     Harris-Foulkes estimate   =     -29.80795635 Ry
     estimated scf accuracy    <       0.00038191 Ry

     iteration # 20     ecut=    30.00 Ry     beta=0.70
     Davidson diagonalization with overlap
     ethr =  4.77E-06,  avg # of iterations =  4.0

     total cpu time spent up to now is        4.9 secs

     total energy              =     -29.80794709 Ry
     Harris-Foulkes estimate   =     -29.80795290 Ry
     estimated scf accuracy    <       0.00019870 Ry

     iteration # 21     ecut=    30.00 Ry     beta=0.70
     Davidson diagonalization with overlap
     ethr =  2.48E-06,  avg # of iterations =  1.0

     total cpu time spent up to now is        4.9 secs

     total energy              =     -29.80794959 Ry
     Harris-Foulkes estimate   =     -29.80795000 Ry
     estimated scf accuracy    <       0.00000141 Ry

     iteration # 22     ecut=    30.00 Ry     beta=0.70
     Davidson diagonalization with overlap
     ethr =  1.76E-08,  avg # of iterations =  1.0

     total cpu time spent up to now is        5.0 secs

     total energy              =     -29.80794803 Ry
     Harris-Foulkes estimate   =     -29.80794979 Ry
     estimated scf accuracy    <       0.00002634 Ry

     iteration # 23     ecut=    30.00 Ry     beta=0.70
     Davidson diagonalization with overlap
     ethr =  1.76E-08,  avg # of iterations =  1.0

     total cpu time spent up to now is        5.0 secs

     total energy              =     -29.80794841 Ry
     Harris-Foulkes estimate   =     -29.80794858 Ry
     estimated scf accuracy    <       0.00000206 Ry

     iteration # 24     ecut=    30.00 Ry     beta=0.70
     Davidson diagonalization with overlap
     ethr =  1.76E-08,  avg # of iterations =  1.0

     total cpu time spent up to now is        5.0 secs

     total energy              =     -29.80794840 Ry
     Harris-Foulkes estimate   =     -29.80794843 Ry
     estimated scf accuracy    <       0.00000006 Ry

     iteration # 25     ecut=    30.00 Ry     beta=0.70
     Davidson diagonalization with overlap
     ethr =  7.40E-10,  avg # of iterations =  1.0

     total cpu time spent up to now is        5.1 secs

     End of self-consistent calculation

          k = 0.0000 0.0000 0.0000 ( 22119 PWs)   bands (ev):

   -30.6082 -11.9045  -7.4139  -7.4136  -7.2601  -0.3323   0.6301   0.7823

     the Fermi energy is    -7.2385 ev

!    total energy              =     -29.80794838 Ry
     Harris-Foulkes estimate   =     -29.80794840 Ry
     estimated scf accuracy    <          2.9E-09 Ry

     convergence has been achieved in  25 iterations

     Forces acting on atoms (Ry/au):

     atom    1 type  1   force =     0.00018449    0.00044062   -0.00090313
     atom    2 type  1   force =     5.33213160    0.64201139    6.70895202
     atom    3 type  2   force =    -5.33231609   -0.64245201   -6.70804889

     Total force =    12.153111     Total SCF correction =     0.000056

     Entering Dynamics:    iteration =     4
                           time      =   0.0194 pico-seconds


     Andersen thermostat:    3 collisions

ATOMIC_POSITIONS (bohr)
H       11.802865734   1.824621516   4.467163868
H       66.856172338  16.363973030  87.660087170
O        4.917171255   9.245344884   9.677742236


     kinetic energy (Ekin) =   105.24009040 Ry
     temperature           = ************** K 
     Ekin + Etot (const)   =    75.43214202 Ry
     Message from routine dynamics:
     Total linear momentum <> 0

     Linear momentum :    0.6585480540    0.4524520681   -0.2987964083

     Writing output data file pwscf.save

     second order wave-functions extrapolation
     Check: negative starting charge=   -0.354985
     second order charge density extrapolation
     Check: negative starting charge=   -0.345986

     negative rho (up, down):  4.095E+01 0.000E+00

     total cpu time spent up to now is        5.4 secs

     per-process dynamical memory:    20.4 Mb

     Self-consistent Calculation

     iteration #  1     ecut=    30.00 Ry     beta=0.70
     Davidson diagonalization with overlap
     ethr =  1.00E-06,  avg # of iterations = 20.0

     negative rho (up, down):  1.156E+01 0.000E+00

     total cpu time spent up to now is        5.5 secs

     total energy              =      41.86136159 Ry
     Harris-Foulkes estimate   =   -8084.98548955 Ry
     estimated scf accuracy    <     471.48555139 Ry

     iteration #  2     ecut=    30.00 Ry     beta=0.70
     Davidson diagonalization with overlap
     ethr =  1.00E-02,  avg # of iterations = 14.0

     negative rho (up, down):  1.751E+00 0.000E+00

     total cpu time spent up to now is        5.6 secs

     total energy              =     300.29036051 Ry
     Harris-Foulkes estimate   =   -5261.19604902 Ry
     estimated scf accuracy    <      86.04889433 Ry

     iteration #  3     ecut=    30.00 Ry     beta=0.70
     Davidson diagonalization with overlap
     ethr =  1.00E-02,  avg # of iterations = 14.0

     negative rho (up, down):  2.211E-02 0.000E+00

     total cpu time spent up to now is        5.7 secs

     total energy              =     149.40581918 Ry
     Harris-Foulkes estimate   =    -654.27341965 Ry
     estimated scf accuracy    <      33.79551942 Ry

     iteration #  4     ecut=    30.00 Ry     beta=0.70
     Davidson diagonalization with overlap
     ethr =  1.00E-02,  avg # of iterations = 12.0

     negative rho (up, down):  2.433E-01 0.000E+00

     total cpu time spent up to now is        5.8 secs

     total energy              =    -306.29682264 Ry
     Harris-Foulkes estimate   =    -100.34788994 Ry
     estimated scf accuracy    <      52.96660541 Ry

     iteration #  5     ecut=    30.00 Ry     beta=0.70
     Davidson diagonalization with overlap
     ethr =  1.00E-02,  avg # of iterations =  6.0

     negative rho (up, down):  2.339E-03 0.000E+00

     total cpu time spent up to now is        5.8 secs

     total energy              =     158.25531587 Ry
     Harris-Foulkes estimate   =   -3659.31666546 Ry
     estimated scf accuracy    <      30.17466735 Ry

     iteration #  6     ecut=    30.00 Ry     beta=0.70
     Davidson diagonalization with overlap
     ethr =  1.00E-02,  avg # of iterations = 10.0

     negative rho (up, down):  8.034E-02 0.000E+00

     total cpu time spent up to now is        5.9 secs

     total energy              =     -64.06271285 Ry
     Harris-Foulkes estimate   =     -75.12686200 Ry
     estimated scf accuracy    <      59.17579187 Ry

     iteration #  7     ecut=    30.00 Ry     beta=0.70
     Davidson diagonalization with overlap
     ethr =  1.00E-02,  avg # of iterations =  4.0

     negative rho (up, down):  1.083E-01 0.000E+00

     total cpu time spent up to now is        5.9 secs

     total energy              =      36.97087006 Ry
     Harris-Foulkes estimate   =   -1009.48955500 Ry
     estimated scf accuracy    <      14.83035634 Ry

     iteration #  8     ecut=    30.00 Ry     beta=0.70
     Davidson diagonalization with overlap
     ethr =  1.00E-02,  avg # of iterations =  5.0

     negative rho (up, down):  1.509E-01 0.000E+00

     total cpu time spent up to now is        5.9 secs

     total energy              =      33.67349826 Ry
     Harris-Foulkes estimate   =    -448.56030228 Ry
     estimated scf accuracy    <      25.90782352 Ry

     iteration #  9     ecut=    30.00 Ry     beta=0.70
     Davidson diagonalization with overlap
     ethr =  1.00E-02,  avg # of iterations =  5.0

     negative rho (up, down):  1.643E-01 0.000E+00

     total cpu time spent up to now is        6.0 secs

     total energy              =   -1563.13400289 Ry
     Harris-Foulkes estimate   =     -82.33788691 Ry
     estimated scf accuracy    <      16.94647558 Ry

     iteration # 10     ecut=    30.00 Ry     beta=0.70
     Davidson diagonalization with overlap
     ethr =  1.00E-02,  avg # of iterations =  3.0

     negative rho (up, down):  1.250E-01 0.000E+00

     total cpu time spent up to now is        6.0 secs

     total energy              =     -10.70897578 Ry
     Harris-Foulkes estimate   =   -2716.87348041 Ry
     estimated scf accuracy    <      11.56311042 Ry

     iteration # 11     ecut=    30.00 Ry     beta=0.70
     Davidson diagonalization with overlap
     ethr =  1.00E-02,  avg # of iterations = 10.0

     negative rho (up, down):  7.157E-02 0.000E+00

     total cpu time spent up to now is        6.1 secs

     total energy              =     110.62404039 Ry
     Harris-Foulkes estimate   =    -866.32957944 Ry
     estimated scf accuracy    <      35.80351939 Ry

     iteration # 12     ecut=    30.00 Ry     beta=0.70
     Davidson diagonalization with overlap
     ethr =  1.00E-02,  avg # of iterations =  9.0

     negative rho (up, down):  4.020E-02 0.000E+00

     total cpu time spent up to now is        6.1 secs

     total energy              =      61.00293180 Ry
     Harris-Foulkes estimate   =    -248.88408922 Ry
     estimated scf accuracy    <      27.02961053 Ry

     iteration # 13     ecut=    30.00 Ry     beta=0.70
     Davidson diagonalization with overlap
     ethr =  1.00E-02,  avg # of iterations =  6.0

     negative rho (up, down):  2.859E-03 0.000E+00

     total cpu time spent up to now is        6.2 secs

     total energy              =      -1.43393210 Ry
     Harris-Foulkes estimate   =    -303.94467388 Ry
     estimated scf accuracy    <       9.11738622 Ry

     iteration # 14     ecut=    30.00 Ry     beta=0.70
     Davidson diagonalization with overlap
     ethr =  1.00E-02,  avg # of iterations =  5.0

     negative rho (up, down):  5.847E-02 0.000E+00

     total cpu time spent up to now is        6.2 secs

     total energy              =     -44.58053547 Ry
     Harris-Foulkes estimate   =     -53.31756911 Ry
     estimated scf accuracy    <      31.29060294 Ry

     iteration # 15     ecut=    30.00 Ry     beta=0.70
     Davidson diagonalization with overlap
     ethr =  1.00E-02,  avg # of iterations = 10.0

     negative rho (up, down):  3.784E-02 0.000E+00

     total cpu time spent up to now is        6.3 secs

     total energy              =      47.81279885 Ry
     Harris-Foulkes estimate   =    -182.51362992 Ry
     estimated scf accuracy    <      17.46993749 Ry

     iteration # 16     ecut=    30.00 Ry     beta=0.70
     Davidson diagonalization with overlap
     ethr =  1.00E-02,  avg # of iterations =  7.0

     negative rho (up, down):  6.562E-02 0.000E+00

     total cpu time spent up to now is        6.3 secs

     total energy              =      34.49444192 Ry
     Harris-Foulkes estimate   =    -118.22581791 Ry
     estimated scf accuracy    <      12.75067842 Ry

     iteration # 17     ecut=    30.00 Ry     beta=0.70
     Davidson diagonalization with overlap
     ethr =  1.00E-02,  avg # of iterations =  7.0

     negative rho (up, down):  6.184E-02 0.000E+00

     total cpu time spent up to now is        6.4 secs

     total energy              =     -11.10876765 Ry
     Harris-Foulkes estimate   =     -65.74316063 Ry
     estimated scf accuracy    <      14.68356904 Ry

     iteration # 18     ecut=    30.00 Ry     beta=0.70
     Davidson diagonalization with overlap
     ethr =  1.00E-02,  avg # of iterations =  5.0

     negative rho (up, down):  7.133E-02 0.000E+00

     total cpu time spent up to now is        6.4 secs

     total energy              =     -25.82634551 Ry
     Harris-Foulkes estimate   =    -117.95811329 Ry
     estimated scf accuracy    <      12.81139756 Ry

     iteration # 19     ecut=    30.00 Ry     beta=0.70
     Davidson diagonalization with overlap
     ethr =  1.00E-02,  avg # of iterations =  5.0

     negative rho (up, down):  8.733E-05 0.000E+00

     total cpu time spent up to now is        6.5 secs

     total energy              =      35.05065322 Ry
     Harris-Foulkes estimate   =    -121.80494127 Ry
     estimated scf accuracy    <      12.33097744 Ry

     iteration # 20     ecut=    30.00 Ry     beta=0.70
     Davidson diagonalization with overlap
     ethr =  1.00E-02,  avg # of iterations =  5.0

     negative rho (up, down):  3.383E-02 0.000E+00

     total cpu time spent up to now is        6.5 secs

     total energy              =     -40.21248325 Ry
     Harris-Foulkes estimate   =     -44.99153874 Ry
     estimated scf accuracy    <      20.89441170 Ry

     iteration # 21     ecut=    30.00 Ry     beta=0.70
     Davidson diagonalization with overlap
     ethr =  1.00E-02,  avg # of iterations =  1.0

     negative rho (up, down):  6.430E-02 0.000E+00

     total cpu time spent up to now is        6.6 secs

     total energy              =     -37.75431713 Ry
     Harris-Foulkes estimate   =     -40.26177467 Ry
     estimated scf accuracy    <      14.61661758 Ry

     iteration # 22     ecut=    30.00 Ry     beta=0.70
     Davidson diagonalization with overlap
     ethr =  1.00E-02,  avg # of iterations = 10.0

     negative rho (up, down):  7.528E-02 0.000E+00

     total cpu time spent up to now is        6.6 secs

     total energy              =     114.90755278 Ry
     Harris-Foulkes estimate   =    -675.47280694 Ry
     estimated scf accuracy    <      31.27523830 Ry

     iteration # 23     ecut=    30.00 Ry     beta=0.70
     Davidson diagonalization with overlap
     ethr =  1.00E-02,  avg # of iterations =  8.0

     negative rho (up, down):  1.832E-03 0.000E+00

     total cpu time spent up to now is        6.7 secs

     total energy              =     108.20821919 Ry
     Harris-Foulkes estimate   =    -296.58716594 Ry
     estimated scf accuracy    <      51.97737144 Ry

     iteration # 24     ecut=    30.00 Ry     beta=0.70
     Davidson diagonalization with overlap
     ethr =  1.00E-02,  avg # of iterations =  7.0

     negative rho (up, down):  3.523E-02 0.000E+00

     total cpu time spent up to now is        6.7 secs

     total energy              =     -42.31896379 Ry
     Harris-Foulkes estimate   =     -39.31018144 Ry
     estimated scf accuracy    <      13.42525277 Ry

     iteration # 25     ecut=    30.00 Ry     beta=0.70
     Davidson diagonalization with overlap
     ethr =  1.00E-02,  avg # of iterations =  5.0

     negative rho (up, down):  1.155E-01 0.000E+00

     total cpu time spent up to now is        6.7 secs

     total energy              =       5.18774762 Ry
     Harris-Foulkes estimate   =   -2564.81701951 Ry
     estimated scf accuracy    <       7.30364431 Ry

     iteration # 26     ecut=    30.00 Ry     beta=0.70
     Davidson diagonalization with overlap
     ethr =  1.00E-02,  avg # of iterations =  6.0

     negative rho (up, down):  8.237E-02 0.000E+00

     total cpu time spent up to now is        6.8 secs

     total energy              =     -26.86205314 Ry
     Harris-Foulkes estimate   =    -232.87349582 Ry
     estimated scf accuracy    <      14.79906031 Ry

     iteration # 27     ecut=    30.00 Ry     beta=0.70
     Davidson diagonalization with overlap
     ethr =  1.00E-02,  avg # of iterations =  9.0

     negative rho (up, down):  2.995E-02 0.000E+00

     total cpu time spent up to now is        6.8 secs

     total energy              =       9.83834432 Ry
     Harris-Foulkes estimate   =    -142.55792430 Ry
     estimated scf accuracy    <      38.38725631 Ry

     iteration # 28     ecut=    30.00 Ry     beta=0.70
     Davidson diagonalization with overlap
     ethr =  1.00E-02,  avg # of iterations =  8.0

     negative rho (up, down):  1.514E-01 0.000E+00

     total cpu time spent up to now is        6.9 secs

     total energy              =      -6.42931581 Ry
     Harris-Foulkes estimate   =    -118.12095657 Ry
     estimated scf accuracy    <      10.40334431 Ry

     iteration # 29     ecut=    30.00 Ry     beta=0.70
     Davidson diagonalization with overlap
     ethr =  1.00E-02,  avg # of iterations =  6.0

     negative rho (up, down):  2.227E-01 0.000E+00

     total cpu time spent up to now is        6.9 secs

     total energy              =    -287.35819287 Ry
     Harris-Foulkes estimate   =     -84.00975532 Ry
     estimated scf accuracy    <      16.93667561 Ry

     iteration # 30     ecut=    30.00 Ry     beta=0.70
     Davidson diagonalization with overlap
     ethr =  1.00E-02,  avg # of iterations =  7.0

     negative rho (up, down):  2.618E-01 0.000E+00

     total cpu time spent up to now is        7.0 secs

     total energy              =       4.27948849 Ry
     Harris-Foulkes estimate   =   -3485.77660676 Ry
     estimated scf accuracy    <      14.56586336 Ry

     iteration # 31     ecut=    30.00 Ry     beta=0.70
     Davidson diagonalization with overlap
     ethr =  1.00E-02,  avg # of iterations =  7.0

     negative rho (up, down):  2.774E-01 0.000E+00

     total cpu time spent up to now is        7.0 secs

     total energy              =      22.18993920 Ry
     Harris-Foulkes estimate   =    -190.41140002 Ry
     estimated scf accuracy    <      18.44874606 Ry

     iteration # 32     ecut=    30.00 Ry     beta=0.70
     Davidson diagonalization with overlap
     ethr =  1.00E-02,  avg # of iterations =  5.0

     negative rho (up, down):  2.247E-01 0.000E+00

     total cpu time spent up to now is        7.1 secs

     total energy              =     -26.96326859 Ry
     Harris-Foulkes estimate   =     -50.04724478 Ry
     estimated scf accuracy    <      10.06312458 Ry

     iteration # 33     ecut=    30.00 Ry     beta=0.70
     Davidson diagonalization with overlap
     ethr =  1.00E-02,  avg # of iterations =  4.0

     negative rho (up, down):  2.966E-01 0.000E+00

     total cpu time spent up to now is        7.1 secs

     total energy              =      14.62642815 Ry
     Harris-Foulkes estimate   =    -434.83672815 Ry
     estimated scf accuracy    <      17.30247125 Ry

     iteration # 34     ecut=    30.00 Ry     beta=0.70
     Davidson diagonalization with overlap
     ethr =  1.00E-02,  avg # of iterations = 10.0

     negative rho (up, down):  5.625E-01 0.000E+00

     total cpu time spent up to now is        7.2 secs

     total energy              =    -260.91655771 Ry
     Harris-Foulkes estimate   =   -1206.05799192 Ry
     estimated scf accuracy    <      57.94582752 Ry

     iteration # 35     ecut=    30.00 Ry     beta=0.70
     Davidson diagonalization with overlap
     ethr =  1.00E-02,  avg # of iterations =  8.0

     negative rho (up, down):  6.141E-01 0.000E+00

     total cpu time spent up to now is        7.2 secs

     total energy              =      -2.06882501 Ry
     Harris-Foulkes estimate   =   -1410.55785605 Ry
     estimated scf accuracy    <      11.04704842 Ry

     iteration # 36     ecut=    30.00 Ry     beta=0.70
     Davidson diagonalization with overlap
     ethr =  1.00E-02,  avg # of iterations =  6.0

     negative rho (up, down):  3.688E-01 0.000E+00

     total cpu time spent up to now is        7.3 secs

     total energy              =     103.36560529 Ry
     Harris-Foulkes estimate   =    -237.79451863 Ry
     estimated scf accuracy    <      57.21207503 Ry

     iteration # 37     ecut=    30.00 Ry     beta=0.70
     Davidson diagonalization with overlap
     ethr =  1.00E-02,  avg # of iterations =  7.0

     negative rho (up, down):  3.307E-01 0.000E+00

     total cpu time spent up to now is        7.3 secs

     total energy              =     -10.53272069 Ry
     Harris-Foulkes estimate   =     -45.79636760 Ry
     estimated scf accuracy    <       7.28442574 Ry

     iteration # 38     ecut=    30.00 Ry     beta=0.70
     Davidson diagonalization with overlap
     ethr =  1.00E-02,  avg # of iterations =  7.0

     negative rho (up, down):  3.989E-01 0.000E+00

     total cpu time spent up to now is        7.4 secs

     total energy              =      27.60796849 Ry
     Harris-Foulkes estimate   =     -87.25072562 Ry
     estimated scf accuracy    <       9.66321997 Ry

     iteration # 39     ecut=    30.00 Ry     beta=0.70
     Davidson diagonalization with overlap
     ethr =  1.00E-02,  avg # of iterations =  5.0

     negative rho (up, down):  3.062E-01 0.000E+00

     total cpu time spent up to now is        7.4 secs

     total energy              =     -37.28705017 Ry
     Harris-Foulkes estimate   =     -38.60881495 Ry
     estimated scf accuracy    <      12.14042939 Ry

     iteration # 40     ecut=    30.00 Ry     beta=0.70
     Davidson diagonalization with overlap
     ethr =  1.00E-02,  avg # of iterations =  5.0

     negative rho (up, down):  2.645E-02 0.000E+00

     total cpu time spent up to now is        7.4 secs

     total energy              =     -42.53446567 Ry
     Harris-Foulkes estimate   =    -103.60439035 Ry
     estimated scf accuracy    <       5.34090586 Ry

     iteration # 41     ecut=    30.00 Ry     beta=0.70
     Davidson diagonalization with overlap
     ethr =  1.00E-02,  avg # of iterations =  4.0

     negative rho (up, down):  1.414E-01 0.000E+00

     total cpu time spent up to now is        7.5 secs

     total energy              =      33.08372227 Ry
     Harris-Foulkes estimate   =    -464.93642721 Ry
     estimated scf accuracy    <      11.06381086 Ry

     iteration # 42     ecut=    30.00 Ry     beta=0.70
     Davidson diagonalization with overlap
     ethr =  1.00E-02,  avg # of iterations =  5.0

     negative rho (up, down):  6.597E-02 0.000E+00

     total cpu time spent up to now is        7.5 secs

     total energy              =     -34.89316138 Ry
     Harris-Foulkes estimate   =     -36.29703182 Ry
     estimated scf accuracy    <       9.32344821 Ry

     iteration # 43     ecut=    30.00 Ry     beta=0.70
     Davidson diagonalization with overlap
     ethr =  1.00E-02,  avg # of iterations =  4.0

     negative rho (up, down):  7.179E-02 0.000E+00

     total cpu time spent up to now is        7.6 secs

     total energy              =       3.51692575 Ry
     Harris-Foulkes estimate   =    -436.75970370 Ry
     estimated scf accuracy    <      15.12546269 Ry

     iteration # 44     ecut=    30.00 Ry     beta=0.70
     Davidson diagonalization with overlap
     ethr =  1.00E-02,  avg # of iterations =  4.0

     negative rho (up, down):  1.230E-01 0.000E+00

     total cpu time spent up to now is        7.6 secs

     total energy              =     -37.84071859 Ry
     Harris-Foulkes estimate   =     -34.95258171 Ry
     estimated scf accuracy    <       7.49645727 Ry

     iteration # 45     ecut=    30.00 Ry     beta=0.70
     Davidson diagonalization with overlap
     ethr =  1.00E-02,  avg # of iterations = 10.0

     negative rho (up, down):  1.030E-01 0.000E+00

     total cpu time spent up to now is        7.7 secs

     total energy              =     -30.47527537 Ry
     Harris-Foulkes estimate   =   -4446.43263437 Ry
     estimated scf accuracy    <      58.77939817 Ry

     iteration # 46     ecut=    30.00 Ry     beta=0.70
     Davidson diagonalization with overlap
     ethr =  1.00E-02,  avg # of iterations =  4.0

     negative rho (up, down):  7.284E-02 0.000E+00

     total cpu time spent up to now is        7.7 secs

     total energy              =    -632.43251529 Ry
     Harris-Foulkes estimate   =    -321.50024167 Ry
     estimated scf accuracy    <      31.06633706 Ry

     iteration # 47     ecut=    30.00 Ry     beta=0.70
     Davidson diagonalization with overlap
     ethr =  1.00E-02,  avg # of iterations =  4.0

     negative rho (up, down):  1.251E-01 0.000E+00

     total cpu time spent up to now is        7.7 secs

     total energy              =    -812.16172786 Ry
     Harris-Foulkes estimate   =   -2436.96515940 Ry
     estimated scf accuracy    <      11.19634128 Ry

     iteration # 48     ecut=    30.00 Ry     beta=0.70
     Davidson diagonalization with overlap
     ethr =  1.00E-02,  avg # of iterations =  3.0

     negative rho (up, down):  1.241E-01 0.000E+00

     total cpu time spent up to now is        7.8 secs

     total energy              =     -45.56841433 Ry
     Harris-Foulkes estimate   =   -3917.68585637 Ry
     estimated scf accuracy    <      30.57752077 Ry

     iteration # 49     ecut=    30.00 Ry     beta=0.70
     Davidson diagonalization with overlap
     ethr =  1.00E-02,  avg # of iterations =  9.0

     negative rho (up, down):  1.624E-02 0.000E+00

     total cpu time spent up to now is        7.8 secs

     total energy              =       0.86489249 Ry
     Harris-Foulkes estimate   =    -176.73443762 Ry
     estimated scf accuracy    <      12.85835412 Ry

     iteration # 50     ecut=    30.00 Ry     beta=0.70
     Davidson diagonalization with overlap
     ethr =  1.00E-02,  avg # of iterations =  6.0

     negative rho (up, down):  3.496E-02 0.000E+00

     total cpu time spent up to now is        7.9 secs

     total energy              =      -1.21754455 Ry
     Harris-Foulkes estimate   =     -95.61225210 Ry
     estimated scf accuracy    <       3.51281384 Ry

     iteration # 51     ecut=    30.00 Ry     beta=0.70
     Davidson diagonalization with overlap
     ethr =  1.00E-02,  avg # of iterations =  9.0

     negative rho (up, down):  3.806E-02 0.000E+00

     total cpu time spent up to now is        7.9 secs

     total energy              =      -2.94278917 Ry
     Harris-Foulkes estimate   =    -268.60012664 Ry
     estimated scf accuracy    <      28.39999858 Ry

     iteration # 52     ecut=    30.00 Ry     beta=0.70
     Davidson diagonalization with overlap
     ethr =  1.00E-02,  avg # of iterations =  8.0

     negative rho (up, down):  1.167E-01 0.000E+00

     total cpu time spent up to now is        8.0 secs

     total energy              =     -30.18297317 Ry
     Harris-Foulkes estimate   =    -571.09333297 Ry
     estimated scf accuracy    <      20.01226592 Ry

     iteration # 53     ecut=    30.00 Ry     beta=0.70
     Davidson diagonalization with overlap
     ethr =  1.00E-02,  avg # of iterations =  9.0

     negative rho (up, down):  4.018E-01 0.000E+00

     total cpu time spent up to now is        8.0 secs

     total energy              =     -44.39113602 Ry
     Harris-Foulkes estimate   =    -202.93193885 Ry
     estimated scf accuracy    <      33.75048512 Ry

     iteration # 54     ecut=    30.00 Ry     beta=0.70
     Davidson diagonalization with overlap
     ethr =  1.00E-02,  avg # of iterations =  7.0

     negative rho (up, down):  3.370E-01 0.000E+00

     total cpu time spent up to now is        8.1 secs

     total energy              =       4.47498316 Ry
     Harris-Foulkes estimate   =   -1853.04842300 Ry
     estimated scf accuracy    <      51.93318697 Ry

     iteration # 55     ecut=    30.00 Ry     beta=0.70
     Davidson diagonalization with overlap
     ethr =  1.00E-02,  avg # of iterations =  9.0

     negative rho (up, down):  3.546E-01 0.000E+00

     total cpu time spent up to now is        8.2 secs

     total energy              =    -393.11146517 Ry
     Harris-Foulkes estimate   =    -989.86974306 Ry
     estimated scf accuracy    <      59.89612759 Ry

     iteration # 56     ecut=    30.00 Ry     beta=0.70
     Davidson diagonalization with overlap
     ethr =  1.00E-02,  avg # of iterations =  8.0

     negative rho (up, down):  3.510E-01 0.000E+00

     total cpu time spent up to now is        8.3 secs

     total energy              =    -340.13326207 Ry
     Harris-Foulkes estimate   =   -1484.46593044 Ry
     estimated scf accuracy    <      50.35495462 Ry

     iteration # 57     ecut=    30.00 Ry     beta=0.70
     Davidson diagonalization with overlap
     ethr =  1.00E-02,  avg # of iterations = 10.0

     negative rho (up, down):  1.809E-01 0.000E+00

     total cpu time spent up to now is        8.3 secs

     total energy              =     -53.33158718 Ry
     Harris-Foulkes estimate   =   -1130.18857954 Ry
     estimated scf accuracy    <      50.51715850 Ry

     iteration # 58     ecut=    30.00 Ry     beta=0.70
     Davidson diagonalization with overlap
     ethr =  1.00E-02,  avg # of iterations =  6.0

     negative rho (up, down):  2.722E-01 0.000E+00

     total cpu time spent up to now is        8.4 secs

     total energy              =     426.09246861 Ry
     Harris-Foulkes estimate   =    -698.42396141 Ry
     estimated scf accuracy    <      23.24718595 Ry

     iteration # 59     ecut=    30.00 Ry     beta=0.70
     Davidson diagonalization with overlap
     ethr =  1.00E-02,  avg # of iterations =  7.0

     negative rho (up, down):  1.329E+00 0.000E+00

     total cpu time spent up to now is        8.4 secs

     total energy              =   -1252.27920247 Ry
     Harris-Foulkes estimate   =   -1127.91831472 Ry
     estimated scf accuracy    <      44.79551130 Ry

     iteration # 60     ecut=    30.00 Ry     beta=0.70
     Davidson diagonalization with overlap
     ethr =  1.00E-02,  avg # of iterations =  6.0

     negative rho (up, down):  1.862E+00 0.000E+00

     total cpu time spent up to now is        8.5 secs

     total energy              =      85.77920316 Ry
     Harris-Foulkes estimate   =  -10025.26641689 Ry
     estimated scf accuracy    <      42.42509280 Ry

     iteration # 61     ecut=    30.00 Ry     beta=0.70
     Davidson diagonalization with overlap
     ethr =  1.00E-02,  avg # of iterations = 11.0

     negative rho (up, down):  1.683E+00 0.000E+00

     total cpu time spent up to now is        8.5 secs

     total energy              =    -294.20653753 Ry
     Harris-Foulkes estimate   =    -424.80596448 Ry
     estimated scf accuracy    <      37.01775920 Ry

     iteration # 62     ecut=    30.00 Ry     beta=0.70
     Davidson diagonalization with overlap
     ethr =  1.00E-02,  avg # of iterations =  8.0

     negative rho (up, down):  2.338E+00 0.000E+00

     total cpu time spent up to now is        8.6 secs

     total energy              =   -1251.12072737 Ry
     Harris-Foulkes estimate   =  -11805.61022433 Ry
     estimated scf accuracy    <      31.50957649 Ry

     iteration # 63     ecut=    30.00 Ry     beta=0.70
     Davidson diagonalization with overlap
     ethr =  1.00E-02,  avg # of iterations =  5.0

     negative rho (up, down):  2.295E+00 0.000E+00

     total cpu time spent up to now is        8.6 secs

     total energy              =    -211.41276283 Ry
     Harris-Foulkes estimate   =  -11053.70367255 Ry
     estimated scf accuracy    <      33.85417278 Ry

     iteration # 64     ecut=    30.00 Ry     beta=0.70
     Davidson diagonalization with overlap
     ethr =  1.00E-02,  avg # of iterations =  8.0

     negative rho (up, down):  1.940E+00 0.000E+00

     total cpu time spent up to now is        8.7 secs

     total energy              =     109.03930818 Ry
     Harris-Foulkes estimate   =  -10971.66574617 Ry
     estimated scf accuracy    <      30.52403118 Ry

     iteration # 65     ecut=    30.00 Ry     beta=0.70
     Davidson diagonalization with overlap
     ethr =  1.00E-02,  avg # of iterations = 10.0

     negative rho (up, down):  1.894E+00 0.000E+00

     total cpu time spent up to now is        8.8 secs

     total energy              =   -1982.81395587 Ry
     Harris-Foulkes estimate   =   -1566.38744867 Ry
     estimated scf accuracy    <      32.94005991 Ry

     iteration # 66     ecut=    30.00 Ry     beta=0.70
     Davidson diagonalization with overlap
     ethr =  1.00E-02,  avg # of iterations =  8.0

     negative rho (up, down):  1.240E+00 0.000E+00

     total cpu time spent up to now is        8.8 secs

     total energy              =    -306.41531226 Ry
     Harris-Foulkes estimate   =   -7954.73243078 Ry
     estimated scf accuracy    <      28.33094875 Ry

     iteration # 67     ecut=    30.00 Ry     beta=0.70
     Davidson diagonalization with overlap
     ethr =  1.00E-02,  avg # of iterations =  8.0

     negative rho (up, down):  4.849E-01 0.000E+00

     total cpu time spent up to now is        8.9 secs

     total energy              =      59.00368942 Ry
     Harris-Foulkes estimate   =   -3230.68554763 Ry
     estimated scf accuracy    <      25.86676845 Ry

     iteration # 68     ecut=    30.00 Ry     beta=0.70
     Davidson diagonalization with overlap
     ethr =  1.00E-02,  avg # of iterations = 13.0

     negative rho (up, down):  9.368E-02 0.000E+00

     total cpu time spent up to now is        8.9 secs

     total energy              =     149.77930822 Ry
     Harris-Foulkes estimate   =   -6395.82398597 Ry
     estimated scf accuracy    <      11.80878187 Ry

     iteration # 69     ecut=    30.00 Ry     beta=0.70
     Davidson diagonalization with overlap
     ethr =  1.00E-02,  avg # of iterations =  8.0

     negative rho (up, down):  1.071E-01 0.000E+00

     total cpu time spent up to now is        9.0 secs

     total energy              =      89.30579286 Ry
     Harris-Foulkes estimate   =   -2287.39433234 Ry
     estimated scf accuracy    <      16.64711480 Ry

     iteration # 70     ecut=    30.00 Ry     beta=0.70
     Davidson diagonalization with overlap
     ethr =  1.00E-02,  avg # of iterations =  7.0

     negative rho (up, down):  8.172E-02 0.000E+00

     total cpu time spent up to now is        9.0 secs

     total energy              =      30.54469807 Ry
     Harris-Foulkes estimate   =    -262.31816864 Ry
     estimated scf accuracy    <      21.84102824 Ry

     iteration # 71     ecut=    30.00 Ry     beta=0.70
     Davidson diagonalization with overlap
     ethr =  1.00E-02,  avg # of iterations =  8.0

     negative rho (up, down):  5.638E-02 0.000E+00

     total cpu time spent up to now is        9.1 secs

     total energy              =      79.18335698 Ry
     Harris-Foulkes estimate   =    -486.13318440 Ry
     estimated scf accuracy    <      21.70331832 Ry

     iteration # 72     ecut=    30.00 Ry     beta=0.70
     Davidson diagonalization with overlap
     ethr =  1.00E-02,  avg # of iterations =  8.0

     negative rho (up, down):  6.379E-02 0.000E+00

     total cpu time spent up to now is        9.2 secs

     total energy              =     133.48360544 Ry
     Harris-Foulkes estimate   =    -661.73764229 Ry
     estimated scf accuracy    <      16.70675158 Ry

     iteration # 73     ecut=    30.00 Ry     beta=0.70
     Davidson diagonalization with overlap
     ethr =  1.00E-02,  avg # of iterations =  9.0

     negative rho (up, down):  3.420E-03 0.000E+00

     total cpu time spent up to now is        9.2 secs

     total energy              =     -26.38740267 Ry
     Harris-Foulkes estimate   =     -96.80504264 Ry
     estimated scf accuracy    <      37.85318209 Ry

     iteration # 74     ecut=    30.00 Ry     beta=0.70
     Davidson diagonalization with overlap
     ethr =  1.00E-02,  avg # of iterations =  5.0

     negative rho (up, down):  2.958E-02 0.000E+00

     total cpu time spent up to now is        9.3 secs

     total energy              =     -21.56261357 Ry
     Harris-Foulkes estimate   =    -272.84058842 Ry
     estimated scf accuracy    <      37.43345513 Ry

     iteration # 75     ecut=    30.00 Ry     beta=0.70
     Davidson diagonalization with overlap
     ethr =  1.00E-02,  avg # of iterations =  7.0

     negative rho (up, down):  2.147E-04 0.000E+00

     total cpu time spent up to now is        9.3 secs

     total energy              =     -78.25797983 Ry
     Harris-Foulkes estimate   =     -75.23688080 Ry
     estimated scf accuracy    <      58.57973056 Ry

     iteration # 76     ecut=    30.00 Ry     beta=0.70
     Davidson diagonalization with overlap
     ethr =  1.00E-02,  avg # of iterations =  2.0

     negative rho (up, down):  2.571E-02 0.000E+00

     total cpu time spent up to now is        9.3 secs

     total energy              =    -239.24391841 Ry
     Harris-Foulkes estimate   =     -78.30411178 Ry
     estimated scf accuracy    <      62.43020414 Ry

     iteration # 77     ecut=    30.00 Ry     beta=0.70
     Davidson diagonalization with overlap
     ethr =  1.00E-02,  avg # of iterations =  4.0

     negative rho (up, down):  4.334E-03 0.000E+00

     total cpu time spent up to now is        9.4 secs

     total energy              =     -54.47234868 Ry
     Harris-Foulkes estimate   =    -644.76079439 Ry
     estimated scf accuracy    <      73.72670727 Ry

     iteration # 78     ecut=    30.00 Ry     beta=0.70
     Davidson diagonalization with overlap
     ethr =  1.00E-02,  avg # of iterations =  5.0

     negative rho (up, down):  6.388E-02 0.000E+00

     total cpu time spent up to now is        9.4 secs

     total energy              =    -281.27311295 Ry
     Harris-Foulkes estimate   =    -112.91545063 Ry
     estimated scf accuracy    <      57.02068466 Ry

     iteration # 79     ecut=    30.00 Ry     beta=0.70
     Davidson diagonalization with overlap
     ethr =  1.00E-02,  avg # of iterations = 11.0

     negative rho (up, down):  4.874E-02 0.000E+00

     total cpu time spent up to now is        9.5 secs

     total energy              =      56.22589515 Ry
     Harris-Foulkes estimate   =   -3561.20090306 Ry
     estimated scf accuracy    <      34.98854167 Ry

     iteration # 80     ecut=    30.00 Ry     beta=0.70
     Davidson diagonalization with overlap
     ethr =  1.00E-02,  avg # of iterations =  8.0

     negative rho (up, down):  3.399E-02 0.000E+00

     total cpu time spent up to now is        9.6 secs

     total energy              =      63.13810278 Ry
     Harris-Foulkes estimate   =    -605.40421462 Ry
     estimated scf accuracy    <      39.14937776 Ry

     iteration # 81     ecut=    30.00 Ry     beta=0.70
     Davidson diagonalization with overlap
     ethr =  1.00E-02,  avg # of iterations =  9.0

     negative rho (up, down):  3.433E-01 0.000E+00

     total cpu time spent up to now is        9.6 secs

     total energy              =       3.20346047 Ry
     Harris-Foulkes estimate   =    -274.71453357 Ry
     estimated scf accuracy    <      50.53460190 Ry

     iteration # 82     ecut=    30.00 Ry     beta=0.70
     Davidson diagonalization with overlap
     ethr =  1.00E-02,  avg # of iterations =  8.0

     negative rho (up, down):  2.236E-01 0.000E+00

     total cpu time spent up to now is        9.7 secs

     total energy              =      84.55146094 Ry
     Harris-Foulkes estimate   =   -1208.29576008 Ry
     estimated scf accuracy    <      37.41482401 Ry

     iteration # 83     ecut=    30.00 Ry     beta=0.70
     Davidson diagonalization with overlap
     ethr =  1.00E-02,  avg # of iterations =  8.0

     negative rho (up, down):  4.751E-01 0.000E+00

     total cpu time spent up to now is        9.7 secs

     total energy              =    -407.14851468 Ry
     Harris-Foulkes estimate   =    -478.33094932 Ry
     estimated scf accuracy    <      31.50917030 Ry

     iteration # 84     ecut=    30.00 Ry     beta=0.70
     Davidson diagonalization with overlap
     ethr =  1.00E-02,  avg # of iterations =  8.0

     negative rho (up, down):  6.710E-01 0.000E+00

     total cpu time spent up to now is        9.8 secs

     total energy              =      12.18129359 Ry
     Harris-Foulkes estimate   =   -1203.75694192 Ry
     estimated scf accuracy    <      37.44320780 Ry

     iteration # 85     ecut=    30.00 Ry     beta=0.70
     Davidson diagonalization with overlap
     ethr =  1.00E-02,  avg # of iterations =  9.0

     negative rho (up, down):  5.752E-01 0.000E+00

     total cpu time spent up to now is        9.8 secs

     total energy              =     -55.88180267 Ry
     Harris-Foulkes estimate   =   -1748.18586578 Ry
     estimated scf accuracy    <      24.79498394 Ry

     iteration # 86     ecut=    30.00 Ry     beta=0.70
     Davidson diagonalization with overlap
     ethr =  1.00E-02,  avg # of iterations =  8.0

     negative rho (up, down):  4.599E-01 0.000E+00

     total cpu time spent up to now is        9.9 secs

     total energy              =      58.37387952 Ry
     Harris-Foulkes estimate   =   -1903.89830992 Ry
     estimated scf accuracy    <      22.74877251 Ry

     iteration # 87     ecut=    30.00 Ry     beta=0.70
     Davidson diagonalization with overlap
     ethr =  1.00E-02,  avg # of iterations =  7.0

     negative rho (up, down):  4.163E-01 0.000E+00

     total cpu time spent up to now is       10.0 secs

     total energy              =      84.18948629 Ry
     Harris-Foulkes estimate   =   -1330.64367654 Ry
     estimated scf accuracy    <      20.40345771 Ry

     iteration # 88     ecut=    30.00 Ry     beta=0.70
     Davidson diagonalization with overlap
     ethr =  1.00E-02,  avg # of iterations =  7.0

     negative rho (up, down):  2.826E-01 0.000E+00

     total cpu time spent up to now is       10.0 secs

     total energy              =       0.98664999 Ry
     Harris-Foulkes estimate   =    -209.84589580 Ry
     estimated scf accuracy    <      35.17144566 Ry

     iteration # 89     ecut=    30.00 Ry     beta=0.70
     Davidson diagonalization with overlap
     ethr =  1.00E-02,  avg # of iterations =  5.0

     negative rho (up, down):  2.653E-01 0.000E+00

     total cpu time spent up to now is       10.1 secs

     total energy              =    -458.83381164 Ry
     Harris-Foulkes estimate   =   -4970.70471222 Ry
     estimated scf accuracy    <      40.64868832 Ry

     iteration # 90     ecut=    30.00 Ry     beta=0.70
     Davidson diagonalization with overlap
     ethr =  1.00E-02,  avg # of iterations = 14.0

     negative rho (up, down):  1.215E-02 0.000E+00

     total cpu time spent up to now is       10.1 secs

     total energy              =      96.59350877 Ry
     Harris-Foulkes estimate   =  -18091.70743280 Ry
     estimated scf accuracy    <      20.75378162 Ry

     iteration # 91     ecut=    30.00 Ry     beta=0.70
     Davidson diagonalization with overlap
     ethr =  1.00E-02,  avg # of iterations =  7.0

     negative rho (up, down):  6.560E-02 0.000E+00

     total cpu time spent up to now is       10.2 secs

     total energy              =       7.14038096 Ry
     Harris-Foulkes estimate   =    -203.80302769 Ry
     estimated scf accuracy    <      13.47510805 Ry

     iteration # 92     ecut=    30.00 Ry     beta=0.70
     Davidson diagonalization with overlap
     ethr =  1.00E-02,  avg # of iterations =  7.0

     negative rho (up, down):  2.071E-01 0.000E+00

     total cpu time spent up to now is       10.3 secs

     total energy              =    -949.40301752 Ry
     Harris-Foulkes estimate   =     -67.59779659 Ry
     estimated scf accuracy    <      17.93951160 Ry

     iteration # 93     ecut=    30.00 Ry     beta=0.70
     Davidson diagonalization with overlap
     ethr =  1.00E-02,  avg # of iterations =  5.0

     negative rho (up, down):  2.843E-01 0.000E+00

     total cpu time spent up to now is       10.3 secs

     total energy              =      61.97449442 Ry
     Harris-Foulkes estimate   =   -4731.08812572 Ry
     estimated scf accuracy    <      19.97677247 Ry

     iteration # 94     ecut=    30.00 Ry     beta=0.70
     Davidson diagonalization with overlap
     ethr =  1.00E-02,  avg # of iterations =  9.0

     negative rho (up, down):  2.378E-01 0.000E+00

     total cpu time spent up to now is       10.4 secs

     total energy              =    -210.56981711 Ry
     Harris-Foulkes estimate   =    -582.93949346 Ry
     estimated scf accuracy    <      18.73289827 Ry

     iteration # 95     ecut=    30.00 Ry     beta=0.70
     Davidson diagonalization with overlap
     ethr =  1.00E-02,  avg # of iterations =  4.0

     negative rho (up, down):  2.836E-01 0.000E+00

     total cpu time spent up to now is       10.4 secs

     total energy              =    -570.84022120 Ry
     Harris-Foulkes estimate   =   -4704.72904091 Ry
     estimated scf accuracy    <      21.87905637 Ry

     iteration # 96     ecut=    30.00 Ry     beta=0.70
     Davidson diagonalization with overlap
     ethr =  1.00E-02,  avg # of iterations =  7.0

     negative rho (up, down):  3.302E-01 0.000E+00

     total cpu time spent up to now is       10.5 secs

     total energy              =     -45.46380280 Ry
     Harris-Foulkes estimate   =   -5256.27196840 Ry
     estimated scf accuracy    <      26.87110235 Ry

     iteration # 97     ecut=    30.00 Ry     beta=0.70
     Davidson diagonalization with overlap
     ethr =  1.00E-02,  avg # of iterations =  7.0

     negative rho (up, down):  3.611E-03 0.000E+00

     total cpu time spent up to now is       10.5 secs

     total energy              =      90.23825567 Ry
     Harris-Foulkes estimate   =  -10072.98097243 Ry
     estimated scf accuracy    <      21.13697835 Ry

     iteration # 98     ecut=    30.00 Ry     beta=0.70
     Davidson diagonalization with overlap
     ethr =  1.00E-02,  avg # of iterations = 12.0

     negative rho (up, down):  1.347E-02 0.000E+00

     total cpu time spent up to now is       10.6 secs

     total energy              =     -13.93210669 Ry
     Harris-Foulkes estimate   =     -46.14091706 Ry
     estimated scf accuracy    <      17.07193393 Ry

     iteration # 99     ecut=    30.00 Ry     beta=0.70
     Davidson diagonalization with overlap
     ethr =  1.00E-02,  avg # of iterations =  3.0

     negative rho (up, down):  6.820E-03 0.000E+00

     total cpu time spent up to now is       10.6 secs

     total energy              =     -36.81295804 Ry
     Harris-Foulkes estimate   =     -35.23187181 Ry
     estimated scf accuracy    <       9.22004074 Ry

     iteration #100     ecut=    30.00 Ry     beta=0.70
     Davidson diagonalization with overlap
     ethr =  1.00E-02,  avg # of iterations =  5.0

     negative rho (up, down):  1.625E-02 0.000E+00

     total cpu time spent up to now is       10.7 secs

     total energy              =      54.83883196 Ry
     Harris-Foulkes estimate   =    -445.08434371 Ry
     estimated scf accuracy    <      32.41999078 Ry

     End of self-consistent calculation

     convergence NOT achieved after 100 iterations: stopping

     Writing output data file pwscf.save
 
     init_run     :      0.09s CPU      0.11s WALL (       1 calls)
     electrons    :      7.60s CPU      9.32s WALL (       5 calls)
     update_pot   :      0.50s CPU      0.71s WALL (       4 calls)
     forces       :      0.13s CPU      0.13s WALL (       4 calls)

     Called by init_run:
     wfcinit      :      0.01s CPU      0.02s WALL (       1 calls)
     potinit      :      0.02s CPU      0.03s WALL (       1 calls)

     Called by electrons:
     c_bands      :      3.82s CPU      4.04s WALL (     205 calls)
     sum_band     :      0.60s CPU      0.64s WALL (     205 calls)
     v_of_rho     :      1.48s CPU      1.56s WALL (     210 calls)
     mix_rho      :      1.42s CPU      2.41s WALL (     205 calls)

     Called by c_bands:
     init_us_2    :      0.02s CPU      0.02s WALL (     411 calls)
     cegterg      :      3.78s CPU      3.94s WALL (     205 calls)

     Called by sum_band:

     Called by *egterg:
     h_psi        :      3.15s CPU      3.28s WALL (    1180 calls)
     g_psi        :      0.03s CPU      0.03s WALL (     974 calls)
     cdiaghg      :      0.24s CPU      0.25s WALL (    1175 calls)

     Called by h_psi:
     h_psi:pot    :      3.13s CPU      3.26s WALL (    1180 calls)
     h_psi:calbec :      0.06s CPU      0.07s WALL (    1180 calls)
     vloc_psi     :      3.05s CPU      3.18s WALL (    1180 calls)
     add_vuspsi   :      0.01s CPU      0.01s WALL (    1180 calls)

     General routines
     calbec       :      0.08s CPU      0.10s WALL (    1199 calls)
     fft          :      0.94s CPU      0.99s WALL (    2318 calls)
     fftw         :      3.14s CPU      3.29s WALL (   13956 calls)
     davcio       :      0.22s CPU      0.85s WALL (    3668 calls)
 
     Parallel routines
     fft_scatter  :      1.51s CPU      1.64s WALL (   16274 calls)
 
     PWSCF        :     8.49s CPU        10.77s WALL

 
   This run was terminated on:   8:24:13  14Feb2018            

=------------------------------------------------------------------------------=
   JOB DONE.
=------------------------------------------------------------------------------=
