
     Program PWSCF v.6.0 (svn rev. 13079) starts on 14Feb2018 at  8:27:35 

     This program is part of the open-source Quantum ESPRESSO suite
     for quantum simulation of materials; please cite
         "P. Giannozzi et al., J. Phys.:Condens. Matter 21 395502 (2009);
          URL http://www.quantum-espresso.org", 
     in publications or presentations arising from this work. More details at
     http://www.quantum-espresso.org/quote

     Parallel version (MPI), running on    28 processors
     R & G space division:  proc/nbgrp/npool/nimage =      28
     Reading input from inputs/MD-H2O-2/371.in

     Current dimensions of program PWSCF are:
     Max number of different atomic species (ntypx) = 10
     Max number of k-points (npk) =  40000
     Max angular momentum in pseudopotentials (lmaxx) =  3

     Subspace diagonalization in iterative solution of the eigenvalue problem:
     a serial algorithm will be used

 
     Parallelization info
     --------------------
     sticks:   dense  smooth     PW     G-vecs:    dense   smooth      PW
     Min         136     136     33                 6338     6338     787
     Max         137     137     34                 6341     6341     792
     Sum        3809    3809    949               177509   177509   22119
 


     bravais-lattice index     =            1
     lattice parameter (alat)  =      20.0000  a.u.
     unit-cell volume          =    8000.0000 (a.u.)^3
     number of atoms/cell      =            3
     number of atomic types    =            2
     number of electrons       =         8.00
     number of Kohn-Sham states=            8
     kinetic-energy cutoff     =      30.0000  Ry
     charge density cutoff     =     120.0000  Ry
     convergence threshold     =      1.0E-08
     mixing beta               =       0.7000
     number of iterations used =            8  plain     mixing
     Exchange-correlation      = BLYP ( 1  3  1  3 0 0)
     nstep                     =         5000


     celldm(1)=  20.000000  celldm(2)=   0.000000  celldm(3)=   0.000000
     celldm(4)=   0.000000  celldm(5)=   0.000000  celldm(6)=   0.000000

     crystal axes: (cart. coord. in units of alat)
               a(1) = (   1.000000   0.000000   0.000000 )  
               a(2) = (   0.000000   1.000000   0.000000 )  
               a(3) = (   0.000000   0.000000   1.000000 )  

     reciprocal axes: (cart. coord. in units 2 pi/alat)
               b(1) = (  1.000000  0.000000  0.000000 )  
               b(2) = (  0.000000  1.000000  0.000000 )  
               b(3) = (  0.000000  0.000000  1.000000 )  


     PseudoPot. # 1 for  H read from file:
     ./H.blyp-hgh.UPF
     MD5 check sum: c576e69559cde411e611be972c763230
     Pseudo is Norm-conserving, Zval =  1.0
     Generated in analytical, separable form
     Using radial grid of  929 points,  0 beta functions with: 

     PseudoPot. # 2 for  O read from file:
     ./O.blyp-hgh.UPF
     MD5 check sum: d0b7156309aa9befef28faac7bc56342
     Pseudo is Norm-conserving, Zval =  6.0
     Generated in analytical, separable form
     Using radial grid of 1095 points,  1 beta functions with: 
                l(1) =   0

     atomic species   valence    mass     pseudopotential
        H              1.00     1.01000      H( 1.00)
        O              6.00    16.00000      O( 1.00)

     No symmetry found



   Cartesian axes

     site n.     atom                  positions (alat units)
         1           H   tau(   1) = (   1.2304234   0.1063307   0.1319901  )
         2           H   tau(   2) = (   0.7019703   0.0751384   0.3222667  )
         3           O   tau(   3) = (   0.7080365   0.1083279   0.2286647  )

     number of k points=     1  Marzari-Vanderbilt smearing, width (Ry)=  0.0250
                       cart. coord. in units 2pi/alat
        k(    1) = (   0.0000000   0.0000000   0.0000000), wk =   2.0000000

     Dense  grid:   177509 G-vectors     FFT dimensions: (  72,  72,  72)

     Estimated max dynamical RAM per process >       6.09Mb

     Estimated total allocated dynamical RAM >     170.64Mb

     Initial potential from superposition of free atoms
     Check: negative starting charge=   -0.345355

     starting charge    7.99998, renormalised to    8.00000

     negative rho (up, down):  3.454E-01 0.000E+00
     Starting wfc are    6 randomized atomic wfcs +    2 random wfc

     total cpu time spent up to now is        0.2 secs

     per-process dynamical memory:    18.8 Mb

     Self-consistent Calculation

     iteration #  1     ecut=    30.00 Ry     beta=0.70
     Davidson diagonalization with overlap
     ethr =  1.00E-02,  avg # of iterations =  8.0

     negative rho (up, down):  8.987E-02 0.000E+00

     total cpu time spent up to now is        0.3 secs

     total energy              =     -30.38304493 Ry
     Harris-Foulkes estimate   =     -32.22962926 Ry
     estimated scf accuracy    <       2.13548087 Ry

     iteration #  2     ecut=    30.00 Ry     beta=0.70
     Davidson diagonalization with overlap
     ethr =  1.00E-02,  avg # of iterations =  3.0

     negative rho (up, down):  6.533E-02 0.000E+00

     total cpu time spent up to now is        0.3 secs

     total energy              =     -32.27551794 Ry
     Harris-Foulkes estimate   =     -34.50856402 Ry
     estimated scf accuracy    <       5.43941149 Ry

     iteration #  3     ecut=    30.00 Ry     beta=0.70
     Davidson diagonalization with overlap
     ethr =  1.00E-02,  avg # of iterations =  2.0

     negative rho (up, down):  6.261E-02 0.000E+00

     total cpu time spent up to now is        0.4 secs

     total energy              =     -32.41934006 Ry
     Harris-Foulkes estimate   =     -32.50907483 Ry
     estimated scf accuracy    <       1.74681006 Ry

     iteration #  4     ecut=    30.00 Ry     beta=0.70
     Davidson diagonalization with overlap
     ethr =  1.00E-02,  avg # of iterations =  1.0

     negative rho (up, down):  1.160E-02 0.000E+00

     total cpu time spent up to now is        0.4 secs

     total energy              =     -31.33120183 Ry
     Harris-Foulkes estimate   =     -32.41968764 Ry
     estimated scf accuracy    <       1.62173497 Ry

     iteration #  5     ecut=    30.00 Ry     beta=0.70
     Davidson diagonalization with overlap
     ethr =  1.00E-02,  avg # of iterations =  4.0

     negative rho (up, down):  1.478E-02 0.000E+00

     total cpu time spent up to now is        0.4 secs

     total energy              =     -33.18115467 Ry
     Harris-Foulkes estimate   =     -33.13244680 Ry
     estimated scf accuracy    <       5.19726450 Ry

     iteration #  6     ecut=    30.00 Ry     beta=0.70
     Davidson diagonalization with overlap
     ethr =  1.00E-02,  avg # of iterations =  1.0

     negative rho (up, down):  1.599E-02 0.000E+00

     total cpu time spent up to now is        0.5 secs

     total energy              =     -32.96267538 Ry
     Harris-Foulkes estimate   =     -33.19013766 Ry
     estimated scf accuracy    <       6.65742537 Ry

     iteration #  7     ecut=    30.00 Ry     beta=0.70
     Davidson diagonalization with overlap
     ethr =  1.00E-02,  avg # of iterations =  1.0

     negative rho (up, down):  1.780E-02 0.000E+00

     total cpu time spent up to now is        0.5 secs

     total energy              =     -32.66104456 Ry
     Harris-Foulkes estimate   =     -33.00752119 Ry
     estimated scf accuracy    <       3.26325106 Ry

     iteration #  8     ecut=    30.00 Ry     beta=0.70
     Davidson diagonalization with overlap
     ethr =  1.00E-02,  avg # of iterations =  1.0

     negative rho (up, down):  2.266E-02 0.000E+00

     total cpu time spent up to now is        0.5 secs

     total energy              =     -32.23324949 Ry
     Harris-Foulkes estimate   =     -32.67144265 Ry
     estimated scf accuracy    <       2.52121489 Ry

     iteration #  9     ecut=    30.00 Ry     beta=0.70
     Davidson diagonalization with overlap
     ethr =  1.00E-02,  avg # of iterations =  1.0

     negative rho (up, down):  2.414E-02 0.000E+00

     total cpu time spent up to now is        0.5 secs

     total energy              =     -31.95904021 Ry
     Harris-Foulkes estimate   =     -32.24826644 Ry
     estimated scf accuracy    <       1.69181216 Ry

     iteration # 10     ecut=    30.00 Ry     beta=0.70
     Davidson diagonalization with overlap
     ethr =  1.00E-02,  avg # of iterations =  1.0

     negative rho (up, down):  2.256E-02 0.000E+00

     total cpu time spent up to now is        0.6 secs

     total energy              =     -32.30074802 Ry
     Harris-Foulkes estimate   =     -31.96320622 Ry
     estimated scf accuracy    <       1.14286850 Ry

     iteration # 11     ecut=    30.00 Ry     beta=0.70
     Davidson diagonalization with overlap
     ethr =  1.00E-02,  avg # of iterations =  1.0

     negative rho (up, down):  1.931E-02 0.000E+00

     total cpu time spent up to now is        0.6 secs

     total energy              =     -32.09605696 Ry
     Harris-Foulkes estimate   =     -32.32128766 Ry
     estimated scf accuracy    <       1.79503791 Ry

     iteration # 12     ecut=    30.00 Ry     beta=0.70
     Davidson diagonalization with overlap
     ethr =  1.00E-02,  avg # of iterations =  1.0

     negative rho (up, down):  8.983E-02 0.000E+00

     total cpu time spent up to now is        0.7 secs

     total energy              =     -31.86439961 Ry
     Harris-Foulkes estimate   =     -32.09967010 Ry
     estimated scf accuracy    <       1.43009041 Ry

     iteration # 13     ecut=    30.00 Ry     beta=0.70
     Davidson diagonalization with overlap
     ethr =  1.00E-02,  avg # of iterations =  1.0

     negative rho (up, down):  1.144E-01 0.000E+00

     total cpu time spent up to now is        0.7 secs

     total energy              =     -31.85569852 Ry
     Harris-Foulkes estimate   =     -31.97376972 Ry
     estimated scf accuracy    <       0.82185194 Ry

     iteration # 14     ecut=    30.00 Ry     beta=0.70
     Davidson diagonalization with overlap
     ethr =  1.00E-02,  avg # of iterations =  1.0

     negative rho (up, down):  7.849E-04 0.000E+00

     total cpu time spent up to now is        0.8 secs

     total energy              =     -31.80407647 Ry
     Harris-Foulkes estimate   =     -32.02929580 Ry
     estimated scf accuracy    <       1.32024215 Ry

     iteration # 15     ecut=    30.00 Ry     beta=0.70
     Davidson diagonalization with overlap
     ethr =  1.00E-02,  avg # of iterations =  1.0

     total cpu time spent up to now is        0.8 secs

     total energy              =     -32.00704828 Ry
     Harris-Foulkes estimate   =     -32.04667036 Ry
     estimated scf accuracy    <       0.97619711 Ry

     iteration # 16     ecut=    30.00 Ry     beta=0.70
     Davidson diagonalization with overlap
     ethr =  1.00E-02,  avg # of iterations =  1.0

     negative rho (up, down):  3.771E-05 0.000E+00

     total cpu time spent up to now is        0.8 secs

     total energy              =     -31.90706850 Ry
     Harris-Foulkes estimate   =     -32.00800303 Ry
     estimated scf accuracy    <       0.93948606 Ry

     iteration # 17     ecut=    30.00 Ry     beta=0.70
     Davidson diagonalization with overlap
     ethr =  1.00E-02,  avg # of iterations =  1.0

     negative rho (up, down):  2.384E-05 0.000E+00

     total cpu time spent up to now is        0.8 secs

     total energy              =     -31.86366979 Ry
     Harris-Foulkes estimate   =     -31.96172016 Ry
     estimated scf accuracy    <       1.00822204 Ry

     iteration # 18     ecut=    30.00 Ry     beta=0.70
     Davidson diagonalization with overlap
     ethr =  1.00E-02,  avg # of iterations =  1.0

     negative rho (up, down):  1.076E-07 0.000E+00

     total cpu time spent up to now is        0.9 secs

     total energy              =     -31.96733457 Ry
     Harris-Foulkes estimate   =     -31.99914920 Ry
     estimated scf accuracy    <       0.92139896 Ry

     iteration # 19     ecut=    30.00 Ry     beta=0.70
     Davidson diagonalization with overlap
     ethr =  1.00E-02,  avg # of iterations =  1.0

     negative rho (up, down):  6.230E-05 0.000E+00

     total cpu time spent up to now is        0.9 secs

     total energy              =     -31.91981653 Ry
     Harris-Foulkes estimate   =     -31.96788145 Ry
     estimated scf accuracy    <       0.77790133 Ry

     iteration # 20     ecut=    30.00 Ry     beta=0.70
     Davidson diagonalization with overlap
     ethr =  9.72E-03,  avg # of iterations =  1.0

     negative rho (up, down):  1.169E-04 0.000E+00

     total cpu time spent up to now is        0.9 secs

     total energy              =     -31.94706425 Ry
     Harris-Foulkes estimate   =     -31.95218152 Ry
     estimated scf accuracy    <       0.41750361 Ry

     iteration # 21     ecut=    30.00 Ry     beta=0.70
     Davidson diagonalization with overlap
     ethr =  5.22E-03,  avg # of iterations =  1.0

     negative rho (up, down):  9.924E-07 0.000E+00

     total cpu time spent up to now is        1.0 secs

     total energy              =     -31.94223550 Ry
     Harris-Foulkes estimate   =     -31.94824903 Ry
     estimated scf accuracy    <       0.11777544 Ry

     iteration # 22     ecut=    30.00 Ry     beta=0.70
     Davidson diagonalization with overlap
     ethr =  1.47E-03,  avg # of iterations =  1.0

     negative rho (up, down):  2.516E-08 0.000E+00

     total cpu time spent up to now is        1.0 secs

     total energy              =     -31.94468460 Ry
     Harris-Foulkes estimate   =     -31.94815786 Ry
     estimated scf accuracy    <       0.09622577 Ry

     iteration # 23     ecut=    30.00 Ry     beta=0.70
     Davidson diagonalization with overlap
     ethr =  1.20E-03,  avg # of iterations =  1.0

     negative rho (up, down):  2.072E-07 0.000E+00

     total cpu time spent up to now is        1.0 secs

     total energy              =     -31.94700730 Ry
     Harris-Foulkes estimate   =     -31.94686351 Ry
     estimated scf accuracy    <       0.00845577 Ry

     iteration # 24     ecut=    30.00 Ry     beta=0.70
     Davidson diagonalization with overlap
     ethr =  1.06E-04,  avg # of iterations =  1.0

     total cpu time spent up to now is        1.1 secs

     total energy              =     -31.94645717 Ry
     Harris-Foulkes estimate   =     -31.94705682 Ry
     estimated scf accuracy    <       0.02343142 Ry

     iteration # 25     ecut=    30.00 Ry     beta=0.70
     Davidson diagonalization with overlap
     ethr =  1.06E-04,  avg # of iterations =  1.0

     total cpu time spent up to now is        1.1 secs

     total energy              =     -31.94674935 Ry
     Harris-Foulkes estimate   =     -31.94674875 Ry
     estimated scf accuracy    <       0.00001330 Ry

     iteration # 26     ecut=    30.00 Ry     beta=0.70
     Davidson diagonalization with overlap
     ethr =  1.66E-07,  avg # of iterations = 15.0

     total cpu time spent up to now is        1.2 secs

     total energy              =     -31.94674686 Ry
     Harris-Foulkes estimate   =     -31.94674950 Ry
     estimated scf accuracy    <       0.00003171 Ry

     iteration # 27     ecut=    30.00 Ry     beta=0.70
     Davidson diagonalization with overlap
     ethr =  1.66E-07,  avg # of iterations =  1.0

     total cpu time spent up to now is        1.2 secs

     total energy              =     -31.94674603 Ry
     Harris-Foulkes estimate   =     -31.94675184 Ry
     estimated scf accuracy    <       0.00018892 Ry

     iteration # 28     ecut=    30.00 Ry     beta=0.70
     Davidson diagonalization with overlap
     ethr =  1.66E-07,  avg # of iterations =  1.0

     total cpu time spent up to now is        1.2 secs

     total energy              =     -31.94674938 Ry
     Harris-Foulkes estimate   =     -31.94674966 Ry
     estimated scf accuracy    <       0.00000797 Ry

     iteration # 29     ecut=    30.00 Ry     beta=0.70
     Davidson diagonalization with overlap
     ethr =  9.97E-08,  avg # of iterations =  1.0

     total cpu time spent up to now is        1.3 secs

     total energy              =     -31.94674956 Ry
     Harris-Foulkes estimate   =     -31.94674953 Ry
     estimated scf accuracy    <       0.00000026 Ry

     iteration # 30     ecut=    30.00 Ry     beta=0.70
     Davidson diagonalization with overlap
     ethr =  3.21E-09,  avg # of iterations =  1.0

     total cpu time spent up to now is        1.3 secs

     total energy              =     -31.94674957 Ry
     Harris-Foulkes estimate   =     -31.94674956 Ry
     estimated scf accuracy    <       0.00000002 Ry

     iteration # 31     ecut=    30.00 Ry     beta=0.70
     Davidson diagonalization with overlap
     ethr =  2.14E-10,  avg # of iterations =  1.0

     total cpu time spent up to now is        1.3 secs

     End of self-consistent calculation

          k = 0.0000 0.0000 0.0000 ( 22119 PWs)   bands (ev):

   -24.7466 -10.6024  -7.0126  -7.0108  -6.8682  -0.6815   0.3687   0.8359

     the Fermi energy is    -6.8399 ev

!    total energy              =     -31.94674957 Ry
     Harris-Foulkes estimate   =     -31.94674957 Ry
     estimated scf accuracy    <          2.7E-09 Ry

     convergence has been achieved in  31 iterations

     Forces acting on atoms (Ry/au):

     atom    1 type  1   force =     0.00014303    0.00043486    0.00017666
     atom    2 type  1   force =    -0.00078545   -0.00463142    0.01430350
     atom    3 type  2   force =     0.00064241    0.00419657   -0.01448016

     Total force =     0.021321     Total SCF correction =     0.000025

     Molecular Dynamics Calculation

     Starting temperature  =  1000.00 K

     temperature is controlled by Andersen thermostat
     Collision frequency = 1.0000/timestep
     mass H                =     1.01
     mass O                =    16.00
     Time step             =   100.00 a.u.,  4.8378 femto-seconds

     Entering Dynamics:    iteration =     1
                           time      =   0.0048 pico-seconds


     Andersen thermostat:    3 collisions

ATOMIC_POSITIONS (bohr)
H       24.840802966   2.405516065   2.442633670
H       14.041670238   1.706627523   6.334128100
O       14.145919862   2.136082738   4.592760186


     kinetic energy (Ekin) =     0.01319564 Ry
     temperature           =   694.47456190 K 
     Ekin + Etot (const)   =   -31.93355393 Ry

     Linear momentum :   -0.0000000000    0.0000000000   -0.0000000000

     Writing output data file pwscf.save
     Check: negative starting charge=   -0.345355
     NEW-OLD atomic charge density approx. for the potential
     Check: negative starting charge=   -0.345901

     negative rho (up, down):  8.209E-02 0.000E+00

     total cpu time spent up to now is        1.6 secs

     per-process dynamical memory:    20.4 Mb

     Self-consistent Calculation

     iteration #  1     ecut=    30.00 Ry     beta=0.70
     Davidson diagonalization with overlap
     c_bands:  2 eigenvalues not converged
     ethr =  1.00E-06,  avg # of iterations = 20.0

     negative rho (up, down):  2.134E-02 0.000E+00

     total cpu time spent up to now is        1.7 secs

     total energy              =     -31.40366971 Ry
     Harris-Foulkes estimate   =     -31.87363671 Ry
     estimated scf accuracy    <       0.66565885 Ry

     iteration #  2     ecut=    30.00 Ry     beta=0.70
     Davidson diagonalization with overlap
     ethr =  8.32E-03,  avg # of iterations =  3.0

     negative rho (up, down):  1.575E-05 0.000E+00

     total cpu time spent up to now is        1.8 secs

     total energy              =     -31.18633317 Ry
     Harris-Foulkes estimate   =     -33.52812316 Ry
     estimated scf accuracy    <       9.51133959 Ry

     iteration #  3     ecut=    30.00 Ry     beta=0.70
     Davidson diagonalization with overlap
     ethr =  8.32E-03,  avg # of iterations =  2.0

     negative rho (up, down):  4.877E-04 0.000E+00

     total cpu time spent up to now is        1.8 secs

     total energy              =     -32.02325973 Ry
     Harris-Foulkes estimate   =     -32.17491555 Ry
     estimated scf accuracy    <       1.62528684 Ry

     iteration #  4     ecut=    30.00 Ry     beta=0.70
     Davidson diagonalization with overlap
     ethr =  8.32E-03,  avg # of iterations =  1.0

     negative rho (up, down):  5.670E-03 0.000E+00

     total cpu time spent up to now is        1.8 secs

     total energy              =     -31.92371282 Ry
     Harris-Foulkes estimate   =     -32.02769455 Ry
     estimated scf accuracy    <       1.34955843 Ry

     iteration #  5     ecut=    30.00 Ry     beta=0.70
     Davidson diagonalization with overlap
     ethr =  8.32E-03,  avg # of iterations =  1.0

     negative rho (up, down):  2.932E-02 0.000E+00

     total cpu time spent up to now is        1.9 secs

     total energy              =     -31.86248923 Ry
     Harris-Foulkes estimate   =     -31.92306133 Ry
     estimated scf accuracy    <       0.54353083 Ry

     iteration #  6     ecut=    30.00 Ry     beta=0.70
     Davidson diagonalization with overlap
     ethr =  6.79E-03,  avg # of iterations =  1.0

     negative rho (up, down):  8.070E-03 0.000E+00

     total cpu time spent up to now is        1.9 secs

     total energy              =     -31.92252129 Ry
     Harris-Foulkes estimate   =     -31.94061156 Ry
     estimated scf accuracy    <       0.85894235 Ry

     iteration #  7     ecut=    30.00 Ry     beta=0.70
     Davidson diagonalization with overlap
     ethr =  6.79E-03,  avg # of iterations =  1.0

     total cpu time spent up to now is        1.9 secs

     total energy              =     -31.88908396 Ry
     Harris-Foulkes estimate   =     -31.92584858 Ry
     estimated scf accuracy    <       0.34330314 Ry

     iteration #  8     ecut=    30.00 Ry     beta=0.70
     Davidson diagonalization with overlap
     ethr =  4.29E-03,  avg # of iterations =  1.0

     negative rho (up, down):  8.759E-04 0.000E+00

     total cpu time spent up to now is        1.9 secs

     total energy              =     -31.89728200 Ry
     Harris-Foulkes estimate   =     -31.96472775 Ry
     estimated scf accuracy    <       1.56022560 Ry

     iteration #  9     ecut=    30.00 Ry     beta=0.70
     Davidson diagonalization with overlap
     ethr =  4.29E-03,  avg # of iterations =  1.0

     negative rho (up, down):  1.403E-03 0.000E+00

     total cpu time spent up to now is        2.0 secs

     total energy              =     -31.92299893 Ry
     Harris-Foulkes estimate   =     -31.92290113 Ry
     estimated scf accuracy    <       0.02066382 Ry

     iteration # 10     ecut=    30.00 Ry     beta=0.70
     Davidson diagonalization with overlap
     ethr =  2.58E-04,  avg # of iterations =  4.0

     negative rho (up, down):  1.478E-04 0.000E+00

     total cpu time spent up to now is        2.0 secs

     total energy              =     -31.92248342 Ry
     Harris-Foulkes estimate   =     -31.92302123 Ry
     estimated scf accuracy    <       0.02811257 Ry

     iteration # 11     ecut=    30.00 Ry     beta=0.70
     Davidson diagonalization with overlap
     ethr =  2.58E-04,  avg # of iterations =  1.0

     negative rho (up, down):  1.472E-08 0.000E+00

     total cpu time spent up to now is        2.0 secs

     total energy              =     -31.92259880 Ry
     Harris-Foulkes estimate   =     -31.92265717 Ry
     estimated scf accuracy    <       0.00308960 Ry

     iteration # 12     ecut=    30.00 Ry     beta=0.70
     Davidson diagonalization with overlap
     ethr =  3.86E-05,  avg # of iterations = 10.0

     negative rho (up, down):  8.676E-08 0.000E+00

     total cpu time spent up to now is        2.1 secs

     total energy              =     -31.92264600 Ry
     Harris-Foulkes estimate   =     -31.92261916 Ry
     estimated scf accuracy    <       0.00027987 Ry

     iteration # 13     ecut=    30.00 Ry     beta=0.70
     Davidson diagonalization with overlap
     ethr =  3.50E-06,  avg # of iterations =  5.0

     total cpu time spent up to now is        2.1 secs

     total energy              =     -31.92264507 Ry
     Harris-Foulkes estimate   =     -31.92268848 Ry
     estimated scf accuracy    <       0.00528337 Ry

     iteration # 14     ecut=    30.00 Ry     beta=0.70
     Davidson diagonalization with overlap
     ethr =  3.50E-06,  avg # of iterations =  1.0

     negative rho (up, down):  4.134E-07 0.000E+00

     total cpu time spent up to now is        2.2 secs

     total energy              =     -31.92262777 Ry
     Harris-Foulkes estimate   =     -31.92265139 Ry
     estimated scf accuracy    <       0.00261244 Ry

     iteration # 15     ecut=    30.00 Ry     beta=0.70
     Davidson diagonalization with overlap
     ethr =  3.50E-06,  avg # of iterations =  1.0

     total cpu time spent up to now is        2.2 secs

     total energy              =     -31.92263124 Ry
     Harris-Foulkes estimate   =     -31.92263157 Ry
     estimated scf accuracy    <       0.00117790 Ry

     iteration # 16     ecut=    30.00 Ry     beta=0.70
     Davidson diagonalization with overlap
     ethr =  3.50E-06,  avg # of iterations =  1.0

     total cpu time spent up to now is        2.2 secs

     total energy              =     -31.92261703 Ry
     Harris-Foulkes estimate   =     -31.92263131 Ry
     estimated scf accuracy    <       0.00115894 Ry

     iteration # 17     ecut=    30.00 Ry     beta=0.70
     Davidson diagonalization with overlap
     ethr =  3.50E-06,  avg # of iterations =  1.0

     total cpu time spent up to now is        2.3 secs

     total energy              =     -31.92260994 Ry
     Harris-Foulkes estimate   =     -31.92262015 Ry
     estimated scf accuracy    <       0.00035291 Ry

     iteration # 18     ecut=    30.00 Ry     beta=0.70
     Davidson diagonalization with overlap
     ethr =  3.50E-06,  avg # of iterations =  1.0

     total cpu time spent up to now is        2.3 secs

     total energy              =     -31.92261474 Ry
     Harris-Foulkes estimate   =     -31.92261487 Ry
     estimated scf accuracy    <       0.00000022 Ry

     iteration # 19     ecut=    30.00 Ry     beta=0.70
     Davidson diagonalization with overlap
     ethr =  2.77E-09,  avg # of iterations =  1.0

     total cpu time spent up to now is        2.3 secs

     total energy              =     -31.92261479 Ry
     Harris-Foulkes estimate   =     -31.92261475 Ry
     estimated scf accuracy    <       0.00000003 Ry

     iteration # 20     ecut=    30.00 Ry     beta=0.70
     Davidson diagonalization with overlap
     ethr =  4.37E-10,  avg # of iterations =  1.0

     total cpu time spent up to now is        2.4 secs

     End of self-consistent calculation

          k = 0.0000 0.0000 0.0000 ( 22119 PWs)   bands (ev):

   -25.3278 -10.8501  -7.0678  -7.0659  -6.9208  -0.5216   0.4733   0.8394

     the Fermi energy is    -6.8942 ev

!    total energy              =     -31.92261485 Ry
     Harris-Foulkes estimate   =     -31.92261479 Ry
     estimated scf accuracy    <          4.9E-11 Ry

     convergence has been achieved in  20 iterations

     Forces acting on atoms (Ry/au):

     atom    1 type  1   force =     0.00031351    0.00047155    0.00030389
     atom    2 type  1   force =    -0.01441332   -0.05991738    0.24414679
     atom    3 type  2   force =     0.01409981    0.05944582   -0.24445068

     Total force =     0.356223     Total SCF correction =     0.000304

     Entering Dynamics:    iteration =     2
                           time      =   0.0097 pico-seconds


     Andersen thermostat:    3 collisions

ATOMIC_POSITIONS (bohr)
H       24.896622303   2.586788409   2.591065486
H       13.948355236   0.901896280   9.162528252
O       14.148286776   2.175438581   4.404847668


     kinetic energy (Ekin) =     0.12813850 Ry
     temperature           =  6743.81491693 K 
     Ekin + Etot (const)   =   -31.79447635 Ry
     Message from routine dynamics:
     Total linear momentum <> 0

     Linear momentum :   -0.0482643422    0.4839037204    0.0463385468

     Writing output data file pwscf.save

     first order wave-functions extrapolation
     Check: negative starting charge=   -0.345901
     first order charge density extrapolation
     Check: negative starting charge=   -0.338196

     negative rho (up, down):  4.439E-01 0.000E+00

     total cpu time spent up to now is        2.7 secs

     per-process dynamical memory:    20.4 Mb

     Self-consistent Calculation

     iteration #  1     ecut=    30.00 Ry     beta=0.70
     Davidson diagonalization with overlap
     c_bands:  1 eigenvalues not converged
     ethr =  1.00E-06,  avg # of iterations = 20.0

     negative rho (up, down):  1.077E-01 0.000E+00

     total cpu time spent up to now is        2.8 secs

     total energy              =     -27.97652346 Ry
     Harris-Foulkes estimate   =     -32.68713812 Ry
     estimated scf accuracy    <       2.96937353 Ry

     iteration #  2     ecut=    30.00 Ry     beta=0.70
     Davidson diagonalization with overlap
     ethr =  1.00E-02,  avg # of iterations =  4.0

     negative rho (up, down):  8.045E-02 0.000E+00

     total cpu time spent up to now is        2.8 secs

     total energy              =     -31.89747976 Ry
     Harris-Foulkes estimate   =     -35.60494726 Ry
     estimated scf accuracy    <       9.67524497 Ry

     iteration #  3     ecut=    30.00 Ry     beta=0.70
     Davidson diagonalization with overlap
     ethr =  1.00E-02,  avg # of iterations =  2.0

     negative rho (up, down):  6.691E-02 0.000E+00

     total cpu time spent up to now is        2.9 secs

     total energy              =     -31.56354728 Ry
     Harris-Foulkes estimate   =     -32.19378744 Ry
     estimated scf accuracy    <       3.45082063 Ry

     iteration #  4     ecut=    30.00 Ry     beta=0.70
     Davidson diagonalization with overlap
     ethr =  1.00E-02,  avg # of iterations =  1.0

     negative rho (up, down):  6.170E-02 0.000E+00

     total cpu time spent up to now is        2.9 secs

     total energy              =     -31.60715442 Ry
     Harris-Foulkes estimate   =     -31.65402828 Ry
     estimated scf accuracy    <       0.97887893 Ry

     iteration #  5     ecut=    30.00 Ry     beta=0.70
     Davidson diagonalization with overlap
     ethr =  1.00E-02,  avg # of iterations =  3.0

     negative rho (up, down):  4.302E-02 0.000E+00

     total cpu time spent up to now is        2.9 secs

     total energy              =     -31.33752302 Ry
     Harris-Foulkes estimate   =     -31.71618061 Ry
     estimated scf accuracy    <       2.38239027 Ry

     iteration #  6     ecut=    30.00 Ry     beta=0.70
     Davidson diagonalization with overlap
     ethr =  1.00E-02,  avg # of iterations =  1.0

     negative rho (up, down):  3.084E-02 0.000E+00

     total cpu time spent up to now is        3.0 secs

     total energy              =     -31.58138625 Ry
     Harris-Foulkes estimate   =     -31.72688627 Ry
     estimated scf accuracy    <       1.38899788 Ry

     iteration #  7     ecut=    30.00 Ry     beta=0.70
     Davidson diagonalization with overlap
     ethr =  1.00E-02,  avg # of iterations =  1.0

     negative rho (up, down):  2.813E-02 0.000E+00

     total cpu time spent up to now is        3.0 secs

     total energy              =     -31.38327347 Ry
     Harris-Foulkes estimate   =     -31.58436007 Ry
     estimated scf accuracy    <       1.27977093 Ry

     iteration #  8     ecut=    30.00 Ry     beta=0.70
     Davidson diagonalization with overlap
     ethr =  1.00E-02,  avg # of iterations =  1.0

     negative rho (up, down):  3.393E-03 0.000E+00

     total cpu time spent up to now is        3.0 secs

     total energy              =     -31.38988077 Ry
     Harris-Foulkes estimate   =     -31.64249585 Ry
     estimated scf accuracy    <       1.53508552 Ry

     iteration #  9     ecut=    30.00 Ry     beta=0.70
     Davidson diagonalization with overlap
     ethr =  1.00E-02,  avg # of iterations =  1.0

     negative rho (up, down):  8.664E-05 0.000E+00

     total cpu time spent up to now is        3.1 secs

     total energy              =     -31.77822801 Ry
     Harris-Foulkes estimate   =     -31.70864524 Ry
     estimated scf accuracy    <       2.30586674 Ry

     iteration # 10     ecut=    30.00 Ry     beta=0.70
     Davidson diagonalization with overlap
     ethr =  1.00E-02,  avg # of iterations =  1.0

     negative rho (up, down):  2.554E-06 0.000E+00

     total cpu time spent up to now is        3.1 secs

     total energy              =     -31.68247555 Ry
     Harris-Foulkes estimate   =     -31.77961892 Ry
     estimated scf accuracy    <       2.43867208 Ry

     iteration # 11     ecut=    30.00 Ry     beta=0.70
     Davidson diagonalization with overlap
     ethr =  1.00E-02,  avg # of iterations =  1.0

     negative rho (up, down):  2.937E-05 0.000E+00

     total cpu time spent up to now is        3.1 secs

     total energy              =     -31.60365403 Ry
     Harris-Foulkes estimate   =     -31.68898874 Ry
     estimated scf accuracy    <       1.69031586 Ry

     iteration # 12     ecut=    30.00 Ry     beta=0.70
     Davidson diagonalization with overlap
     ethr =  1.00E-02,  avg # of iterations =  1.0

     negative rho (up, down):  1.311E-05 0.000E+00

     total cpu time spent up to now is        3.2 secs

     total energy              =     -31.54408280 Ry
     Harris-Foulkes estimate   =     -31.60980709 Ry
     estimated scf accuracy    <       1.36075358 Ry

     iteration # 13     ecut=    30.00 Ry     beta=0.70
     Davidson diagonalization with overlap
     ethr =  1.00E-02,  avg # of iterations =  1.0

     negative rho (up, down):  1.883E-04 0.000E+00

     total cpu time spent up to now is        3.2 secs

     total energy              =     -31.55507700 Ry
     Harris-Foulkes estimate   =     -31.55839308 Ry
     estimated scf accuracy    <       0.01384080 Ry

     iteration # 14     ecut=    30.00 Ry     beta=0.70
     Davidson diagonalization with overlap
     ethr =  1.73E-04,  avg # of iterations =  3.0

     negative rho (up, down):  2.380E-04 0.000E+00

     total cpu time spent up to now is        3.2 secs

     total energy              =     -31.56917763 Ry
     Harris-Foulkes estimate   =     -31.56530238 Ry
     estimated scf accuracy    <       0.44145587 Ry

     iteration # 15     ecut=    30.00 Ry     beta=0.70
     Davidson diagonalization with overlap
     ethr =  1.73E-04,  avg # of iterations =  1.0

     negative rho (up, down):  1.007E-05 0.000E+00

     total cpu time spent up to now is        3.3 secs

     total energy              =     -31.54358826 Ry
     Harris-Foulkes estimate   =     -31.56952441 Ry
     estimated scf accuracy    <       0.60936065 Ry

     iteration # 16     ecut=    30.00 Ry     beta=0.70
     Davidson diagonalization with overlap
     ethr =  1.73E-04,  avg # of iterations =  1.0

     negative rho (up, down):  5.160E-05 0.000E+00

     total cpu time spent up to now is        3.3 secs

     total energy              =     -31.56301601 Ry
     Harris-Foulkes estimate   =     -31.55867626 Ry
     estimated scf accuracy    <       0.06693833 Ry

     iteration # 17     ecut=    30.00 Ry     beta=0.70
     Davidson diagonalization with overlap
     ethr =  1.73E-04,  avg # of iterations =  1.0

     negative rho (up, down):  3.070E-05 0.000E+00

     total cpu time spent up to now is        3.3 secs

     total energy              =     -31.56963742 Ry
     Harris-Foulkes estimate   =     -31.56743934 Ry
     estimated scf accuracy    <       0.67501395 Ry

     iteration # 18     ecut=    30.00 Ry     beta=0.70
     Davidson diagonalization with overlap
     ethr =  1.73E-04,  avg # of iterations =  1.0

     negative rho (up, down):  2.029E-05 0.000E+00

     total cpu time spent up to now is        3.4 secs

     total energy              =     -31.56458109 Ry
     Harris-Foulkes estimate   =     -31.56975566 Ry
     estimated scf accuracy    <       0.82719288 Ry

     iteration # 19     ecut=    30.00 Ry     beta=0.70
     Davidson diagonalization with overlap
     ethr =  1.73E-04,  avg # of iterations =  1.0

     negative rho (up, down):  6.831E-05 0.000E+00

     total cpu time spent up to now is        3.4 secs

     total energy              =     -31.55004390 Ry
     Harris-Foulkes estimate   =     -31.56512335 Ry
     estimated scf accuracy    <       0.57646184 Ry

     iteration # 20     ecut=    30.00 Ry     beta=0.70
     Davidson diagonalization with overlap
     ethr =  1.73E-04,  avg # of iterations =  1.0

     negative rho (up, down):  2.766E-05 0.000E+00

     total cpu time spent up to now is        3.4 secs

     total energy              =     -31.55816678 Ry
     Harris-Foulkes estimate   =     -31.55753858 Ry
     estimated scf accuracy    <       0.00154341 Ry

     iteration # 21     ecut=    30.00 Ry     beta=0.70
     Davidson diagonalization with overlap
     ethr =  1.93E-05,  avg # of iterations =  5.0

     negative rho (up, down):  5.519E-06 0.000E+00

     total cpu time spent up to now is        3.5 secs

     total energy              =     -31.63063669 Ry
     Harris-Foulkes estimate   =     -31.61043070 Ry
     estimated scf accuracy    <       1.41049904 Ry

     iteration # 22     ecut=    30.00 Ry     beta=0.70
     Davidson diagonalization with overlap
     ethr =  1.93E-05,  avg # of iterations =  1.0

     negative rho (up, down):  1.445E-05 0.000E+00

     total cpu time spent up to now is        3.5 secs

     total energy              =     -31.59431746 Ry
     Harris-Foulkes estimate   =     -31.62997867 Ry
     estimated scf accuracy    <       1.30758823 Ry

     iteration # 23     ecut=    30.00 Ry     beta=0.70
     Davidson diagonalization with overlap
     ethr =  1.93E-05,  avg # of iterations =  2.0

     negative rho (up, down):  1.476E-05 0.000E+00

     total cpu time spent up to now is        3.5 secs

     total energy              =     -31.56631385 Ry
     Harris-Foulkes estimate   =     -31.59235130 Ry
     estimated scf accuracy    <       1.59722085 Ry

     iteration # 24     ecut=    30.00 Ry     beta=0.70
     Davidson diagonalization with overlap
     ethr =  1.93E-05,  avg # of iterations =  1.0

     negative rho (up, down):  1.206E-05 0.000E+00

     total cpu time spent up to now is        3.6 secs

     total energy              =     -31.55615600 Ry
     Harris-Foulkes estimate   =     -31.56861182 Ry
     estimated scf accuracy    <       0.83866851 Ry

     iteration # 25     ecut=    30.00 Ry     beta=0.70
     Davidson diagonalization with overlap
     ethr =  1.93E-05,  avg # of iterations =  1.0

     negative rho (up, down):  9.635E-06 0.000E+00

     total cpu time spent up to now is        3.6 secs

     total energy              =     -31.55308177 Ry
     Harris-Foulkes estimate   =     -31.55943827 Ry
     estimated scf accuracy    <       0.17155377 Ry

     iteration # 26     ecut=    30.00 Ry     beta=0.70
     Davidson diagonalization with overlap
     ethr =  1.93E-05,  avg # of iterations =  4.0

     negative rho (up, down):  1.272E-05 0.000E+00

     total cpu time spent up to now is        3.6 secs

     total energy              =     -31.55322646 Ry
     Harris-Foulkes estimate   =     -31.55801712 Ry
     estimated scf accuracy    <       0.04033591 Ry

     iteration # 27     ecut=    30.00 Ry     beta=0.70
     Davidson diagonalization with overlap
     ethr =  1.93E-05,  avg # of iterations =  1.0

     negative rho (up, down):  4.206E-07 0.000E+00

     total cpu time spent up to now is        3.7 secs

     total energy              =     -31.59809672 Ry
     Harris-Foulkes estimate   =     -31.56381235 Ry
     estimated scf accuracy    <       0.50948846 Ry

     iteration # 28     ecut=    30.00 Ry     beta=0.70
     Davidson diagonalization with overlap
     ethr =  1.93E-05,  avg # of iterations =  4.0

     negative rho (up, down):  4.896E-08 0.000E+00

     total cpu time spent up to now is        3.7 secs

     total energy              =     -31.58190744 Ry
     Harris-Foulkes estimate   =     -31.61774511 Ry
     estimated scf accuracy    <       1.31230897 Ry

     iteration # 29     ecut=    30.00 Ry     beta=0.70
     Davidson diagonalization with overlap
     ethr =  1.93E-05,  avg # of iterations =  2.0

     negative rho (up, down):  2.130E-08 0.000E+00

     total cpu time spent up to now is        3.7 secs

     total energy              =     -31.56091672 Ry
     Harris-Foulkes estimate   =     -31.57963018 Ry
     estimated scf accuracy    <       1.35654134 Ry

     iteration # 30     ecut=    30.00 Ry     beta=0.70
     Davidson diagonalization with overlap
     ethr =  1.93E-05,  avg # of iterations =  1.0

     total cpu time spent up to now is        3.8 secs

     total energy              =     -31.55666889 Ry
     Harris-Foulkes estimate   =     -31.56406348 Ry
     estimated scf accuracy    <       0.50257483 Ry

     iteration # 31     ecut=    30.00 Ry     beta=0.70
     Davidson diagonalization with overlap
     ethr =  1.93E-05,  avg # of iterations =  1.0

     total cpu time spent up to now is        3.8 secs

     total energy              =     -31.55555520 Ry
     Harris-Foulkes estimate   =     -31.55861107 Ry
     estimated scf accuracy    <       0.10171240 Ry

     iteration # 32     ecut=    30.00 Ry     beta=0.70
     Davidson diagonalization with overlap
     ethr =  1.93E-05,  avg # of iterations =  1.0

     total cpu time spent up to now is        3.8 secs

     total energy              =     -31.55723622 Ry
     Harris-Foulkes estimate   =     -31.55729291 Ry
     estimated scf accuracy    <       0.00236254 Ry

     iteration # 33     ecut=    30.00 Ry     beta=0.70
     Davidson diagonalization with overlap
     ethr =  1.93E-05,  avg # of iterations =  1.0

     total cpu time spent up to now is        3.9 secs

     total energy              =     -31.55725010 Ry
     Harris-Foulkes estimate   =     -31.55725972 Ry
     estimated scf accuracy    <       0.00003579 Ry

     iteration # 34     ecut=    30.00 Ry     beta=0.70
     Davidson diagonalization with overlap
     c_bands:  1 eigenvalues not converged
     ethr =  4.47E-07,  avg # of iterations = 20.0

     total cpu time spent up to now is        3.9 secs

     total energy              =     -31.55717246 Ry
     Harris-Foulkes estimate   =     -31.55733954 Ry
     estimated scf accuracy    <       0.00602029 Ry

     iteration # 35     ecut=    30.00 Ry     beta=0.70
     Davidson diagonalization with overlap
     c_bands:  1 eigenvalues not converged
     ethr =  4.47E-07,  avg # of iterations = 20.0

     total cpu time spent up to now is        4.0 secs

     total energy              =     -31.55725528 Ry
     Harris-Foulkes estimate   =     -31.55725948 Ry
     estimated scf accuracy    <       0.00002487 Ry

     iteration # 36     ecut=    30.00 Ry     beta=0.70
     Davidson diagonalization with overlap
     ethr =  3.11E-07,  avg # of iterations =  1.0

     total cpu time spent up to now is        4.0 secs

     total energy              =     -31.55725752 Ry
     Harris-Foulkes estimate   =     -31.55726856 Ry
     estimated scf accuracy    <       0.00078274 Ry

     iteration # 37     ecut=    30.00 Ry     beta=0.70
     Davidson diagonalization with overlap
     ethr =  3.11E-07,  avg # of iterations =  1.0

     total cpu time spent up to now is        4.0 secs

     total energy              =     -31.55725861 Ry
     Harris-Foulkes estimate   =     -31.55726047 Ry
     estimated scf accuracy    <       0.00017040 Ry

     iteration # 38     ecut=    30.00 Ry     beta=0.70
     Davidson diagonalization with overlap
     ethr =  3.11E-07,  avg # of iterations =  1.0

     total cpu time spent up to now is        4.1 secs

     total energy              =     -31.55725751 Ry
     Harris-Foulkes estimate   =     -31.55725901 Ry
     estimated scf accuracy    <       0.00005698 Ry

     iteration # 39     ecut=    30.00 Ry     beta=0.70
     Davidson diagonalization with overlap
     ethr =  3.11E-07,  avg # of iterations =  1.0

     total cpu time spent up to now is        4.1 secs

     total energy              =     -31.55725822 Ry
     Harris-Foulkes estimate   =     -31.55725827 Ry
     estimated scf accuracy    <       0.00000001 Ry

     iteration # 40     ecut=    30.00 Ry     beta=0.70
     Davidson diagonalization with overlap
     ethr =  1.37E-10,  avg # of iterations =  2.0

     total cpu time spent up to now is        4.1 secs

     End of self-consistent calculation

          k = 0.0000 0.0000 0.0000 ( 22119 PWs)   bands (ev):

   -23.5814  -7.6435  -6.9215  -6.9193  -6.7862  -6.4024  -0.1408   0.7424

     the Fermi energy is    -6.7570 ev

!    total energy              =     -31.55725818 Ry
     Harris-Foulkes estimate   =     -31.55725822 Ry
     estimated scf accuracy    <          1.4E-09 Ry

     convergence has been achieved in  40 iterations

     Forces acting on atoms (Ry/au):

     atom    1 type  1   force =     0.00056515    0.00091911    0.00043800
     atom    2 type  1   force =     0.00301043    0.01671041   -0.05792230
     atom    3 type  2   force =    -0.00357558   -0.01762952    0.05748430

     Total force =     0.085280     Total SCF correction =     0.000016

     Entering Dynamics:    iteration =     3
                           time      =   0.0145 pico-seconds


     Andersen thermostat:    3 collisions

ATOMIC_POSITIONS (bohr)
H       25.124374000   2.314053504   2.684271187
H       14.124414596   1.155977976   8.872270313
O       14.122796203   2.176616065   4.417286591


     kinetic energy (Ekin) =     0.01204005 Ry
     temperature           =   633.65704227 K 
     Ekin + Etot (const)   =   -31.54521813 Ry
     Message from routine dynamics:
     Total linear momentum <> 0

     Linear momentum :    0.3047675616   -0.3500624036   -0.1369358232

     Writing output data file pwscf.save

     second order wave-functions extrapolation
     Check: negative starting charge=   -0.338196
     second order charge density extrapolation
     Check: negative starting charge=   -0.338224

     negative rho (up, down):  5.588E-02 0.000E+00

     total cpu time spent up to now is        4.4 secs

     per-process dynamical memory:    20.4 Mb

     Self-consistent Calculation

     iteration #  1     ecut=    30.00 Ry     beta=0.70
     Davidson diagonalization with overlap
     ethr =  1.00E-06,  avg # of iterations = 10.0

     negative rho (up, down):  1.262E-02 0.000E+00

     total cpu time spent up to now is        4.5 secs

     total energy              =     -31.38863784 Ry
     Harris-Foulkes estimate   =     -31.53529260 Ry
     estimated scf accuracy    <       0.23448135 Ry

     iteration #  2     ecut=    30.00 Ry     beta=0.70
     Davidson diagonalization with overlap
     ethr =  2.93E-03,  avg # of iterations =  2.0

     negative rho (up, down):  1.080E-02 0.000E+00

     total cpu time spent up to now is        4.6 secs

     total energy              =     -31.56825984 Ry
     Harris-Foulkes estimate   =     -32.38705876 Ry
     estimated scf accuracy    <       3.62154850 Ry

     iteration #  3     ecut=    30.00 Ry     beta=0.70
     Davidson diagonalization with overlap
     ethr =  2.93E-03,  avg # of iterations =  2.0

     negative rho (up, down):  9.722E-03 0.000E+00

     total cpu time spent up to now is        4.6 secs

     total energy              =     -31.61706166 Ry
     Harris-Foulkes estimate   =     -31.72813761 Ry
     estimated scf accuracy    <       0.91458455 Ry

     iteration #  4     ecut=    30.00 Ry     beta=0.70
     Davidson diagonalization with overlap
     ethr =  2.93E-03,  avg # of iterations =  1.0

     negative rho (up, down):  9.708E-03 0.000E+00

     total cpu time spent up to now is        4.6 secs

     total energy              =     -31.63785765 Ry
     Harris-Foulkes estimate   =     -31.63951084 Ry
     estimated scf accuracy    <       1.09012139 Ry

     iteration #  5     ecut=    30.00 Ry     beta=0.70
     Davidson diagonalization with overlap
     ethr =  2.93E-03,  avg # of iterations =  1.0

     negative rho (up, down):  9.957E-03 0.000E+00

     total cpu time spent up to now is        4.7 secs

     total energy              =     -31.65168577 Ry
     Harris-Foulkes estimate   =     -31.63788806 Ry
     estimated scf accuracy    <       1.08411119 Ry

     iteration #  6     ecut=    30.00 Ry     beta=0.70
     Davidson diagonalization with overlap
     ethr =  2.93E-03,  avg # of iterations =  1.0

     negative rho (up, down):  6.356E-03 0.000E+00

     total cpu time spent up to now is        4.7 secs

     total energy              =     -31.37778797 Ry
     Harris-Foulkes estimate   =     -31.65172961 Ry
     estimated scf accuracy    <       1.12661174 Ry

     iteration #  7     ecut=    30.00 Ry     beta=0.70
     Davidson diagonalization with overlap
     ethr =  2.93E-03,  avg # of iterations =  2.0

     negative rho (up, down):  2.092E-03 0.000E+00

     total cpu time spent up to now is        4.7 secs

     total energy              =     -31.86259557 Ry
     Harris-Foulkes estimate   =     -31.81452298 Ry
     estimated scf accuracy    <       1.62791338 Ry

     iteration #  8     ecut=    30.00 Ry     beta=0.70
     Davidson diagonalization with overlap
     ethr =  2.93E-03,  avg # of iterations =  1.0

     negative rho (up, down):  1.038E-03 0.000E+00

     total cpu time spent up to now is        4.8 secs

     total energy              =     -31.73786251 Ry
     Harris-Foulkes estimate   =     -31.86403620 Ry
     estimated scf accuracy    <       1.86649527 Ry

     iteration #  9     ecut=    30.00 Ry     beta=0.70
     Davidson diagonalization with overlap
     ethr =  2.93E-03,  avg # of iterations =  1.0

     negative rho (up, down):  5.672E-05 0.000E+00

     total cpu time spent up to now is        4.8 secs

     total energy              =     -31.64017320 Ry
     Harris-Foulkes estimate   =     -31.74004493 Ry
     estimated scf accuracy    <       1.49794260 Ry

     iteration # 10     ecut=    30.00 Ry     beta=0.70
     Davidson diagonalization with overlap
     ethr =  2.93E-03,  avg # of iterations =  1.0

     negative rho (up, down):  5.331E-04 0.000E+00

     total cpu time spent up to now is        4.8 secs

     total energy              =     -31.59466769 Ry
     Harris-Foulkes estimate   =     -31.64131629 Ry
     estimated scf accuracy    <       1.34772860 Ry

     iteration # 11     ecut=    30.00 Ry     beta=0.70
     Davidson diagonalization with overlap
     ethr =  2.93E-03,  avg # of iterations =  1.0

     negative rho (up, down):  5.285E-04 0.000E+00

     total cpu time spent up to now is        4.9 secs

     total energy              =     -31.61768000 Ry
     Harris-Foulkes estimate   =     -31.59389909 Ry
     estimated scf accuracy    <       0.75072876 Ry

     iteration # 12     ecut=    30.00 Ry     beta=0.70
     Davidson diagonalization with overlap
     ethr =  2.93E-03,  avg # of iterations =  1.0

     negative rho (up, down):  7.045E-04 0.000E+00

     total cpu time spent up to now is        4.9 secs

     total energy              =     -31.58256254 Ry
     Harris-Foulkes estimate   =     -31.62496498 Ry
     estimated scf accuracy    <       1.53975688 Ry

     iteration # 13     ecut=    30.00 Ry     beta=0.70
     Davidson diagonalization with overlap
     ethr =  2.93E-03,  avg # of iterations =  1.0

     negative rho (up, down):  3.975E-04 0.000E+00

     total cpu time spent up to now is        4.9 secs

     total energy              =     -31.56942519 Ry
     Harris-Foulkes estimate   =     -31.58829810 Ry
     estimated scf accuracy    <       0.36735531 Ry

     iteration # 14     ecut=    30.00 Ry     beta=0.70
     Davidson diagonalization with overlap
     ethr =  2.93E-03,  avg # of iterations =  1.0

     negative rho (up, down):  3.105E-05 0.000E+00

     total cpu time spent up to now is        5.0 secs

     total energy              =     -31.56308839 Ry
     Harris-Foulkes estimate   =     -31.58806701 Ry
     estimated scf accuracy    <       0.28047747 Ry

     iteration # 15     ecut=    30.00 Ry     beta=0.70
     Davidson diagonalization with overlap
     ethr =  2.93E-03,  avg # of iterations =  1.0

     negative rho (up, down):  9.303E-06 0.000E+00

     total cpu time spent up to now is        5.0 secs

     total energy              =     -31.58912608 Ry
     Harris-Foulkes estimate   =     -31.60420796 Ry
     estimated scf accuracy    <       1.29853413 Ry

     iteration # 16     ecut=    30.00 Ry     beta=0.70
     Davidson diagonalization with overlap
     ethr =  2.93E-03,  avg # of iterations =  1.0

     negative rho (up, down):  3.602E-07 0.000E+00

     total cpu time spent up to now is        5.0 secs

     total energy              =     -31.58125198 Ry
     Harris-Foulkes estimate   =     -31.59131725 Ry
     estimated scf accuracy    <       0.59015747 Ry

     iteration # 17     ecut=    30.00 Ry     beta=0.70
     Davidson diagonalization with overlap
     ethr =  2.93E-03,  avg # of iterations =  1.0

     negative rho (up, down):  4.475E-07 0.000E+00

     total cpu time spent up to now is        5.1 secs

     total energy              =     -31.57936350 Ry
     Harris-Foulkes estimate   =     -31.58446503 Ry
     estimated scf accuracy    <       0.06911776 Ry

     iteration # 18     ecut=    30.00 Ry     beta=0.70
     Davidson diagonalization with overlap
     ethr =  8.64E-04,  avg # of iterations =  1.0

     negative rho (up, down):  9.323E-06 0.000E+00

     total cpu time spent up to now is        5.1 secs

     total energy              =     -31.57324957 Ry
     Harris-Foulkes estimate   =     -31.58661737 Ry
     estimated scf accuracy    <       0.19686037 Ry

     iteration # 19     ecut=    30.00 Ry     beta=0.70
     Davidson diagonalization with overlap
     ethr =  8.64E-04,  avg # of iterations =  1.0

     negative rho (up, down):  1.580E-06 0.000E+00

     total cpu time spent up to now is        5.1 secs

     total energy              =     -31.58217318 Ry
     Harris-Foulkes estimate   =     -31.58966705 Ry
     estimated scf accuracy    <       0.46946430 Ry

     iteration # 20     ecut=    30.00 Ry     beta=0.70
     Davidson diagonalization with overlap
     ethr =  8.64E-04,  avg # of iterations =  1.0

     negative rho (up, down):  1.186E-08 0.000E+00

     total cpu time spent up to now is        5.2 secs

     total energy              =     -31.58174996 Ry
     Harris-Foulkes estimate   =     -31.58443792 Ry
     estimated scf accuracy    <       0.06819683 Ry

     iteration # 21     ecut=    30.00 Ry     beta=0.70
     Davidson diagonalization with overlap
     ethr =  8.52E-04,  avg # of iterations =  1.0

     total cpu time spent up to now is        5.2 secs

     total energy              =     -31.58347654 Ry
     Harris-Foulkes estimate   =     -31.58383232 Ry
     estimated scf accuracy    <       0.01885737 Ry

     iteration # 22     ecut=    30.00 Ry     beta=0.70
     Davidson diagonalization with overlap
     ethr =  2.36E-04,  avg # of iterations =  1.0

     total cpu time spent up to now is        5.2 secs

     total energy              =     -31.58355983 Ry
     Harris-Foulkes estimate   =     -31.58359541 Ry
     estimated scf accuracy    <       0.00191158 Ry

     iteration # 23     ecut=    30.00 Ry     beta=0.70
     Davidson diagonalization with overlap
     ethr =  2.39E-05,  avg # of iterations =  1.0

     total cpu time spent up to now is        5.3 secs

     total energy              =     -31.58356580 Ry
     Harris-Foulkes estimate   =     -31.58357153 Ry
     estimated scf accuracy    <       0.00019667 Ry

     iteration # 24     ecut=    30.00 Ry     beta=0.70
     Davidson diagonalization with overlap
     ethr =  2.46E-06,  avg # of iterations =  3.0

     total cpu time spent up to now is        5.3 secs

     total energy              =     -31.58356879 Ry
     Harris-Foulkes estimate   =     -31.58356873 Ry
     estimated scf accuracy    <       0.00000080 Ry

     iteration # 25     ecut=    30.00 Ry     beta=0.70
     Davidson diagonalization with overlap
     ethr =  1.00E-08,  avg # of iterations =  1.0

     total cpu time spent up to now is        5.3 secs

     total energy              =     -31.58356884 Ry
     Harris-Foulkes estimate   =     -31.58356880 Ry
     estimated scf accuracy    <       0.00000002 Ry

     iteration # 26     ecut=    30.00 Ry     beta=0.70
     Davidson diagonalization with overlap
     ethr =  3.12E-10,  avg # of iterations =  2.0

     total cpu time spent up to now is        5.4 secs

     End of self-consistent calculation

          k = 0.0000 0.0000 0.0000 ( 22119 PWs)   bands (ev):

   -23.5636  -7.8335  -6.8917  -6.8879  -6.7479  -6.1778  -0.1292   0.7544

     the Fermi energy is    -6.7190 ev

!    total energy              =     -31.58356888 Ry
     Harris-Foulkes estimate   =     -31.58356884 Ry
     estimated scf accuracy    <          2.8E-09 Ry

     convergence has been achieved in  26 iterations

     Forces acting on atoms (Ry/au):

     atom    1 type  1   force =     0.00112730    0.00082831    0.00023858
     atom    2 type  1   force =     0.00070856    0.01958796   -0.08226887
     atom    3 type  2   force =    -0.00183587   -0.02041626    0.08203029

     Total force =     0.119597     Total SCF correction =     0.000198

     Entering Dynamics:    iteration =     4
                           time      =   0.0194 pico-seconds


     Andersen thermostat:    3 collisions

ATOMIC_POSITIONS (bohr)
H       25.125037136   2.186915477   2.595918152
H       13.935274526   1.033941837   7.783085588
O       14.134693810   2.192345184   4.491618662


     kinetic energy (Ekin) =     0.03518514 Ry
     temperature           =  1851.76264873 K 
     Ekin + Etot (const)   =   -31.54838374 Ry
     Message from routine dynamics:
     Total linear momentum <> 0

     Linear momentum :    0.6585480540    0.4524520681   -0.2987964083

     Writing output data file pwscf.save

     second order wave-functions extrapolation
     Check: negative starting charge=   -0.338224
     second order charge density extrapolation
     Check: negative starting charge=   -0.339738

     negative rho (up, down):  8.737E-02 0.000E+00

     total cpu time spent up to now is        5.7 secs

     per-process dynamical memory:    20.4 Mb

     Self-consistent Calculation

     iteration #  1     ecut=    30.00 Ry     beta=0.70
     Davidson diagonalization with overlap
     ethr =  1.00E-06,  avg # of iterations = 10.0

     negative rho (up, down):  2.090E-02 0.000E+00

     total cpu time spent up to now is        5.8 secs

     total energy              =     -19.73033101 Ry
     Harris-Foulkes estimate   =     -34.73215167 Ry
     estimated scf accuracy    <       5.49631728 Ry

     iteration #  2     ecut=    30.00 Ry     beta=0.70
     Davidson diagonalization with overlap
     ethr =  1.00E-02,  avg # of iterations =  4.0

     negative rho (up, down):  1.449E-02 0.000E+00

     total cpu time spent up to now is        5.8 secs

     total energy              =     -32.18419543 Ry
     Harris-Foulkes estimate   =     -36.73845782 Ry
     estimated scf accuracy    <      10.38841585 Ry

     iteration #  3     ecut=    30.00 Ry     beta=0.70
     Davidson diagonalization with overlap
     ethr =  1.00E-02,  avg # of iterations =  2.0

     negative rho (up, down):  1.003E-02 0.000E+00

     total cpu time spent up to now is        5.9 secs

     total energy              =     -31.59644767 Ry
     Harris-Foulkes estimate   =     -32.60084744 Ry
     estimated scf accuracy    <       3.15690231 Ry

     iteration #  4     ecut=    30.00 Ry     beta=0.70
     Davidson diagonalization with overlap
     ethr =  1.00E-02,  avg # of iterations =  2.0

     negative rho (up, down):  9.070E-03 0.000E+00

     total cpu time spent up to now is        5.9 secs

     total energy              =     -31.87074059 Ry
     Harris-Foulkes estimate   =     -32.28995764 Ry
     estimated scf accuracy    <       1.98921265 Ry

     iteration #  5     ecut=    30.00 Ry     beta=0.70
     Davidson diagonalization with overlap
     ethr =  1.00E-02,  avg # of iterations =  1.0

     negative rho (up, down):  5.970E-03 0.000E+00

     total cpu time spent up to now is        5.9 secs

     total energy              =     -31.70125762 Ry
     Harris-Foulkes estimate   =     -31.94571259 Ry
     estimated scf accuracy    <       1.53169802 Ry

     iteration #  6     ecut=    30.00 Ry     beta=0.70
     Davidson diagonalization with overlap
     ethr =  1.00E-02,  avg # of iterations =  1.0

     negative rho (up, down):  4.053E-03 0.000E+00

     total cpu time spent up to now is        6.0 secs

     total energy              =     -31.64861943 Ry
     Harris-Foulkes estimate   =     -31.83743304 Ry
     estimated scf accuracy    <       1.30802009 Ry

     iteration #  7     ecut=    30.00 Ry     beta=0.70
     Davidson diagonalization with overlap
     ethr =  1.00E-02,  avg # of iterations =  1.0

     negative rho (up, down):  4.217E-03 0.000E+00

     total cpu time spent up to now is        6.0 secs

     total energy              =     -31.74530193 Ry
     Harris-Foulkes estimate   =     -31.76587039 Ry
     estimated scf accuracy    <       1.19369218 Ry

     iteration #  8     ecut=    30.00 Ry     beta=0.70
     Davidson diagonalization with overlap
     ethr =  1.00E-02,  avg # of iterations =  1.0

     negative rho (up, down):  2.498E-03 0.000E+00

     total cpu time spent up to now is        6.0 secs

     total energy              =     -31.63759235 Ry
     Harris-Foulkes estimate   =     -31.74732411 Ry
     estimated scf accuracy    <       0.88238337 Ry

     iteration #  9     ecut=    30.00 Ry     beta=0.70
     Davidson diagonalization with overlap
     ethr =  1.00E-02,  avg # of iterations =  1.0

     negative rho (up, down):  2.269E-03 0.000E+00

     total cpu time spent up to now is        6.1 secs

     total energy              =     -31.71794732 Ry
     Harris-Foulkes estimate   =     -31.76418525 Ry
     estimated scf accuracy    <       1.29599954 Ry

     iteration # 10     ecut=    30.00 Ry     beta=0.70
     Davidson diagonalization with overlap
     ethr =  1.00E-02,  avg # of iterations =  1.0

     negative rho (up, down):  4.021E-07 0.000E+00

     total cpu time spent up to now is        6.1 secs

     total energy              =     -31.69519900 Ry
     Harris-Foulkes estimate   =     -31.71939987 Ry
     estimated scf accuracy    <       0.70374423 Ry

     iteration # 11     ecut=    30.00 Ry     beta=0.70
     Davidson diagonalization with overlap
     ethr =  8.80E-03,  avg # of iterations =  1.0

     negative rho (up, down):  8.272E-08 0.000E+00

     total cpu time spent up to now is        6.1 secs

     total energy              =     -31.66321715 Ry
     Harris-Foulkes estimate   =     -31.71778276 Ry
     estimated scf accuracy    <       0.51666615 Ry

     iteration # 12     ecut=    30.00 Ry     beta=0.70
     Davidson diagonalization with overlap
     ethr =  6.46E-03,  avg # of iterations =  1.0

     negative rho (up, down):  7.811E-08 0.000E+00

     total cpu time spent up to now is        6.2 secs

     total energy              =     -31.69939868 Ry
     Harris-Foulkes estimate   =     -31.73675428 Ry
     estimated scf accuracy    <       0.90256645 Ry

     iteration # 13     ecut=    30.00 Ry     beta=0.70
     Davidson diagonalization with overlap
     ethr =  6.46E-03,  avg # of iterations =  1.0

     total cpu time spent up to now is        6.2 secs

     total energy              =     -31.69597203 Ry
     Harris-Foulkes estimate   =     -31.70664144 Ry
     estimated scf accuracy    <       0.12719479 Ry

     iteration # 14     ecut=    30.00 Ry     beta=0.70
     Davidson diagonalization with overlap
     ethr =  1.59E-03,  avg # of iterations =  1.0

     total cpu time spent up to now is        6.2 secs

     total energy              =     -31.70066066 Ry
     Harris-Foulkes estimate   =     -31.71308302 Ry
     estimated scf accuracy    <       0.62776511 Ry

     iteration # 15     ecut=    30.00 Ry     beta=0.70
     Davidson diagonalization with overlap
     ethr =  1.59E-03,  avg # of iterations =  1.0

     total cpu time spent up to now is        6.3 secs

     total energy              =     -31.70395528 Ry
     Harris-Foulkes estimate   =     -31.70526010 Ry
     estimated scf accuracy    <       0.03582208 Ry

     iteration # 16     ecut=    30.00 Ry     beta=0.70
     Davidson diagonalization with overlap
     ethr =  4.48E-04,  avg # of iterations =  1.0

     total cpu time spent up to now is        6.3 secs

     total energy              =     -31.70473072 Ry
     Harris-Foulkes estimate   =     -31.70489593 Ry
     estimated scf accuracy    <       0.00632210 Ry

     iteration # 17     ecut=    30.00 Ry     beta=0.70
     Davidson diagonalization with overlap
     ethr =  7.90E-05,  avg # of iterations =  1.0

     total cpu time spent up to now is        6.3 secs

     total energy              =     -31.70481567 Ry
     Harris-Foulkes estimate   =     -31.70480715 Ry
     estimated scf accuracy    <       0.00002498 Ry

     iteration # 18     ecut=    30.00 Ry     beta=0.70
     Davidson diagonalization with overlap
     ethr =  3.12E-07,  avg # of iterations =  4.0

     total cpu time spent up to now is        6.4 secs

     total energy              =     -31.70478674 Ry
     Harris-Foulkes estimate   =     -31.70486802 Ry
     estimated scf accuracy    <       0.00445970 Ry

     iteration # 19     ecut=    30.00 Ry     beta=0.70
     Davidson diagonalization with overlap
     ethr =  3.12E-07,  avg # of iterations =  1.0

     total cpu time spent up to now is        6.4 secs

     total energy              =     -31.70481159 Ry
     Harris-Foulkes estimate   =     -31.70481384 Ry
     estimated scf accuracy    <       0.00048900 Ry

     iteration # 20     ecut=    30.00 Ry     beta=0.70
     Davidson diagonalization with overlap
     ethr =  3.12E-07,  avg # of iterations =  1.0

     total cpu time spent up to now is        6.4 secs

     total energy              =     -31.70480671 Ry
     Harris-Foulkes estimate   =     -31.70481188 Ry
     estimated scf accuracy    <       0.00031166 Ry

     iteration # 21     ecut=    30.00 Ry     beta=0.70
     Davidson diagonalization with overlap
     ethr =  3.12E-07,  avg # of iterations =  1.0

     total cpu time spent up to now is        6.5 secs

     total energy              =     -31.70480755 Ry
     Harris-Foulkes estimate   =     -31.70480846 Ry
     estimated scf accuracy    <       0.00003792 Ry

     iteration # 22     ecut=    30.00 Ry     beta=0.70
     Davidson diagonalization with overlap
     ethr =  3.12E-07,  avg # of iterations =  1.0

     total cpu time spent up to now is        6.5 secs

     total energy              =     -31.70480808 Ry
     Harris-Foulkes estimate   =     -31.70480808 Ry
     estimated scf accuracy    <       0.00000003 Ry

     iteration # 23     ecut=    30.00 Ry     beta=0.70
     Davidson diagonalization with overlap
     ethr =  4.15E-10,  avg # of iterations =  2.0

     total cpu time spent up to now is        6.6 secs

     total energy              =     -31.70480807 Ry
     Harris-Foulkes estimate   =     -31.70480809 Ry
     estimated scf accuracy    <       0.00000002 Ry

     iteration # 24     ecut=    30.00 Ry     beta=0.70
     Davidson diagonalization with overlap
     ethr =  1.95E-10,  avg # of iterations =  1.0

     total cpu time spent up to now is        6.7 secs

     total energy              =     -31.70480808 Ry
     Harris-Foulkes estimate   =     -31.70480807 Ry
     estimated scf accuracy    <       0.00000001 Ry

     iteration # 25     ecut=    30.00 Ry     beta=0.70
     Davidson diagonalization with overlap
     ethr =  1.37E-10,  avg # of iterations =  1.0

     total cpu time spent up to now is        6.7 secs

     End of self-consistent calculation

          k = 0.0000 0.0000 0.0000 ( 22119 PWs)   bands (ev):

   -23.5573  -8.5535  -6.8738  -6.8701  -6.7306  -4.7096  -0.0882   0.8039

     the Fermi energy is    -6.7009 ev

!    total energy              =     -31.70480809 Ry
     Harris-Foulkes estimate   =     -31.70480809 Ry
     estimated scf accuracy    <          1.5E-12 Ry

     convergence has been achieved in  25 iterations

     Forces acting on atoms (Ry/au):

     atom    1 type  1   force =     0.00098861    0.00053121   -0.00037787
     atom    2 type  1   force =     0.00974427    0.05341466   -0.14995657
     atom    3 type  2   force =    -0.01073289   -0.05394587    0.15033445

     Total force =     0.225970     Total SCF correction =     0.000002

     Entering Dynamics:    iteration =     5
                           time      =   0.0242 pico-seconds


     Andersen thermostat:    3 collisions

ATOMIC_POSITIONS (bohr)
H       24.952465837   2.486081282   2.896735228
H       13.506472083   1.829668941   5.875527694
O       14.172655527   2.123230069   4.593044176


     kinetic energy (Ekin) =     0.09321350 Ry
     temperature           =  4905.74349801 K 
     Ekin + Etot (const)   =   -31.61159458 Ry
     Message from routine dynamics:
     Total linear momentum <> 0

     Linear momentum :    0.2555715914    0.0401351917   -0.1541686132

     Writing output data file pwscf.save

     second order wave-functions extrapolation
     Check: negative starting charge=   -0.339738
     second order charge density extrapolation
     Check: negative starting charge=   -0.348159

     negative rho (up, down):  4.701E-01 0.000E+00

     total cpu time spent up to now is        7.1 secs

     per-process dynamical memory:    20.4 Mb

     Self-consistent Calculation

     iteration #  1     ecut=    30.00 Ry     beta=0.70
     Davidson diagonalization with overlap
     ethr =  1.00E-06,  avg # of iterations = 12.0

     negative rho (up, down):  8.395E-02 0.000E+00

     total cpu time spent up to now is        7.2 secs

     total energy              =      21.32298577 Ry
     Harris-Foulkes estimate   =     -53.01533495 Ry
     estimated scf accuracy    <      25.58152214 Ry

     iteration #  2     ecut=    30.00 Ry     beta=0.70
     Davidson diagonalization with overlap
     ethr =  1.00E-02,  avg # of iterations =  4.0

     negative rho (up, down):  5.390E-02 0.000E+00

     total cpu time spent up to now is        7.2 secs

     total energy              =     -35.67739497 Ry
     Harris-Foulkes estimate   =     -48.66219373 Ry
     estimated scf accuracy    <      25.62605815 Ry

     iteration #  3     ecut=    30.00 Ry     beta=0.70
     Davidson diagonalization with overlap
     ethr =  1.00E-02,  avg # of iterations =  3.0

     negative rho (up, down):  3.311E-02 0.000E+00

     total cpu time spent up to now is        7.3 secs

     total energy              =     -32.64214932 Ry
     Harris-Foulkes estimate   =     -36.37034575 Ry
     estimated scf accuracy    <       7.96044577 Ry

     iteration #  4     ecut=    30.00 Ry     beta=0.70
     Davidson diagonalization with overlap
     ethr =  1.00E-02,  avg # of iterations =  4.0

     negative rho (up, down):  1.486E-02 0.000E+00

     total cpu time spent up to now is        7.3 secs

     total energy              =     -31.54761079 Ry
     Harris-Foulkes estimate   =     -32.80108261 Ry
     estimated scf accuracy    <       2.69817655 Ry

     iteration #  5     ecut=    30.00 Ry     beta=0.70
     Davidson diagonalization with overlap
     ethr =  1.00E-02,  avg # of iterations =  2.0

     negative rho (up, down):  1.981E-02 0.000E+00

     total cpu time spent up to now is        7.3 secs

     total energy              =     -32.00612958 Ry
     Harris-Foulkes estimate   =     -32.45864090 Ry
     estimated scf accuracy    <       2.49393915 Ry

     iteration #  6     ecut=    30.00 Ry     beta=0.70
     Davidson diagonalization with overlap
     ethr =  1.00E-02,  avg # of iterations =  1.0

     negative rho (up, down):  1.118E-02 0.000E+00

     total cpu time spent up to now is        7.4 secs

     total energy              =     -31.58736526 Ry
     Harris-Foulkes estimate   =     -32.12723140 Ry
     estimated scf accuracy    <       1.65646747 Ry

     iteration #  7     ecut=    30.00 Ry     beta=0.70
     Davidson diagonalization with overlap
     ethr =  1.00E-02,  avg # of iterations =  1.0

     negative rho (up, down):  6.017E-03 0.000E+00

     total cpu time spent up to now is        7.4 secs

     total energy              =     -32.12658766 Ry
     Harris-Foulkes estimate   =     -32.14839963 Ry
     estimated scf accuracy    <       1.90551066 Ry

     iteration #  8     ecut=    30.00 Ry     beta=0.70
     Davidson diagonalization with overlap
     ethr =  1.00E-02,  avg # of iterations =  1.0

     negative rho (up, down):  4.896E-03 0.000E+00

     total cpu time spent up to now is        7.4 secs

     total energy              =     -31.74571842 Ry
     Harris-Foulkes estimate   =     -32.13610958 Ry
     estimated scf accuracy    <       1.88903574 Ry

     iteration #  9     ecut=    30.00 Ry     beta=0.70
     Davidson diagonalization with overlap
     ethr =  1.00E-02,  avg # of iterations =  1.0

     negative rho (up, down):  3.485E-03 0.000E+00

     total cpu time spent up to now is        7.5 secs

     total energy              =     -31.69266047 Ry
     Harris-Foulkes estimate   =     -31.75525837 Ry
     estimated scf accuracy    <       0.54678103 Ry

     iteration # 10     ecut=    30.00 Ry     beta=0.70
     Davidson diagonalization with overlap
     ethr =  6.83E-03,  avg # of iterations =  1.0

     negative rho (up, down):  5.073E-07 0.000E+00

     total cpu time spent up to now is        7.5 secs

     total energy              =     -31.80106763 Ry
     Harris-Foulkes estimate   =     -31.78308133 Ry
     estimated scf accuracy    <       0.98484298 Ry

     iteration # 11     ecut=    30.00 Ry     beta=0.70
     Davidson diagonalization with overlap
     ethr =  6.83E-03,  avg # of iterations =  1.0

     negative rho (up, down):  3.647E-08 0.000E+00

     total cpu time spent up to now is        7.5 secs

     total energy              =     -31.75806553 Ry
     Harris-Foulkes estimate   =     -31.80376670 Ry
     estimated scf accuracy    <       0.92031552 Ry

     iteration # 12     ecut=    30.00 Ry     beta=0.70
     Davidson diagonalization with overlap
     ethr =  6.83E-03,  avg # of iterations =  1.0

     total cpu time spent up to now is        7.6 secs

     total energy              =     -31.69377976 Ry
     Harris-Foulkes estimate   =     -31.75905152 Ry
     estimated scf accuracy    <       0.74545519 Ry

     iteration # 13     ecut=    30.00 Ry     beta=0.70
     Davidson diagonalization with overlap
     ethr =  6.83E-03,  avg # of iterations =  1.0

     total cpu time spent up to now is        7.6 secs

     total energy              =     -31.73898371 Ry
     Harris-Foulkes estimate   =     -31.76840558 Ry
     estimated scf accuracy    <       1.56770908 Ry

     iteration # 14     ecut=    30.00 Ry     beta=0.70
     Davidson diagonalization with overlap
     ethr =  6.83E-03,  avg # of iterations =  1.0

     total cpu time spent up to now is        7.6 secs

     total energy              =     -31.74831279 Ry
     Harris-Foulkes estimate   =     -31.74468407 Ry
     estimated scf accuracy    <       0.41599086 Ry

     iteration # 15     ecut=    30.00 Ry     beta=0.70
     Davidson diagonalization with overlap
     ethr =  5.20E-03,  avg # of iterations =  1.0

     negative rho (up, down):  1.074E-08 0.000E+00

     total cpu time spent up to now is        7.7 secs

     total energy              =     -31.71498412 Ry
     Harris-Foulkes estimate   =     -31.74888266 Ry
     estimated scf accuracy    <       0.71531002 Ry

     iteration # 16     ecut=    30.00 Ry     beta=0.70
     Davidson diagonalization with overlap
     ethr =  5.20E-03,  avg # of iterations =  1.0

     total cpu time spent up to now is        7.7 secs

     total energy              =     -31.73844934 Ry
     Harris-Foulkes estimate   =     -31.74490029 Ry
     estimated scf accuracy    <       0.32363644 Ry

     iteration # 17     ecut=    30.00 Ry     beta=0.70
     Davidson diagonalization with overlap
     ethr =  4.05E-03,  avg # of iterations =  1.0

     total cpu time spent up to now is        7.8 secs

     total energy              =     -31.73921491 Ry
     Harris-Foulkes estimate   =     -31.74015053 Ry
     estimated scf accuracy    <       0.06051045 Ry

     iteration # 18     ecut=    30.00 Ry     beta=0.70
     Davidson diagonalization with overlap
     ethr =  7.56E-04,  avg # of iterations =  1.0

     total cpu time spent up to now is        7.8 secs

     total energy              =     -31.73915698 Ry
     Harris-Foulkes estimate   =     -31.73945583 Ry
     estimated scf accuracy    <       0.01344631 Ry

     iteration # 19     ecut=    30.00 Ry     beta=0.70
     Davidson diagonalization with overlap
     ethr =  1.68E-04,  avg # of iterations =  1.0

     total cpu time spent up to now is        7.8 secs

     total energy              =     -31.73927133 Ry
     Harris-Foulkes estimate   =     -31.73927452 Ry
     estimated scf accuracy    <       0.00053058 Ry

     iteration # 20     ecut=    30.00 Ry     beta=0.70
     Davidson diagonalization with overlap
     ethr =  6.63E-06,  avg # of iterations = 14.0

     total cpu time spent up to now is        7.9 secs

     total energy              =     -31.73925979 Ry
     Harris-Foulkes estimate   =     -31.73927190 Ry
     estimated scf accuracy    <       0.00030466 Ry

     iteration # 21     ecut=    30.00 Ry     beta=0.70
     Davidson diagonalization with overlap
     ethr =  3.81E-06,  avg # of iterations =  1.0

     total cpu time spent up to now is        7.9 secs

     total energy              =     -31.73926799 Ry
     Harris-Foulkes estimate   =     -31.73926974 Ry
     estimated scf accuracy    <       0.00009750 Ry

     iteration # 22     ecut=    30.00 Ry     beta=0.70
     Davidson diagonalization with overlap
     ethr =  1.22E-06,  avg # of iterations =  1.0

     total cpu time spent up to now is        8.0 secs

     total energy              =     -31.73926805 Ry
     Harris-Foulkes estimate   =     -31.73926850 Ry
     estimated scf accuracy    <       0.00001437 Ry

     iteration # 23     ecut=    30.00 Ry     beta=0.70
     Davidson diagonalization with overlap
     ethr =  1.80E-07,  avg # of iterations =  1.0

     total cpu time spent up to now is        8.0 secs

     total energy              =     -31.73926841 Ry
     Harris-Foulkes estimate   =     -31.73926834 Ry
     estimated scf accuracy    <       0.00000079 Ry

     iteration # 24     ecut=    30.00 Ry     beta=0.70
     Davidson diagonalization with overlap
     ethr =  9.85E-09,  avg # of iterations =  1.0

     total cpu time spent up to now is        8.0 secs

     End of self-consistent calculation

          k = 0.0000 0.0000 0.0000 ( 22119 PWs)   bands (ev):

   -26.8314 -11.1913  -7.1952  -7.1924  -7.0427  -0.4005   0.5415   0.8213

     the Fermi energy is    -7.0195 ev

!    total energy              =     -31.73926842 Ry
     Harris-Foulkes estimate   =     -31.73926842 Ry
     estimated scf accuracy    <          3.0E-09 Ry

     convergence has been achieved in  24 iterations

     Forces acting on atoms (Ry/au):

[...]
     Harris-Foulkes estimate   =   -4687.86802612 Ry
     estimated scf accuracy    <      48.85288510 Ry

     iteration # 59     ecut=    30.00 Ry     beta=0.70
     Davidson diagonalization with overlap
     ethr =  1.00E-02,  avg # of iterations =  9.0

     negative rho (up, down):  2.627E+00 0.000E+00

     total cpu time spent up to now is       11.3 secs

     total energy              =   -2436.25078147 Ry
     Harris-Foulkes estimate   =   -1691.60415105 Ry
     estimated scf accuracy    <      52.82467579 Ry

     iteration # 60     ecut=    30.00 Ry     beta=0.70
     Davidson diagonalization with overlap
     ethr =  1.00E-02,  avg # of iterations = 11.0

     negative rho (up, down):  2.366E+00 0.000E+00

     total cpu time spent up to now is       11.3 secs

     total energy              =     107.71771954 Ry
     Harris-Foulkes estimate   =   -6103.02334783 Ry
     estimated scf accuracy    <      38.61767549 Ry

     iteration # 61     ecut=    30.00 Ry     beta=0.70
     Davidson diagonalization with overlap
     ethr =  1.00E-02,  avg # of iterations =  8.0

     negative rho (up, down):  2.486E+00 0.000E+00

     total cpu time spent up to now is       11.4 secs

     total energy              =     -78.88636061 Ry
     Harris-Foulkes estimate   =   -3388.96124629 Ry
     estimated scf accuracy    <      38.12214591 Ry

     iteration # 62     ecut=    30.00 Ry     beta=0.70
     Davidson diagonalization with overlap
     ethr =  1.00E-02,  avg # of iterations =  9.0

     negative rho (up, down):  1.088E+00 0.000E+00

     total cpu time spent up to now is       11.4 secs

     total energy              =    -186.62098706 Ry
     Harris-Foulkes estimate   =   -5986.17036053 Ry
     estimated scf accuracy    <      26.46498685 Ry

     iteration # 63     ecut=    30.00 Ry     beta=0.70
     Davidson diagonalization with overlap
     ethr =  1.00E-02,  avg # of iterations =  8.0

     negative rho (up, down):  7.493E-01 0.000E+00

     total cpu time spent up to now is       11.5 secs

     total energy              =  -18966.88843394 Ry
     Harris-Foulkes estimate   =   -2423.86688840 Ry
     estimated scf accuracy    <      22.57085919 Ry

     iteration # 64     ecut=    30.00 Ry     beta=0.70
     Davidson diagonalization with overlap
     ethr =  1.00E-02,  avg # of iterations = 10.0

     negative rho (up, down):  7.196E-01 0.000E+00

     total cpu time spent up to now is       11.6 secs

     total energy              =      83.51114501 Ry
     Harris-Foulkes estimate   =  -53518.45045128 Ry
     estimated scf accuracy    <      25.60810045 Ry

     iteration # 65     ecut=    30.00 Ry     beta=0.70
     Davidson diagonalization with overlap
     ethr =  1.00E-02,  avg # of iterations = 10.0

     negative rho (up, down):  5.829E-01 0.000E+00

     total cpu time spent up to now is       11.7 secs

     total energy              =     117.33684004 Ry
     Harris-Foulkes estimate   =   -4643.60503656 Ry
     estimated scf accuracy    <      20.25669685 Ry

     iteration # 66     ecut=    30.00 Ry     beta=0.70
     Davidson diagonalization with overlap
     ethr =  1.00E-02,  avg # of iterations =  8.0

     negative rho (up, down):  9.570E-02 0.000E+00

     total cpu time spent up to now is       11.7 secs

     total energy              =      71.34467929 Ry
     Harris-Foulkes estimate   =    -282.00625655 Ry
     estimated scf accuracy    <      25.47586513 Ry

     iteration # 67     ecut=    30.00 Ry     beta=0.70
     Davidson diagonalization with overlap
     ethr =  1.00E-02,  avg # of iterations =  8.0

     negative rho (up, down):  7.444E-02 0.000E+00

     total cpu time spent up to now is       11.8 secs

     total energy              =     146.72544432 Ry
     Harris-Foulkes estimate   =  -10735.48585100 Ry
     estimated scf accuracy    <      20.24704656 Ry

     iteration # 68     ecut=    30.00 Ry     beta=0.70
     Davidson diagonalization with overlap
     ethr =  1.00E-02,  avg # of iterations =  9.0

     negative rho (up, down):  4.153E-02 0.000E+00

     total cpu time spent up to now is       11.8 secs

     total energy              =      86.72528202 Ry
     Harris-Foulkes estimate   =   -1963.83300472 Ry
     estimated scf accuracy    <      24.73009889 Ry

     iteration # 69     ecut=    30.00 Ry     beta=0.70
     Davidson diagonalization with overlap
     ethr =  1.00E-02,  avg # of iterations =  9.0

     negative rho (up, down):  9.937E-03 0.000E+00

     total cpu time spent up to now is       11.9 secs

     total energy              =     -51.61314235 Ry
     Harris-Foulkes estimate   =     -94.12533644 Ry
     estimated scf accuracy    <      26.47108697 Ry

     iteration # 70     ecut=    30.00 Ry     beta=0.70
     Davidson diagonalization with overlap
     ethr =  1.00E-02,  avg # of iterations =  7.0

     negative rho (up, down):  2.350E-03 0.000E+00

     total cpu time spent up to now is       11.9 secs

     total energy              =     -11.10317690 Ry
     Harris-Foulkes estimate   =    -866.84521975 Ry
     estimated scf accuracy    <      29.97820494 Ry

     iteration # 71     ecut=    30.00 Ry     beta=0.70
     Davidson diagonalization with overlap
     ethr =  1.00E-02,  avg # of iterations =  8.0

     negative rho (up, down):  5.434E-02 0.000E+00

     total cpu time spent up to now is       12.0 secs

     total energy              =     -89.88117714 Ry
     Harris-Foulkes estimate   =     -62.46119361 Ry
     estimated scf accuracy    <      45.45034427 Ry

     iteration # 72     ecut=    30.00 Ry     beta=0.70
     Davidson diagonalization with overlap
     ethr =  1.00E-02,  avg # of iterations =  4.0

     negative rho (up, down):  3.778E-02 0.000E+00

     total cpu time spent up to now is       12.0 secs

     total energy              =     -83.16805111 Ry
     Harris-Foulkes estimate   =    -110.70633072 Ry
     estimated scf accuracy    <      62.13073063 Ry

     iteration # 73     ecut=    30.00 Ry     beta=0.70
     Davidson diagonalization with overlap
     ethr =  1.00E-02,  avg # of iterations =  4.0

     negative rho (up, down):  1.258E-01 0.000E+00

     total cpu time spent up to now is       12.1 secs

     total energy              =     -80.74435393 Ry
     Harris-Foulkes estimate   =    -103.08409299 Ry
     estimated scf accuracy    <      53.09892456 Ry

     iteration # 74     ecut=    30.00 Ry     beta=0.70
     Davidson diagonalization with overlap
     ethr =  1.00E-02,  avg # of iterations =  4.0

     negative rho (up, down):  2.972E-01 0.000E+00

     total cpu time spent up to now is       12.1 secs

     total energy              =     -24.11040621 Ry
     Harris-Foulkes estimate   =    -222.33907153 Ry
     estimated scf accuracy    <      59.55239974 Ry

     iteration # 75     ecut=    30.00 Ry     beta=0.70
     Davidson diagonalization with overlap
     ethr =  1.00E-02,  avg # of iterations =  9.0

     negative rho (up, down):  4.611E-01 0.000E+00

     total cpu time spent up to now is       12.2 secs

     total energy              =     -45.25573237 Ry
     Harris-Foulkes estimate   =    -652.50126920 Ry
     estimated scf accuracy    <      62.07077085 Ry

     iteration # 76     ecut=    30.00 Ry     beta=0.70
     Davidson diagonalization with overlap
     ethr =  1.00E-02,  avg # of iterations =  7.0

     negative rho (up, down):  6.632E-01 0.000E+00

     total cpu time spent up to now is       12.2 secs

     total energy              =     -45.96229032 Ry
     Harris-Foulkes estimate   =    -451.40940678 Ry
     estimated scf accuracy    <      55.70170123 Ry

     iteration # 77     ecut=    30.00 Ry     beta=0.70
     Davidson diagonalization with overlap
     ethr =  1.00E-02,  avg # of iterations =  5.0

     negative rho (up, down):  7.784E-01 0.000E+00

     total cpu time spent up to now is       12.3 secs

     total energy              =     -90.17260371 Ry
     Harris-Foulkes estimate   =    -219.60553855 Ry
     estimated scf accuracy    <      59.57886431 Ry

     iteration # 78     ecut=    30.00 Ry     beta=0.70
     Davidson diagonalization with overlap
     ethr =  1.00E-02,  avg # of iterations =  8.0

     negative rho (up, down):  2.294E+00 0.000E+00

     total cpu time spent up to now is       12.3 secs

     total energy              =    -285.08481698 Ry
     Harris-Foulkes estimate   =    -840.03931551 Ry
     estimated scf accuracy    <      52.88347865 Ry

     iteration # 79     ecut=    30.00 Ry     beta=0.70
     Davidson diagonalization with overlap
     ethr =  1.00E-02,  avg # of iterations =  5.0

     negative rho (up, down):  2.317E+00 0.000E+00

     total cpu time spent up to now is       12.4 secs

     total energy              =      29.00551729 Ry
     Harris-Foulkes estimate   =   -5260.12102967 Ry
     estimated scf accuracy    <      31.17222357 Ry

     iteration # 80     ecut=    30.00 Ry     beta=0.70
     Davidson diagonalization with overlap
     ethr =  1.00E-02,  avg # of iterations =  8.0

     negative rho (up, down):  1.154E+00 0.000E+00

     total cpu time spent up to now is       12.4 secs

     total energy              =      61.34042098 Ry
     Harris-Foulkes estimate   =   -2913.92319007 Ry
     estimated scf accuracy    <      25.45677658 Ry

     iteration # 81     ecut=    30.00 Ry     beta=0.70
     Davidson diagonalization with overlap
     ethr =  1.00E-02,  avg # of iterations =  8.0

     negative rho (up, down):  2.061E-01 0.000E+00

     total cpu time spent up to now is       12.5 secs

     total energy              =      67.45069640 Ry
     Harris-Foulkes estimate   =    -697.22391402 Ry
     estimated scf accuracy    <      21.80258913 Ry

     iteration # 82     ecut=    30.00 Ry     beta=0.70
     Davidson diagonalization with overlap
     ethr =  1.00E-02,  avg # of iterations =  7.0

     negative rho (up, down):  3.820E-01 0.000E+00

     total cpu time spent up to now is       12.5 secs

     total energy              =     -60.66388799 Ry
     Harris-Foulkes estimate   =   -3265.05073189 Ry
     estimated scf accuracy    <      27.53350205 Ry

     iteration # 83     ecut=    30.00 Ry     beta=0.70
     Davidson diagonalization with overlap
     ethr =  1.00E-02,  avg # of iterations =  8.0

     negative rho (up, down):  1.243E-01 0.000E+00

     total cpu time spent up to now is       12.6 secs

     total energy              =      74.03126708 Ry
     Harris-Foulkes estimate   =   -3997.76566388 Ry
     estimated scf accuracy    <      19.66125088 Ry

     iteration # 84     ecut=    30.00 Ry     beta=0.70
     Davidson diagonalization with overlap
     ethr =  1.00E-02,  avg # of iterations =  6.0

     negative rho (up, down):  8.869E-02 0.000E+00

     total cpu time spent up to now is       12.7 secs

     total energy              =    1324.49552484 Ry
     Harris-Foulkes estimate   =    -948.21779326 Ry
     estimated scf accuracy    <      24.98958485 Ry

     iteration # 85     ecut=    30.00 Ry     beta=0.70
     Davidson diagonalization with overlap
     ethr =  1.00E-02,  avg # of iterations = 12.0

     negative rho (up, down):  6.932E-03 0.000E+00

     total cpu time spent up to now is       12.7 secs

     total energy              =      76.65480284 Ry
     Harris-Foulkes estimate   =    -737.68108215 Ry
     estimated scf accuracy    <      25.45016643 Ry

     iteration # 86     ecut=    30.00 Ry     beta=0.70
     Davidson diagonalization with overlap
     ethr =  1.00E-02,  avg # of iterations =  5.0

     negative rho (up, down):  5.743E-04 0.000E+00

     total cpu time spent up to now is       12.8 secs

     total energy              =       0.48943813 Ry
     Harris-Foulkes estimate   =    -129.91531271 Ry
     estimated scf accuracy    <      11.70399707 Ry

     iteration # 87     ecut=    30.00 Ry     beta=0.70
     Davidson diagonalization with overlap
     ethr =  1.00E-02,  avg # of iterations =  5.0

     negative rho (up, down):  5.123E-04 0.000E+00

     total cpu time spent up to now is       12.8 secs

     total energy              =     -34.79854467 Ry
     Harris-Foulkes estimate   =     -35.96684274 Ry
     estimated scf accuracy    <      11.47055527 Ry

     iteration # 88     ecut=    30.00 Ry     beta=0.70
     Davidson diagonalization with overlap
     ethr =  1.00E-02,  avg # of iterations =  4.0

     negative rho (up, down):  2.501E-04 0.000E+00

     total cpu time spent up to now is       12.9 secs

     total energy              =     -33.87282501 Ry
     Harris-Foulkes estimate   =     -34.93865476 Ry
     estimated scf accuracy    <       9.03247713 Ry

     iteration # 89     ecut=    30.00 Ry     beta=0.70
     Davidson diagonalization with overlap
     ethr =  1.00E-02,  avg # of iterations =  1.0

     negative rho (up, down):  4.644E-01 0.000E+00

     total cpu time spent up to now is       12.9 secs

     total energy              =     -56.92954978 Ry
     Harris-Foulkes estimate   =     -34.07249631 Ry
     estimated scf accuracy    <       8.48177414 Ry

     iteration # 90     ecut=    30.00 Ry     beta=0.70
     Davidson diagonalization with overlap
     ethr =  1.00E-02,  avg # of iterations = 12.0

     negative rho (up, down):  7.057E-01 0.000E+00

     total cpu time spent up to now is       13.0 secs

     total energy              =      -5.99063638 Ry
     Harris-Foulkes estimate   =    -531.35391003 Ry
     estimated scf accuracy    <      22.49838775 Ry

     iteration # 91     ecut=    30.00 Ry     beta=0.70
     Davidson diagonalization with overlap
     ethr =  1.00E-02,  avg # of iterations =  7.0

     negative rho (up, down):  6.749E-01 0.000E+00

     total cpu time spent up to now is       13.0 secs

     total energy              =      31.22476779 Ry
     Harris-Foulkes estimate   =   -1329.00261821 Ry
     estimated scf accuracy    <      24.53851946 Ry

     iteration # 92     ecut=    30.00 Ry     beta=0.70
     Davidson diagonalization with overlap
     ethr =  1.00E-02,  avg # of iterations =  7.0

     negative rho (up, down):  9.733E-01 0.000E+00

     total cpu time spent up to now is       13.1 secs

     total energy              =      51.05206917 Ry
     Harris-Foulkes estimate   =   -2004.93674888 Ry
     estimated scf accuracy    <      43.47096630 Ry

     iteration # 93     ecut=    30.00 Ry     beta=0.70
     Davidson diagonalization with overlap
     ethr =  1.00E-02,  avg # of iterations =  8.0

     negative rho (up, down):  3.920E-01 0.000E+00

     total cpu time spent up to now is       13.2 secs

     total energy              =      59.38440005 Ry
     Harris-Foulkes estimate   =  -10141.18456581 Ry
     estimated scf accuracy    <      26.48371124 Ry

     iteration # 94     ecut=    30.00 Ry     beta=0.70
     Davidson diagonalization with overlap
     ethr =  1.00E-02,  avg # of iterations =  7.0

     negative rho (up, down):  4.394E-01 0.000E+00

     total cpu time spent up to now is       13.2 secs

     total energy              =    -147.25895621 Ry
     Harris-Foulkes estimate   =    -441.88352892 Ry
     estimated scf accuracy    <      27.22387183 Ry

     iteration # 95     ecut=    30.00 Ry     beta=0.70
     Davidson diagonalization with overlap
     ethr =  1.00E-02,  avg # of iterations =  8.0

     negative rho (up, down):  1.451E-01 0.000E+00

     total cpu time spent up to now is       13.3 secs

     total energy              =      15.14144707 Ry
     Harris-Foulkes estimate   =    -374.59114748 Ry
     estimated scf accuracy    <      47.51574563 Ry

     iteration # 96     ecut=    30.00 Ry     beta=0.70
     Davidson diagonalization with overlap
     ethr =  1.00E-02,  avg # of iterations =  6.0

     negative rho (up, down):  4.414E-02 0.000E+00

     total cpu time spent up to now is       13.3 secs

     total energy              =      22.49505274 Ry
     Harris-Foulkes estimate   =    -236.25114485 Ry
     estimated scf accuracy    <      48.04981071 Ry

     iteration # 97     ecut=    30.00 Ry     beta=0.70
     Davidson diagonalization with overlap
     ethr =  1.00E-02,  avg # of iterations =  8.0

     negative rho (up, down):  1.004E-01 0.000E+00

     total cpu time spent up to now is       13.4 secs

     total energy              =       3.65294485 Ry
     Harris-Foulkes estimate   =    -255.87929916 Ry
     estimated scf accuracy    <      11.93086302 Ry

     iteration # 98     ecut=    30.00 Ry     beta=0.70
     Davidson diagonalization with overlap
     ethr =  1.00E-02,  avg # of iterations =  9.0

     negative rho (up, down):  4.844E-01 0.000E+00

     total cpu time spent up to now is       13.4 secs

     total energy              =     -64.50276312 Ry
     Harris-Foulkes estimate   =    -373.89577794 Ry
     estimated scf accuracy    <      28.39826127 Ry

     iteration # 99     ecut=    30.00 Ry     beta=0.70
     Davidson diagonalization with overlap
     ethr =  1.00E-02,  avg # of iterations =  8.0

     negative rho (up, down):  6.930E-01 0.000E+00

     total cpu time spent up to now is       13.5 secs

     total energy              =     -72.47653944 Ry
     Harris-Foulkes estimate   =   -1858.29292419 Ry
     estimated scf accuracy    <      33.29524377 Ry

     iteration #100     ecut=    30.00 Ry     beta=0.70
     Davidson diagonalization with overlap
     ethr =  1.00E-02,  avg # of iterations =  7.0

     negative rho (up, down):  8.434E-01 0.000E+00

     total cpu time spent up to now is       13.6 secs

     total energy              =    -200.00800566 Ry
     Harris-Foulkes estimate   =   -1453.73964497 Ry
     estimated scf accuracy    <      25.89445145 Ry

     End of self-consistent calculation

     convergence NOT achieved after 100 iterations: stopping

     Writing output data file pwscf.save
 
     init_run     :      0.09s CPU      0.11s WALL (       1 calls)
     electrons    :      9.40s CPU     11.74s WALL (       7 calls)
     update_pot   :      0.71s CPU      1.06s WALL (       6 calls)
     forces       :      0.16s CPU      0.16s WALL (       6 calls)

     Called by init_run:
     wfcinit      :      0.01s CPU      0.02s WALL (       1 calls)
     potinit      :      0.02s CPU      0.03s WALL (       1 calls)

     Called by electrons:
     c_bands      :      4.48s CPU      4.70s WALL (     266 calls)
     sum_band     :      0.78s CPU      0.89s WALL (     266 calls)
     v_of_rho     :      1.99s CPU      2.10s WALL (     273 calls)
     mix_rho      :      1.84s CPU      3.17s WALL (     266 calls)

     Called by c_bands:
     init_us_2    :      0.03s CPU      0.03s WALL (     533 calls)
     cegterg      :      4.43s CPU      4.57s WALL (     266 calls)

     Called by sum_band:

     Called by *egterg:
     h_psi        :      3.73s CPU      3.85s WALL (    1296 calls)
     g_psi        :      0.04s CPU      0.04s WALL (    1029 calls)
     cdiaghg      :      0.26s CPU      0.26s WALL (    1289 calls)

     Called by h_psi:
     h_psi:pot    :      3.71s CPU      3.82s WALL (    1296 calls)
     h_psi:calbec :      0.08s CPU      0.10s WALL (    1296 calls)
     vloc_psi     :      3.61s CPU      3.71s WALL (    1296 calls)
     add_vuspsi   :      0.01s CPU      0.01s WALL (    1296 calls)

     General routines
     calbec       :      0.11s CPU      0.14s WALL (    1325 calls)
     fft          :      1.24s CPU      1.33s WALL (    3015 calls)
     fftw         :      3.76s CPU      3.93s WALL (   16808 calls)
     davcio       :      0.29s CPU      1.11s WALL (    4710 calls)
 
     Parallel routines
     fft_scatter  :      1.85s CPU      2.03s WALL (   19823 calls)
 
     PWSCF        :    10.59s CPU        13.65s WALL

 
   This run was terminated on:   8:27:49  14Feb2018            

=------------------------------------------------------------------------------=
   JOB DONE.
=------------------------------------------------------------------------------=
