
     Program PWSCF v.6.0 (svn rev. 13079) starts on 14Feb2018 at  8:31:36 

     This program is part of the open-source Quantum ESPRESSO suite
     for quantum simulation of materials; please cite
         "P. Giannozzi et al., J. Phys.:Condens. Matter 21 395502 (2009);
          URL http://www.quantum-espresso.org", 
     in publications or presentations arising from this work. More details at
     http://www.quantum-espresso.org/quote

     Parallel version (MPI), running on    28 processors
     R & G space division:  proc/nbgrp/npool/nimage =      28
     Reading input from inputs/MD-H2O-2/388.in

     Current dimensions of program PWSCF are:
     Max number of different atomic species (ntypx) = 10
     Max number of k-points (npk) =  40000
     Max angular momentum in pseudopotentials (lmaxx) =  3

     Subspace diagonalization in iterative solution of the eigenvalue problem:
     a serial algorithm will be used

 
     Parallelization info
     --------------------
     sticks:   dense  smooth     PW     G-vecs:    dense   smooth      PW
     Min         136     136     33                 6338     6338     787
     Max         137     137     34                 6341     6341     792
     Sum        3809    3809    949               177509   177509   22119
 


     bravais-lattice index     =            1
     lattice parameter (alat)  =      20.0000  a.u.
     unit-cell volume          =    8000.0000 (a.u.)^3
     number of atoms/cell      =            3
     number of atomic types    =            2
     number of electrons       =         8.00
     number of Kohn-Sham states=            8
     kinetic-energy cutoff     =      30.0000  Ry
     charge density cutoff     =     120.0000  Ry
     convergence threshold     =      1.0E-08
     mixing beta               =       0.7000
     number of iterations used =            8  plain     mixing
     Exchange-correlation      = BLYP ( 1  3  1  3 0 0)
     nstep                     =         5000


     celldm(1)=  20.000000  celldm(2)=   0.000000  celldm(3)=   0.000000
     celldm(4)=   0.000000  celldm(5)=   0.000000  celldm(6)=   0.000000

     crystal axes: (cart. coord. in units of alat)
               a(1) = (   1.000000   0.000000   0.000000 )  
               a(2) = (   0.000000   1.000000   0.000000 )  
               a(3) = (   0.000000   0.000000   1.000000 )  

     reciprocal axes: (cart. coord. in units 2 pi/alat)
               b(1) = (  1.000000  0.000000  0.000000 )  
               b(2) = (  0.000000  1.000000  0.000000 )  
               b(3) = (  0.000000  0.000000  1.000000 )  


     PseudoPot. # 1 for  H read from file:
     ./H.blyp-hgh.UPF
     MD5 check sum: c576e69559cde411e611be972c763230
     Pseudo is Norm-conserving, Zval =  1.0
     Generated in analytical, separable form
     Using radial grid of  929 points,  0 beta functions with: 

     PseudoPot. # 2 for  O read from file:
     ./O.blyp-hgh.UPF
     MD5 check sum: d0b7156309aa9befef28faac7bc56342
     Pseudo is Norm-conserving, Zval =  6.0
     Generated in analytical, separable form
     Using radial grid of 1095 points,  1 beta functions with: 
                l(1) =   0

     atomic species   valence    mass     pseudopotential
        H              1.00     1.01000      H( 1.00)
        O              6.00    16.00000      O( 1.00)

     No symmetry found



   Cartesian axes

     site n.     atom                  positions (alat units)
         1           H   tau(   1) = (   0.7375464   0.3939745   0.2980021  )
         2           H   tau(   2) = (   0.0602939   0.6468786   0.0243758  )
         3           O   tau(   3) = (   0.7149589   0.2986515   0.3156390  )

     number of k points=     1  Marzari-Vanderbilt smearing, width (Ry)=  0.0250
                       cart. coord. in units 2pi/alat
        k(    1) = (   0.0000000   0.0000000   0.0000000), wk =   2.0000000

     Dense  grid:   177509 G-vectors     FFT dimensions: (  72,  72,  72)

     Estimated max dynamical RAM per process >       6.09Mb

     Estimated total allocated dynamical RAM >     170.64Mb

     Initial potential from superposition of free atoms
     Check: negative starting charge=   -0.351045

     starting charge    7.99998, renormalised to    8.00000

     negative rho (up, down):  3.510E-01 0.000E+00
     Starting wfc are    6 randomized atomic wfcs +    2 random wfc

     total cpu time spent up to now is        0.2 secs

     per-process dynamical memory:    18.8 Mb

     Self-consistent Calculation

     iteration #  1     ecut=    30.00 Ry     beta=0.70
     Davidson diagonalization with overlap
     ethr =  1.00E-02,  avg # of iterations =  7.0

     negative rho (up, down):  9.182E-02 0.000E+00

     total cpu time spent up to now is        0.3 secs

     total energy              =     -30.33927086 Ry
     Harris-Foulkes estimate   =     -32.23615257 Ry
     estimated scf accuracy    <       2.18255234 Ry

     iteration #  2     ecut=    30.00 Ry     beta=0.70
     Davidson diagonalization with overlap
     ethr =  1.00E-02,  avg # of iterations =  3.0

     negative rho (up, down):  6.681E-02 0.000E+00

     total cpu time spent up to now is        0.3 secs

     total energy              =     -32.29894339 Ry
     Harris-Foulkes estimate   =     -34.61147655 Ry
     estimated scf accuracy    <       5.62983043 Ry

     iteration #  3     ecut=    30.00 Ry     beta=0.70
     Davidson diagonalization with overlap
     ethr =  1.00E-02,  avg # of iterations =  2.0

     negative rho (up, down):  6.424E-02 0.000E+00

     total cpu time spent up to now is        0.4 secs

     total energy              =     -32.44729105 Ry
     Harris-Foulkes estimate   =     -32.53489453 Ry
     estimated scf accuracy    <       1.83488154 Ry

     iteration #  4     ecut=    30.00 Ry     beta=0.70
     Davidson diagonalization with overlap
     ethr =  1.00E-02,  avg # of iterations =  1.0

     negative rho (up, down):  1.242E-02 0.000E+00

     total cpu time spent up to now is        0.4 secs

     total energy              =     -31.29373424 Ry
     Harris-Foulkes estimate   =     -32.44761155 Ry
     estimated scf accuracy    <       1.71373889 Ry

     iteration #  5     ecut=    30.00 Ry     beta=0.70
     Davidson diagonalization with overlap
     ethr =  1.00E-02,  avg # of iterations =  4.0

     negative rho (up, down):  2.376E-02 0.000E+00

     total cpu time spent up to now is        0.4 secs

     total energy              =     -33.36157198 Ry
     Harris-Foulkes estimate   =     -33.21279419 Ry
     estimated scf accuracy    <       8.12625703 Ry

     iteration #  6     ecut=    30.00 Ry     beta=0.70
     Davidson diagonalization with overlap
     ethr =  1.00E-02,  avg # of iterations =  1.0

     negative rho (up, down):  1.455E-02 0.000E+00

     total cpu time spent up to now is        0.4 secs

     total energy              =     -32.93683821 Ry
     Harris-Foulkes estimate   =     -33.37020987 Ry
     estimated scf accuracy    <       9.39528504 Ry

     iteration #  7     ecut=    30.00 Ry     beta=0.70
     Davidson diagonalization with overlap
     ethr =  1.00E-02,  avg # of iterations =  1.0

     negative rho (up, down):  2.262E-02 0.000E+00

     total cpu time spent up to now is        0.5 secs

     total energy              =     -32.90702944 Ry
     Harris-Foulkes estimate   =     -33.00945808 Ry
     estimated scf accuracy    <       3.37349648 Ry

     iteration #  8     ecut=    30.00 Ry     beta=0.70
     Davidson diagonalization with overlap
     ethr =  1.00E-02,  avg # of iterations =  1.0

     negative rho (up, down):  1.222E-01 0.000E+00

     total cpu time spent up to now is        0.5 secs

     total energy              =     -32.18301098 Ry
     Harris-Foulkes estimate   =     -32.91050641 Ry
     estimated scf accuracy    <       2.98751743 Ry

     iteration #  9     ecut=    30.00 Ry     beta=0.70
     Davidson diagonalization with overlap
     ethr =  1.00E-02,  avg # of iterations =  1.0

     negative rho (up, down):  1.097E-01 0.000E+00

     total cpu time spent up to now is        0.5 secs

     total energy              =     -32.02064671 Ry
     Harris-Foulkes estimate   =     -32.21306854 Ry
     estimated scf accuracy    <       1.69203849 Ry

     iteration # 10     ecut=    30.00 Ry     beta=0.70
     Davidson diagonalization with overlap
     ethr =  1.00E-02,  avg # of iterations =  1.0

     negative rho (up, down):  8.888E-02 0.000E+00

     total cpu time spent up to now is        0.6 secs

     total energy              =     -32.33970422 Ry
     Harris-Foulkes estimate   =     -32.02654480 Ry
     estimated scf accuracy    <       1.33958707 Ry

     iteration # 11     ecut=    30.00 Ry     beta=0.70
     Davidson diagonalization with overlap
     ethr =  1.00E-02,  avg # of iterations =  1.0

     negative rho (up, down):  8.507E-02 0.000E+00

     total cpu time spent up to now is        0.6 secs

     total energy              =     -32.19504620 Ry
     Harris-Foulkes estimate   =     -32.34688431 Ry
     estimated scf accuracy    <       1.86995701 Ry

     iteration # 12     ecut=    30.00 Ry     beta=0.70
     Davidson diagonalization with overlap
     ethr =  1.00E-02,  avg # of iterations =  1.0

     negative rho (up, down):  2.761E-01 0.000E+00

     total cpu time spent up to now is        0.6 secs

     total energy              =     -31.94025809 Ry
     Harris-Foulkes estimate   =     -32.19652728 Ry
     estimated scf accuracy    <       1.62829111 Ry

     iteration # 13     ecut=    30.00 Ry     beta=0.70
     Davidson diagonalization with overlap
     ethr =  1.00E-02,  avg # of iterations =  1.0

     negative rho (up, down):  6.389E-01 0.000E+00

     total cpu time spent up to now is        0.7 secs

     total energy              =     -32.06588326 Ry
     Harris-Foulkes estimate   =     -31.95582551 Ry
     estimated scf accuracy    <       0.27099295 Ry

     iteration # 14     ecut=    30.00 Ry     beta=0.70
     Davidson diagonalization with overlap
     ethr =  3.39E-03,  avg # of iterations =  1.0

     negative rho (up, down):  2.417E-02 0.000E+00

     total cpu time spent up to now is        0.7 secs

     total energy              =     -31.84094092 Ry
     Harris-Foulkes estimate   =     -32.15062738 Ry
     estimated scf accuracy    <       1.68373156 Ry

     iteration # 15     ecut=    30.00 Ry     beta=0.70
     Davidson diagonalization with overlap
     ethr =  3.39E-03,  avg # of iterations =  2.0

     negative rho (up, down):  6.791E-03 0.000E+00

     total cpu time spent up to now is        0.7 secs

     total energy              =     -31.96917907 Ry
     Harris-Foulkes estimate   =     -31.97829761 Ry
     estimated scf accuracy    <       0.88015085 Ry

     iteration # 16     ecut=    30.00 Ry     beta=0.70
     Davidson diagonalization with overlap
     ethr =  3.39E-03,  avg # of iterations =  1.0

     negative rho (up, down):  1.593E-04 0.000E+00

     total cpu time spent up to now is        0.8 secs

     total energy              =     -31.89165254 Ry
     Harris-Foulkes estimate   =     -31.97072273 Ry
     estimated scf accuracy    <       0.85818677 Ry

     iteration # 17     ecut=    30.00 Ry     beta=0.70
     Davidson diagonalization with overlap
     ethr =  3.39E-03,  avg # of iterations =  1.0

     negative rho (up, down):  7.221E-05 0.000E+00

     total cpu time spent up to now is        0.8 secs

     total energy              =     -31.87262643 Ry
     Harris-Foulkes estimate   =     -31.98328902 Ry
     estimated scf accuracy    <       1.60280837 Ry

     iteration # 18     ecut=    30.00 Ry     beta=0.70
     Davidson diagonalization with overlap
     ethr =  3.39E-03,  avg # of iterations =  1.0

     negative rho (up, down):  7.195E-05 0.000E+00

     total cpu time spent up to now is        0.9 secs

     total energy              =     -31.93418358 Ry
     Harris-Foulkes estimate   =     -31.97183697 Ry
     estimated scf accuracy    <       0.88799953 Ry

     iteration # 19     ecut=    30.00 Ry     beta=0.70
     Davidson diagonalization with overlap
     ethr =  3.39E-03,  avg # of iterations =  1.0

     negative rho (up, down):  8.118E-06 0.000E+00

     total cpu time spent up to now is        0.9 secs

     total energy              =     -31.94380701 Ry
     Harris-Foulkes estimate   =     -31.94607215 Ry
     estimated scf accuracy    <       0.00857282 Ry

     iteration # 20     ecut=    30.00 Ry     beta=0.70
     Davidson diagonalization with overlap
     ethr =  1.07E-04,  avg # of iterations =  8.0

     negative rho (up, down):  4.797E-06 0.000E+00

     total cpu time spent up to now is        0.9 secs

     total energy              =     -31.92046953 Ry
     Harris-Foulkes estimate   =     -31.95799540 Ry
     estimated scf accuracy    <       0.89994575 Ry

     iteration # 21     ecut=    30.00 Ry     beta=0.70
     Davidson diagonalization with overlap
     ethr =  1.07E-04,  avg # of iterations =  1.0

     negative rho (up, down):  1.887E-07 0.000E+00

     total cpu time spent up to now is        1.0 secs

     total energy              =     -31.94543123 Ry
     Harris-Foulkes estimate   =     -31.95027684 Ry
     estimated scf accuracy    <       0.27627876 Ry

     iteration # 22     ecut=    30.00 Ry     beta=0.70
     Davidson diagonalization with overlap
     ethr =  1.07E-04,  avg # of iterations =  1.0

     negative rho (up, down):  3.047E-07 0.000E+00

     total cpu time spent up to now is        1.0 secs

     total energy              =     -31.94598615 Ry
     Harris-Foulkes estimate   =     -31.94671949 Ry
     estimated scf accuracy    <       0.05403664 Ry

     iteration # 23     ecut=    30.00 Ry     beta=0.70
     Davidson diagonalization with overlap
     ethr =  1.07E-04,  avg # of iterations =  1.0

     negative rho (up, down):  6.826E-08 0.000E+00

     total cpu time spent up to now is        1.0 secs

     total energy              =     -31.94613686 Ry
     Harris-Foulkes estimate   =     -31.94616622 Ry
     estimated scf accuracy    <       0.01364589 Ry

     iteration # 24     ecut=    30.00 Ry     beta=0.70
     Davidson diagonalization with overlap
     ethr =  1.07E-04,  avg # of iterations =  1.0

     negative rho (up, down):  3.136E-08 0.000E+00

     total cpu time spent up to now is        1.1 secs

     total energy              =     -31.94605939 Ry
     Harris-Foulkes estimate   =     -31.94613828 Ry
     estimated scf accuracy    <       0.01146112 Ry

     iteration # 25     ecut=    30.00 Ry     beta=0.70
     Davidson diagonalization with overlap
     ethr =  1.07E-04,  avg # of iterations =  1.0

     total cpu time spent up to now is        1.1 secs

     total energy              =     -31.94595462 Ry
     Harris-Foulkes estimate   =     -31.94606974 Ry
     estimated scf accuracy    <       0.00622139 Ry

     iteration # 26     ecut=    30.00 Ry     beta=0.70
     Davidson diagonalization with overlap
     ethr =  7.78E-05,  avg # of iterations =  1.0

     total cpu time spent up to now is        1.1 secs

     total energy              =     -31.94599101 Ry
     Harris-Foulkes estimate   =     -31.94599654 Ry
     estimated scf accuracy    <       0.00046670 Ry

     iteration # 27     ecut=    30.00 Ry     beta=0.70
     Davidson diagonalization with overlap
     ethr =  5.83E-06,  avg # of iterations =  1.0

     total cpu time spent up to now is        1.1 secs

     total energy              =     -31.94598921 Ry
     Harris-Foulkes estimate   =     -31.94599256 Ry
     estimated scf accuracy    <       0.00011248 Ry

     iteration # 28     ecut=    30.00 Ry     beta=0.70
     Davidson diagonalization with overlap
     ethr =  1.41E-06,  avg # of iterations =  3.0

     total cpu time spent up to now is        1.2 secs

     total energy              =     -31.94599145 Ry
     Harris-Foulkes estimate   =     -31.94599148 Ry
     estimated scf accuracy    <       0.00000782 Ry

     iteration # 29     ecut=    30.00 Ry     beta=0.70
     Davidson diagonalization with overlap
     ethr =  9.78E-08,  avg # of iterations =  1.0

     total cpu time spent up to now is        1.2 secs

     total energy              =     -31.94599147 Ry
     Harris-Foulkes estimate   =     -31.94599152 Ry
     estimated scf accuracy    <       0.00000034 Ry

     iteration # 30     ecut=    30.00 Ry     beta=0.70
     Davidson diagonalization with overlap
     ethr =  4.26E-09,  avg # of iterations =  1.0

     total cpu time spent up to now is        1.2 secs

     total energy              =     -31.94599148 Ry
     Harris-Foulkes estimate   =     -31.94599147 Ry
     estimated scf accuracy    <       0.00000006 Ry

     iteration # 31     ecut=    30.00 Ry     beta=0.70
     Davidson diagonalization with overlap
     ethr =  6.96E-10,  avg # of iterations =  1.0

     total cpu time spent up to now is        1.3 secs

     End of self-consistent calculation

          k = 0.0000 0.0000 0.0000 ( 22119 PWs)   bands (ev):

   -24.8111 -10.6569  -7.0697  -7.0693  -6.9310  -0.7208   0.2974   0.8389

     the Fermi energy is    -6.8994 ev

!    total energy              =     -31.94599148 Ry
     Harris-Foulkes estimate   =     -31.94599148 Ry
     estimated scf accuracy    <          1.3E-09 Ry

     convergence has been achieved in  31 iterations

     Forces acting on atoms (Ry/au):

     atom    1 type  1   force =     0.00310183    0.01415153   -0.00215005
     atom    2 type  1   force =     0.00002445    0.00015962    0.00022394
     atom    3 type  2   force =    -0.00312628   -0.01431115    0.00192611

     Total force =     0.020806     Total SCF correction =     0.000009

     Molecular Dynamics Calculation

     Starting temperature  =  1000.00 K

     temperature is controlled by Andersen thermostat
     Collision frequency = 1.0000/timestep
     mass H                =     1.01
     mass O                =    16.00
     Time step             =   100.00 a.u.,  4.8378 femto-seconds

     Entering Dynamics:    iteration =     1
                           time      =   0.0048 pico-seconds


     Andersen thermostat:    3 collisions

ATOMIC_POSITIONS (bohr)
H       14.999332619   8.232892960   5.750236158
H        1.212542194  13.167452990   0.299836201
O       14.283075718   5.936211138   6.337871281


     kinetic energy (Ekin) =     0.01319564 Ry
     temperature           =   694.47456190 K 
     Ekin + Etot (const)   =   -31.93279584 Ry

     Linear momentum :   -0.0000000000   -0.0000000000   -0.0000000000

     Writing output data file pwscf.save
     Check: negative starting charge=   -0.351045
     NEW-OLD atomic charge density approx. for the potential
     Check: negative starting charge=   -0.348614

     negative rho (up, down):  9.140E-02 0.000E+00

     total cpu time spent up to now is        1.6 secs

     per-process dynamical memory:    20.4 Mb

     Self-consistent Calculation

     iteration #  1     ecut=    30.00 Ry     beta=0.70
     Davidson diagonalization with overlap
     c_bands:  1 eigenvalues not converged
     ethr =  1.00E-06,  avg # of iterations = 20.0

     negative rho (up, down):  2.193E-02 0.000E+00

     total cpu time spent up to now is        1.7 secs

     total energy              =     -30.58008893 Ry
     Harris-Foulkes estimate   =     -31.84533536 Ry
     estimated scf accuracy    <       1.62151393 Ry

     iteration #  2     ecut=    30.00 Ry     beta=0.70
     Davidson diagonalization with overlap
     ethr =  1.00E-02,  avg # of iterations =  3.0

     negative rho (up, down):  1.637E-02 0.000E+00

     total cpu time spent up to now is        1.7 secs

     total energy              =     -32.25375186 Ry
     Harris-Foulkes estimate   =     -34.40443204 Ry
     estimated scf accuracy    <       5.62284676 Ry

     iteration #  3     ecut=    30.00 Ry     beta=0.70
     Davidson diagonalization with overlap
     ethr =  1.00E-02,  avg # of iterations =  3.0

     negative rho (up, down):  1.389E-02 0.000E+00

     total cpu time spent up to now is        1.8 secs

     total energy              =     -32.19818453 Ry
     Harris-Foulkes estimate   =     -32.50628236 Ry
     estimated scf accuracy    <       1.81624443 Ry

     iteration #  4     ecut=    30.00 Ry     beta=0.70
     Davidson diagonalization with overlap
     ethr =  1.00E-02,  avg # of iterations =  1.0

     negative rho (up, down):  1.091E-02 0.000E+00

     total cpu time spent up to now is        1.8 secs

     total energy              =     -31.86905058 Ry
     Harris-Foulkes estimate   =     -32.19971524 Ry
     estimated scf accuracy    <       1.41992636 Ry

     iteration #  5     ecut=    30.00 Ry     beta=0.70
     Davidson diagonalization with overlap
     ethr =  1.00E-02,  avg # of iterations =  1.0

     negative rho (up, down):  4.669E-03 0.000E+00

     total cpu time spent up to now is        1.8 secs

     total energy              =     -31.85740949 Ry
     Harris-Foulkes estimate   =     -31.87281839 Ry
     estimated scf accuracy    <       0.22858678 Ry

     iteration #  6     ecut=    30.00 Ry     beta=0.70
     Davidson diagonalization with overlap
     ethr =  2.86E-03,  avg # of iterations =  2.0

     negative rho (up, down):  1.881E-04 0.000E+00

     total cpu time spent up to now is        1.9 secs

     total energy              =     -31.87248389 Ry
     Harris-Foulkes estimate   =     -31.90523683 Ry
     estimated scf accuracy    <       1.49061585 Ry

     iteration #  7     ecut=    30.00 Ry     beta=0.70
     Davidson diagonalization with overlap
     ethr =  2.86E-03,  avg # of iterations =  1.0

     negative rho (up, down):  3.074E-06 0.000E+00

     total cpu time spent up to now is        1.9 secs

     total energy              =     -31.88172782 Ry
     Harris-Foulkes estimate   =     -31.88408276 Ry
     estimated scf accuracy    <       0.08112085 Ry

     iteration #  8     ecut=    30.00 Ry     beta=0.70
     Davidson diagonalization with overlap
     ethr =  1.01E-03,  avg # of iterations =  1.0

     negative rho (up, down):  9.397E-07 0.000E+00

     total cpu time spent up to now is        1.9 secs

     total energy              =     -31.88269065 Ry
     Harris-Foulkes estimate   =     -31.88312227 Ry
     estimated scf accuracy    <       0.00239980 Ry

     iteration #  9     ecut=    30.00 Ry     beta=0.70
     Davidson diagonalization with overlap
     ethr =  3.00E-05,  avg # of iterations =  9.0

     negative rho (up, down):  1.460E-08 0.000E+00

     total cpu time spent up to now is        2.0 secs

     total energy              =     -31.87771163 Ry
     Harris-Foulkes estimate   =     -31.88446957 Ry
     estimated scf accuracy    <       0.11157462 Ry

     iteration # 10     ecut=    30.00 Ry     beta=0.70
     Davidson diagonalization with overlap
     ethr =  3.00E-05,  avg # of iterations =  1.0

     total cpu time spent up to now is        2.0 secs

     total energy              =     -31.88113694 Ry
     Harris-Foulkes estimate   =     -31.88590790 Ry
     estimated scf accuracy    <       0.19221930 Ry

     iteration # 11     ecut=    30.00 Ry     beta=0.70
     Davidson diagonalization with overlap
     ethr =  3.00E-05,  avg # of iterations =  1.0

     total cpu time spent up to now is        2.0 secs

     total energy              =     -31.88311525 Ry
     Harris-Foulkes estimate   =     -31.88312948 Ry
     estimated scf accuracy    <       0.00292501 Ry

     iteration # 12     ecut=    30.00 Ry     beta=0.70
     Davidson diagonalization with overlap
     ethr =  3.00E-05,  avg # of iterations =  1.0

     total cpu time spent up to now is        2.1 secs

     total energy              =     -31.88308448 Ry
     Harris-Foulkes estimate   =     -31.88311715 Ry
     estimated scf accuracy    <       0.00189903 Ry

     iteration # 13     ecut=    30.00 Ry     beta=0.70
     Davidson diagonalization with overlap
     ethr =  2.37E-05,  avg # of iterations =  1.0

     total cpu time spent up to now is        2.1 secs

     total energy              =     -31.88309086 Ry
     Harris-Foulkes estimate   =     -31.88309549 Ry
     estimated scf accuracy    <       0.00019999 Ry

     iteration # 14     ecut=    30.00 Ry     beta=0.70
     Davidson diagonalization with overlap
     ethr =  2.50E-06,  avg # of iterations =  1.0

     total cpu time spent up to now is        2.2 secs

     total energy              =     -31.88309313 Ry
     Harris-Foulkes estimate   =     -31.88309306 Ry
     estimated scf accuracy    <       0.00000096 Ry

     iteration # 15     ecut=    30.00 Ry     beta=0.70
     Davidson diagonalization with overlap
     ethr =  1.20E-08,  avg # of iterations =  1.0

     total cpu time spent up to now is        2.2 secs

     total energy              =     -31.88309321 Ry
     Harris-Foulkes estimate   =     -31.88309313 Ry
     estimated scf accuracy    <       0.00000100 Ry

     iteration # 16     ecut=    30.00 Ry     beta=0.70
     Davidson diagonalization with overlap
     ethr =  1.20E-08,  avg # of iterations =  1.0

     total cpu time spent up to now is        2.2 secs

     total energy              =     -31.88309309 Ry
     Harris-Foulkes estimate   =     -31.88309325 Ry
     estimated scf accuracy    <       0.00000061 Ry

     iteration # 17     ecut=    30.00 Ry     beta=0.70
     Davidson diagonalization with overlap
     ethr =  7.60E-09,  avg # of iterations =  1.0

     total cpu time spent up to now is        2.3 secs

     total energy              =     -31.88309298 Ry
     Harris-Foulkes estimate   =     -31.88309311 Ry
     estimated scf accuracy    <       0.00000023 Ry

     iteration # 18     ecut=    30.00 Ry     beta=0.70
     Davidson diagonalization with overlap
     ethr =  2.89E-09,  avg # of iterations =  1.0

     total cpu time spent up to now is        2.3 secs

     total energy              =     -31.88309295 Ry
     Harris-Foulkes estimate   =     -31.88309298 Ry
     estimated scf accuracy    <       0.00000004 Ry

     iteration # 19     ecut=    30.00 Ry     beta=0.70
     Davidson diagonalization with overlap
     ethr =  5.54E-10,  avg # of iterations =  1.0

     total cpu time spent up to now is        2.3 secs

     total energy              =     -31.88309296 Ry
     Harris-Foulkes estimate   =     -31.88309295 Ry
     estimated scf accuracy    <       0.00000001 Ry

     iteration # 20     ecut=    30.00 Ry     beta=0.70
     Davidson diagonalization with overlap
     ethr =  1.36E-10,  avg # of iterations =  1.0

     total cpu time spent up to now is        2.3 secs

     End of self-consistent calculation

          k = 0.0000 0.0000 0.0000 ( 22119 PWs)   bands (ev):

   -24.0127  -9.8703  -6.9899  -6.9894  -6.8549  -1.8482   0.0396   0.8459

     the Fermi energy is    -6.8209 ev

!    total energy              =     -31.88309296 Ry
     Harris-Foulkes estimate   =     -31.88309296 Ry
     estimated scf accuracy    <          9.8E-13 Ry

     convergence has been achieved in  20 iterations

     Forces acting on atoms (Ry/au):

     atom    1 type  1   force =    -0.05662045   -0.17981930    0.04673224
     atom    2 type  1   force =    -0.00009820   -0.00002106    0.00023578
     atom    3 type  2   force =     0.05671864    0.17984036   -0.04696801

     Total force =     0.274755     Total SCF correction =     0.000003

     Entering Dynamics:    iteration =     2
                           time      =   0.0097 pico-seconds


     Andersen thermostat:    3 collisions

ATOMIC_POSITIONS (bohr)
H       14.436680173   6.455671417   6.403017659
H        1.274731927  13.013373565   0.478638640
O       14.314667427   6.058124511   6.285377545


     kinetic energy (Ekin) =     0.04916812 Ry
     temperature           =  2587.67438153 K 
     Ekin + Etot (const)   =   -31.83392484 Ry
     Message from routine dynamics:
     Total linear momentum <> 0

     Linear momentum :   -0.0482643422    0.4839037204    0.0463385468

     Writing output data file pwscf.save

     first order wave-functions extrapolation
     Check: negative starting charge=   -0.348614
     first order charge density extrapolation
     Check: negative starting charge=   -0.359065

     negative rho (up, down):  4.990E-01 0.000E+00

     total cpu time spent up to now is        2.7 secs

     per-process dynamical memory:    20.4 Mb

     Self-consistent Calculation

     iteration #  1     ecut=    30.00 Ry     beta=0.70
     Davidson diagonalization with overlap
     c_bands:  2 eigenvalues not converged
     ethr =  1.00E-06,  avg # of iterations = 20.0

     negative rho (up, down):  1.426E-01 0.000E+00

     total cpu time spent up to now is        2.8 secs

     total energy              =     -15.41316382 Ry
     Harris-Foulkes estimate   =     -18.31187439 Ry
     estimated scf accuracy    <       3.16345774 Ry

     iteration #  2     ecut=    30.00 Ry     beta=0.70
     Davidson diagonalization with overlap
     ethr =  1.00E-02,  avg # of iterations =  3.0

     negative rho (up, down):  5.337E-02 0.000E+00

     total cpu time spent up to now is        2.8 secs

     total energy              =     -12.74035642 Ry
     Harris-Foulkes estimate   =     -20.25770700 Ry
     estimated scf accuracy    <      25.05631038 Ry

     iteration #  3     ecut=    30.00 Ry     beta=0.70
     Davidson diagonalization with overlap
     ethr =  1.00E-02,  avg # of iterations =  6.0

     negative rho (up, down):  4.435E-02 0.000E+00

     total cpu time spent up to now is        2.9 secs

     total energy              =     -16.35727851 Ry
     Harris-Foulkes estimate   =     -16.65417131 Ry
     estimated scf accuracy    <       1.51398468 Ry

     iteration #  4     ecut=    30.00 Ry     beta=0.70
     Davidson diagonalization with overlap
     ethr =  1.00E-02,  avg # of iterations =  1.0

     negative rho (up, down):  2.562E-01 0.000E+00

     total cpu time spent up to now is        2.9 secs

     total energy              =     -15.90501406 Ry
     Harris-Foulkes estimate   =     -16.40037932 Ry
     estimated scf accuracy    <       0.99136691 Ry

     iteration #  5     ecut=    30.00 Ry     beta=0.70
     Davidson diagonalization with overlap
     ethr =  1.00E-02,  avg # of iterations =  5.0

     negative rho (up, down):  5.773E-03 0.000E+00

     total cpu time spent up to now is        2.9 secs

     total energy              =     -17.53831600 Ry
     Harris-Foulkes estimate   =     -18.06233782 Ry
     estimated scf accuracy    <       2.61597701 Ry

     iteration #  6     ecut=    30.00 Ry     beta=0.70
     Davidson diagonalization with overlap
     ethr =  1.00E-02,  avg # of iterations =  1.0

     negative rho (up, down):  1.231E-01 0.000E+00

     total cpu time spent up to now is        3.0 secs

     total energy              =     -17.97891379 Ry
     Harris-Foulkes estimate   =     -17.54275716 Ry
     estimated scf accuracy    <       1.79207420 Ry

     iteration #  7     ecut=    30.00 Ry     beta=0.70
     Davidson diagonalization with overlap
     ethr =  1.00E-02,  avg # of iterations =  1.0

     negative rho (up, down):  2.255E-01 0.000E+00

     total cpu time spent up to now is        3.0 secs

     total energy              =     -18.60628132 Ry
     Harris-Foulkes estimate   =     -17.98156146 Ry
     estimated scf accuracy    <       2.44703156 Ry

     iteration #  8     ecut=    30.00 Ry     beta=0.70
     Davidson diagonalization with overlap
     ethr =  1.00E-02,  avg # of iterations =  1.0

     negative rho (up, down):  2.139E-01 0.000E+00

     total cpu time spent up to now is        3.0 secs

     total energy              =     -18.48195282 Ry
     Harris-Foulkes estimate   =     -18.61081990 Ry
     estimated scf accuracy    <       3.35101859 Ry

     iteration #  9     ecut=    30.00 Ry     beta=0.70
     Davidson diagonalization with overlap
     ethr =  1.00E-02,  avg # of iterations =  1.0

     negative rho (up, down):  2.486E-01 0.000E+00

     total cpu time spent up to now is        3.1 secs

     total energy              =     -18.77040176 Ry
     Harris-Foulkes estimate   =     -18.48216507 Ry
     estimated scf accuracy    <       3.17608203 Ry

     iteration # 10     ecut=    30.00 Ry     beta=0.70
     Davidson diagonalization with overlap
     ethr =  1.00E-02,  avg # of iterations =  1.0

     negative rho (up, down):  2.693E-01 0.000E+00

     total cpu time spent up to now is        3.1 secs

     total energy              =     -17.14137876 Ry
     Harris-Foulkes estimate   =     -18.77070977 Ry
     estimated scf accuracy    <       3.51510925 Ry

     iteration # 11     ecut=    30.00 Ry     beta=0.70
     Davidson diagonalization with overlap
     ethr =  1.00E-02,  avg # of iterations =  3.0

     negative rho (up, down):  1.153E-03 0.000E+00

     total cpu time spent up to now is        3.1 secs

     total energy              =     -16.59751076 Ry
     Harris-Foulkes estimate   =     -17.19923707 Ry
     estimated scf accuracy    <       1.24456387 Ry

     iteration # 12     ecut=    30.00 Ry     beta=0.70
     Davidson diagonalization with overlap
     ethr =  1.00E-02,  avg # of iterations =  2.0

     negative rho (up, down):  1.529E-03 0.000E+00

     total cpu time spent up to now is        3.2 secs

     total energy              =     -17.36984088 Ry
     Harris-Foulkes estimate   =     -17.35297045 Ry
     estimated scf accuracy    <       2.48418896 Ry

     iteration # 13     ecut=    30.00 Ry     beta=0.70
     Davidson diagonalization with overlap
     ethr =  1.00E-02,  avg # of iterations =  1.0

     negative rho (up, down):  2.466E-06 0.000E+00

     total cpu time spent up to now is        3.2 secs

     total energy              =     -18.57519654 Ry
     Harris-Foulkes estimate   =     -17.37055214 Ry
     estimated scf accuracy    <       2.51174281 Ry

     iteration # 14     ecut=    30.00 Ry     beta=0.70
     Davidson diagonalization with overlap
     ethr =  1.00E-02,  avg # of iterations =  4.0

     negative rho (up, down):  6.838E-07 0.000E+00

     total cpu time spent up to now is        3.2 secs

     total energy              =     -18.79543185 Ry
     Harris-Foulkes estimate   =     -18.94083062 Ry
     estimated scf accuracy    <      12.42076912 Ry

     iteration # 15     ecut=    30.00 Ry     beta=0.70
     Davidson diagonalization with overlap
     ethr =  1.00E-02,  avg # of iterations =  1.0

     negative rho (up, down):  5.571E-08 0.000E+00

     total cpu time spent up to now is        3.3 secs

     total energy              =     -18.76679864 Ry
     Harris-Foulkes estimate   =     -18.80302217 Ry
     estimated scf accuracy    <      12.56385389 Ry

     iteration # 16     ecut=    30.00 Ry     beta=0.70
     Davidson diagonalization with overlap
     ethr =  1.00E-02,  avg # of iterations =  1.0

     negative rho (up, down):  4.196E-07 0.000E+00

     total cpu time spent up to now is        3.3 secs

     total energy              =     -18.72985831 Ry
     Harris-Foulkes estimate   =     -18.76952215 Ry
     estimated scf accuracy    <      12.55993758 Ry

     iteration # 17     ecut=    30.00 Ry     beta=0.70
     Davidson diagonalization with overlap
     ethr =  1.00E-02,  avg # of iterations =  1.0

     negative rho (up, down):  6.260E-02 0.000E+00

     total cpu time spent up to now is        3.3 secs

     total energy              =     -18.85221809 Ry
     Harris-Foulkes estimate   =     -18.73144880 Ry
     estimated scf accuracy    <      12.50282467 Ry

     iteration # 18     ecut=    30.00 Ry     beta=0.70
     Davidson diagonalization with overlap
     ethr =  1.00E-02,  avg # of iterations =  1.0

     negative rho (up, down):  6.319E-01 0.000E+00

     total cpu time spent up to now is        3.4 secs

     total energy              =     -21.61790130 Ry
     Harris-Foulkes estimate   =     -18.87422814 Ry
     estimated scf accuracy    <      11.79337407 Ry

     iteration # 19     ecut=    30.00 Ry     beta=0.70
     Davidson diagonalization with overlap
     ethr =  1.00E-02,  avg # of iterations =  3.0

     negative rho (up, down):  1.486E-01 0.000E+00

     total cpu time spent up to now is        3.4 secs

     total energy              =     -12.44870000 Ry
     Harris-Foulkes estimate   =     -22.83224672 Ry
     estimated scf accuracy    <      32.05194288 Ry

     iteration # 20     ecut=    30.00 Ry     beta=0.70
     Davidson diagonalization with overlap
     ethr =  1.00E-02,  avg # of iterations =  6.0

     negative rho (up, down):  7.175E-01 0.000E+00

     total cpu time spent up to now is        3.5 secs

     total energy              =     -12.88547569 Ry
     Harris-Foulkes estimate   =     -15.13861765 Ry
     estimated scf accuracy    <       5.62095762 Ry

     iteration # 21     ecut=    30.00 Ry     beta=0.70
     Davidson diagonalization with overlap
     ethr =  1.00E-02,  avg # of iterations =  6.0

     negative rho (up, down):  1.209E-01 0.000E+00

     total cpu time spent up to now is        3.5 secs

     total energy              =     -17.55817866 Ry
     Harris-Foulkes estimate   =     -19.28460053 Ry
     estimated scf accuracy    <       4.40501830 Ry

     iteration # 22     ecut=    30.00 Ry     beta=0.70
     Davidson diagonalization with overlap
     ethr =  1.00E-02,  avg # of iterations =  3.0

     negative rho (up, down):  5.901E-02 0.000E+00

     total cpu time spent up to now is        3.6 secs

     total energy              =     -16.48969722 Ry
     Harris-Foulkes estimate   =     -17.61709964 Ry
     estimated scf accuracy    <       1.93118583 Ry

     iteration # 23     ecut=    30.00 Ry     beta=0.70
     Davidson diagonalization with overlap
     ethr =  1.00E-02,  avg # of iterations =  2.0

     negative rho (up, down):  3.130E-03 0.000E+00

     total cpu time spent up to now is        3.6 secs

     total energy              =     -16.83400471 Ry
     Harris-Foulkes estimate   =     -17.39616526 Ry
     estimated scf accuracy    <       2.44518011 Ry

     iteration # 24     ecut=    30.00 Ry     beta=0.70
     Davidson diagonalization with overlap
     ethr =  1.00E-02,  avg # of iterations =  1.0

     negative rho (up, down):  1.098E-02 0.000E+00

     total cpu time spent up to now is        3.6 secs

     total energy              =     -16.86491419 Ry
     Harris-Foulkes estimate   =     -16.86815196 Ry
     estimated scf accuracy    <       0.00956173 Ry

     iteration # 25     ecut=    30.00 Ry     beta=0.70
     Davidson diagonalization with overlap
     ethr =  1.20E-04,  avg # of iterations =  8.0

     negative rho (up, down):  2.194E-05 0.000E+00

     total cpu time spent up to now is        3.7 secs

     total energy              =     -16.84940762 Ry
     Harris-Foulkes estimate   =     -16.86787961 Ry
     estimated scf accuracy    <       0.06431256 Ry

     iteration # 26     ecut=    30.00 Ry     beta=0.70
     Davidson diagonalization with overlap
     ethr =  1.20E-04,  avg # of iterations =  4.0

     negative rho (up, down):  1.973E-03 0.000E+00

     total cpu time spent up to now is        3.7 secs

     total energy              =     -16.79301541 Ry
     Harris-Foulkes estimate   =     -16.93711987 Ry
     estimated scf accuracy    <       0.89259124 Ry

     iteration # 27     ecut=    30.00 Ry     beta=0.70
     Davidson diagonalization with overlap
     ethr =  1.20E-04,  avg # of iterations =  4.0

     negative rho (up, down):  8.160E-03 0.000E+00

     total cpu time spent up to now is        3.8 secs

     total energy              =     -16.71571756 Ry
     Harris-Foulkes estimate   =     -16.94301281 Ry
     estimated scf accuracy    <       1.65018571 Ry

     iteration # 28     ecut=    30.00 Ry     beta=0.70
     Davidson diagonalization with overlap
     ethr =  1.20E-04,  avg # of iterations =  4.0

     negative rho (up, down):  3.227E-04 0.000E+00

     total cpu time spent up to now is        3.8 secs

     total energy              =     -16.78934592 Ry
     Harris-Foulkes estimate   =     -16.95798414 Ry
     estimated scf accuracy    <       0.93525883 Ry

     iteration # 29     ecut=    30.00 Ry     beta=0.70
     Davidson diagonalization with overlap
     ethr =  1.20E-04,  avg # of iterations =  4.0

     negative rho (up, down):  4.259E-03 0.000E+00

     total cpu time spent up to now is        3.9 secs

     total energy              =     -17.15214230 Ry
     Harris-Foulkes estimate   =     -16.94974259 Ry
     estimated scf accuracy    <       1.64399142 Ry

     iteration # 30     ecut=    30.00 Ry     beta=0.70
     Davidson diagonalization with overlap
     ethr =  1.20E-04,  avg # of iterations =  4.0

     negative rho (up, down):  9.113E-03 0.000E+00

     total cpu time spent up to now is        3.9 secs

     total energy              =     -17.29099622 Ry
     Harris-Foulkes estimate   =     -17.15316267 Ry
     estimated scf accuracy    <       1.95035014 Ry

     iteration # 31     ecut=    30.00 Ry     beta=0.70
     Davidson diagonalization with overlap
     ethr =  1.20E-04,  avg # of iterations =  2.0

     negative rho (up, down):  2.939E-03 0.000E+00

     total cpu time spent up to now is        3.9 secs

     total energy              =     -17.16369477 Ry
     Harris-Foulkes estimate   =     -17.29379988 Ry
     estimated scf accuracy    <       2.18126379 Ry

     iteration # 32     ecut=    30.00 Ry     beta=0.70
     Davidson diagonalization with overlap
     ethr =  1.20E-04,  avg # of iterations =  2.0

     negative rho (up, down):  2.015E-03 0.000E+00

     total cpu time spent up to now is        4.0 secs

     total energy              =     -17.14208358 Ry
     Harris-Foulkes estimate   =     -17.16491585 Ry
     estimated scf accuracy    <       1.96256233 Ry

     iteration # 33     ecut=    30.00 Ry     beta=0.70
     Davidson diagonalization with overlap
     ethr =  1.20E-04,  avg # of iterations =  2.0

     negative rho (up, down):  1.733E-03 0.000E+00

     total cpu time spent up to now is        4.0 secs

     total energy              =     -17.11937623 Ry
     Harris-Foulkes estimate   =     -17.14213946 Ry
     estimated scf accuracy    <       1.92444383 Ry

     iteration # 34     ecut=    30.00 Ry     beta=0.70
     Davidson diagonalization with overlap
     ethr =  1.20E-04,  avg # of iterations =  1.0

     negative rho (up, down):  1.384E-03 0.000E+00

     total cpu time spent up to now is        4.0 secs

     total energy              =     -17.12139095 Ry
     Harris-Foulkes estimate   =     -17.11942109 Ry
     estimated scf accuracy    <       1.88542543 Ry

     iteration # 35     ecut=    30.00 Ry     beta=0.70
     Davidson diagonalization with overlap
     ethr =  1.20E-04,  avg # of iterations =  1.0

     negative rho (up, down):  3.547E-03 0.000E+00

     total cpu time spent up to now is        4.1 secs

     total energy              =     -17.03299353 Ry
     Harris-Foulkes estimate   =     -17.12139281 Ry
     estimated scf accuracy    <       1.88817010 Ry

     iteration # 36     ecut=    30.00 Ry     beta=0.70
     Davidson diagonalization with overlap
     ethr =  1.20E-04,  avg # of iterations =  2.0

     negative rho (up, down):  1.786E-03 0.000E+00

     total cpu time spent up to now is        4.1 secs

     total energy              =     -17.05881144 Ry
     Harris-Foulkes estimate   =     -17.03346671 Ry
     estimated scf accuracy    <       1.74575740 Ry

     iteration # 37     ecut=    30.00 Ry     beta=0.70
     Davidson diagonalization with overlap
     ethr =  1.20E-04,  avg # of iterations =  2.0

     negative rho (up, down):  5.590E-02 0.000E+00

     total cpu time spent up to now is        4.1 secs

     total energy              =     -15.66285634 Ry
     Harris-Foulkes estimate   =     -17.05888241 Ry
     estimated scf accuracy    <       1.78261612 Ry

     iteration # 38     ecut=    30.00 Ry     beta=0.70
     Davidson diagonalization with overlap
     ethr =  1.20E-04,  avg # of iterations = 10.0

     negative rho (up, down):  4.816E-03 0.000E+00

     total cpu time spent up to now is        4.2 secs

     total energy              =     -17.93559253 Ry
     Harris-Foulkes estimate   =     -19.03555017 Ry
     estimated scf accuracy    <       3.77489207 Ry

     iteration # 39     ecut=    30.00 Ry     beta=0.70
     Davidson diagonalization with overlap
     ethr =  1.20E-04,  avg # of iterations =  7.0

     negative rho (up, down):  6.938E-04 0.000E+00

     total cpu time spent up to now is        4.2 secs

     total energy              =     -16.89763743 Ry
     Harris-Foulkes estimate   =     -17.95251462 Ry
     estimated scf accuracy    <       2.30439915 Ry

     iteration # 40     ecut=    30.00 Ry     beta=0.70
     Davidson diagonalization with overlap
     ethr =  1.20E-04,  avg # of iterations = 12.0

     negative rho (up, down):  6.557E-07 0.000E+00

     total cpu time spent up to now is        4.3 secs

     total energy              =     -16.96620261 Ry
     Harris-Foulkes estimate   =     -16.92825289 Ry
     estimated scf accuracy    <       0.84844056 Ry

     iteration # 41     ecut=    30.00 Ry     beta=0.70
     Davidson diagonalization with overlap
     ethr =  1.20E-04,  avg # of iterations =  1.0

     total cpu time spent up to now is        4.3 secs

     total energy              =     -16.88851093 Ry
     Harris-Foulkes estimate   =     -16.96661119 Ry
     estimated scf accuracy    <       0.91412555 Ry

     iteration # 42     ecut=    30.00 Ry     beta=0.70
     Davidson diagonalization with overlap
     ethr =  1.20E-04,  avg # of iterations =  1.0

     negative rho (up, down):  2.624E-07 0.000E+00

     total cpu time spent up to now is        4.4 secs

     total energy              =     -16.87624949 Ry
     Harris-Foulkes estimate   =     -16.88907492 Ry
     estimated scf accuracy    <       0.73711598 Ry

     iteration # 43     ecut=    30.00 Ry     beta=0.70
     Davidson diagonalization with overlap
     ethr =  1.20E-04,  avg # of iterations =  1.0

     total cpu time spent up to now is        4.4 secs

     total energy              =     -16.83320325 Ry
     Harris-Foulkes estimate   =     -16.87733024 Ry
     estimated scf accuracy    <       0.45287533 Ry

     iteration # 44     ecut=    30.00 Ry     beta=0.70
     Davidson diagonalization with overlap
     ethr =  1.20E-04,  avg # of iterations =  3.0

     total cpu time spent up to now is        4.4 secs

     total energy              =     -16.86163709 Ry
     Harris-Foulkes estimate   =     -16.90940579 Ry
     estimated scf accuracy    <       1.99834990 Ry

     iteration # 45     ecut=    30.00 Ry     beta=0.70
     Davidson diagonalization with overlap
     ethr =  1.20E-04,  avg # of iterations =  1.0

     total cpu time spent up to now is        4.5 secs

     total energy              =     -16.85003370 Ry
     Harris-Foulkes estimate   =     -16.87205907 Ry
     estimated scf accuracy    <       0.25677427 Ry

     iteration # 46     ecut=    30.00 Ry     beta=0.70
     Davidson diagonalization with overlap
     ethr =  1.20E-04,  avg # of iterations =  1.0

     total cpu time spent up to now is        4.5 secs

     total energy              =     -16.82751633 Ry
     Harris-Foulkes estimate   =     -16.88574639 Ry
     estimated scf accuracy    <       0.68857055 Ry

     iteration # 47     ecut=    30.00 Ry     beta=0.70
     Davidson diagonalization with overlap
     ethr =  1.20E-04,  avg # of iterations =  2.0

     negative rho (up, down):  1.966E-08 0.000E+00

     total cpu time spent up to now is        4.5 secs

     total energy              =     -16.83604652 Ry
     Harris-Foulkes estimate   =     -16.90013880 Ry
     estimated scf accuracy    <       1.92144600 Ry

     iteration # 48     ecut=    30.00 Ry     beta=0.70
     Davidson diagonalization with overlap
     ethr =  1.20E-04,  avg # of iterations =  1.0

     negative rho (up, down):  1.852E-08 0.000E+00

     total cpu time spent up to now is        4.6 secs

     total energy              =     -16.86831726 Ry
     Harris-Foulkes estimate   =     -16.87017621 Ry
     estimated scf accuracy    <       0.07820721 Ry

     iteration # 49     ecut=    30.00 Ry     beta=0.70
     Davidson diagonalization with overlap
     ethr =  1.20E-04,  avg # of iterations =  1.0

     total cpu time spent up to now is        4.6 secs

     total energy              =     -16.86915426 Ry
     Harris-Foulkes estimate   =     -16.86912107 Ry
     estimated scf accuracy    <       0.00091232 Ry

     iteration # 50     ecut=    30.00 Ry     beta=0.70
     Davidson diagonalization with overlap
     ethr =  1.14E-05,  avg # of iterations =  1.0

     total cpu time spent up to now is        4.6 secs

     total energy              =     -16.86945858 Ry
     Harris-Foulkes estimate   =     -16.86917643 Ry
     estimated scf accuracy    <       0.00522062 Ry

     iteration # 51     ecut=    30.00 Ry     beta=0.70
     Davidson diagonalization with overlap
     ethr =  1.14E-05,  avg # of iterations =  1.0

     total cpu time spent up to now is        4.7 secs

     total energy              =     -16.86809085 Ry
     Harris-Foulkes estimate   =     -16.86973672 Ry
     estimated scf accuracy    <       0.04727050 Ry

     iteration # 52     ecut=    30.00 Ry     beta=0.70
     Davidson diagonalization with overlap
     ethr =  1.14E-05,  avg # of iterations =  1.0

     total cpu time spent up to now is        4.7 secs

     total energy              =     -16.86910941 Ry
     Harris-Foulkes estimate   =     -16.86919495 Ry
     estimated scf accuracy    <       0.00679224 Ry

     iteration # 53     ecut=    30.00 Ry     beta=0.70
     Davidson diagonalization with overlap
     ethr =  1.14E-05,  avg # of iterations =  1.0

     total cpu time spent up to now is        4.7 secs

     total energy              =     -16.86907307 Ry
     Harris-Foulkes estimate   =     -16.86913267 Ry
     estimated scf accuracy    <       0.00148324 Ry

     iteration # 54     ecut=    30.00 Ry     beta=0.70
     Davidson diagonalization with overlap
     ethr =  1.14E-05,  avg # of iterations =  1.0

     total cpu time spent up to now is        4.8 secs

     total energy              =     -16.86911208 Ry
     Harris-Foulkes estimate   =     -16.86912251 Ry
     estimated scf accuracy    <       0.00063648 Ry

     iteration # 55     ecut=    30.00 Ry     beta=0.70
     Davidson diagonalization with overlap
     ethr =  7.96E-06,  avg # of iterations =  1.0

     total cpu time spent up to now is        4.8 secs

     total energy              =     -16.86911378 Ry
     Harris-Foulkes estimate   =     -16.86911457 Ry
     estimated scf accuracy    <       0.00012247 Ry

     iteration # 56     ecut=    30.00 Ry     beta=0.70
     Davidson diagonalization with overlap
     ethr =  1.53E-06,  avg # of iterations =  1.0

     total cpu time spent up to now is        4.8 secs

     total energy              =     -16.86911109 Ry
     Harris-Foulkes estimate   =     -16.86911386 Ry
     estimated scf accuracy    <       0.00007431 Ry

     iteration # 57     ecut=    30.00 Ry     beta=0.70
     Davidson diagonalization with overlap
     ethr =  9.29E-07,  avg # of iterations =  1.0

     total cpu time spent up to now is        4.9 secs

     total energy              =     -16.86911203 Ry
     Harris-Foulkes estimate   =     -16.86911185 Ry
     estimated scf accuracy    <       0.00000092 Ry

     iteration # 58     ecut=    30.00 Ry     beta=0.70
     Davidson diagonalization with overlap
     ethr =  1.15E-08,  avg # of iterations =  1.0

     total cpu time spent up to now is        4.9 secs

     total energy              =     -16.86911198 Ry
     Harris-Foulkes estimate   =     -16.86911203 Ry
     estimated scf accuracy    <       0.00000119 Ry

     iteration # 59     ecut=    30.00 Ry     beta=0.70
     Davidson diagonalization with overlap
     ethr =  1.15E-08,  avg # of iterations =  1.0

     total cpu time spent up to now is        4.9 secs

     total energy              =     -16.86911198 Ry
     Harris-Foulkes estimate   =     -16.86911200 Ry
     estimated scf accuracy    <       0.00000002 Ry

     iteration # 60     ecut=    30.00 Ry     beta=0.70
     Davidson diagonalization with overlap
     ethr =  2.87E-10,  avg # of iterations =  1.0

     total cpu time spent up to now is        5.0 secs

     End of self-consistent calculation

          k = 0.0000 0.0000 0.0000 ( 22119 PWs)   bands (ev):

   -29.8699 -10.5258  -7.9164  -7.9163  -7.7437  -0.2950   0.5470   0.7149

     the Fermi energy is    -7.7347 ev

!    total energy              =     -16.86911196 Ry
     Harris-Foulkes estimate   =     -16.86911198 Ry
     estimated scf accuracy    <          4.7E-09 Ry

     convergence has been achieved in  60 iterations

     Forces acting on atoms (Ry/au):

     atom    1 type  1   force =    17.89051896   58.29469774   17.25117788
     atom    2 type  1   force =    -0.00013608    0.00071115    0.00013430
     atom    3 type  2   force =   -17.89038288  -58.29540888  -17.25131218

     Total force =    89.621280     Total SCF correction =     0.000023

     Entering Dynamics:    iteration =     3
                           time      =   0.0145 pico-seconds


     Andersen thermostat:    3 collisions

ATOMIC_POSITIONS (bohr)
H      209.002436783 639.426417984 193.890467344
H        1.416610846  13.093655785   0.819047744
O        2.023747934 -33.903221681  -5.571256041


     kinetic energy (Ekin) =  5791.94623602 Ry
     temperature           = ************** K 
     Ekin + Etot (const)   =  5775.07712406 Ry
     Message from routine dynamics:
     Total linear momentum <> 0

     Linear momentum :    0.3047675616   -0.3500624036   -0.1369358232

     Writing output data file pwscf.save

     second order wave-functions extrapolation
     Check: negative starting charge=   -0.359065
     second order charge density extrapolation
     Check: negative starting charge=   -0.346533

     negative rho (up, down):  2.884E+02 0.000E+00

     total cpu time spent up to now is        5.3 secs

     per-process dynamical memory:    20.4 Mb

     Self-consistent Calculation

     iteration #  1     ecut=    30.00 Ry     beta=0.70
     Davidson diagonalization with overlap
     c_bands:  3 eigenvalues not converged
     ethr =  1.00E-06,  avg # of iterations = 20.0

     negative rho (up, down):  8.557E+01 0.000E+00

     total cpu time spent up to now is        5.5 secs

     total energy              =   -2581.36696961 Ry
     Harris-Foulkes estimate   = -144013.99782945 Ry
     estimated scf accuracy    <   23977.92499141 Ry

     iteration #  2     ecut=    30.00 Ry     beta=0.70
     Davidson diagonalization with overlap
     ethr =  1.00E-02,  avg # of iterations = 20.0

     negative rho (up, down):  3.284E-01 0.000E+00

     total cpu time spent up to now is        5.6 secs

     total energy              =     154.08791139 Ry
     Harris-Foulkes estimate   =  -26958.95911705 Ry
     estimated scf accuracy    <    2175.73655749 Ry

     iteration #  3     ecut=    30.00 Ry     beta=0.70
     Davidson diagonalization with overlap
     ethr =  1.00E-02,  avg # of iterations = 15.0

     negative rho (up, down):  6.636E-01 0.000E+00

     total cpu time spent up to now is        5.6 secs

     total energy              =     179.09210241 Ry
     Harris-Foulkes estimate   =    -352.97888377 Ry
     estimated scf accuracy    <      51.32393925 Ry

     iteration #  4     ecut=    30.00 Ry     beta=0.70
     Davidson diagonalization with overlap
     ethr =  1.00E-02,  avg # of iterations =  9.0

     negative rho (up, down):  1.311E-01 0.000E+00

     total cpu time spent up to now is        5.7 secs

     total energy              =     119.22071668 Ry
     Harris-Foulkes estimate   =    -416.88269693 Ry
     estimated scf accuracy    <      35.41715572 Ry

     iteration #  5     ecut=    30.00 Ry     beta=0.70
     Davidson diagonalization with overlap
     ethr =  1.00E-02,  avg # of iterations = 11.0

     negative rho (up, down):  1.844E-02 0.000E+00

     total cpu time spent up to now is        5.8 secs

     total energy              =     -51.79105557 Ry
     Harris-Foulkes estimate   =     -95.65816310 Ry
     estimated scf accuracy    <      61.76841424 Ry

     iteration #  6     ecut=    30.00 Ry     beta=0.70
     Davidson diagonalization with overlap
     ethr =  1.00E-02,  avg # of iterations = 14.0

     negative rho (up, down):  1.097E-02 0.000E+00

     total cpu time spent up to now is        5.8 secs

     total energy              =     -37.34671549 Ry
     Harris-Foulkes estimate   =     -84.64468023 Ry
     estimated scf accuracy    <      46.26967120 Ry

     iteration #  7     ecut=    30.00 Ry     beta=0.70
     Davidson diagonalization with overlap
     ethr =  1.00E-02,  avg # of iterations =  4.0

     negative rho (up, down):  8.151E-03 0.000E+00

     total cpu time spent up to now is        5.9 secs

     total energy              =     -80.04379786 Ry
     Harris-Foulkes estimate   =     -79.12847977 Ry
     estimated scf accuracy    <      64.70476422 Ry

     iteration #  8     ecut=    30.00 Ry     beta=0.70
     Davidson diagonalization with overlap
     ethr =  1.00E-02,  avg # of iterations =  1.0

     negative rho (up, down):  1.113E+01 0.000E+00

     total cpu time spent up to now is        5.9 secs

     total energy              =    -167.91483083 Ry
     Harris-Foulkes estimate   =     -80.04462592 Ry
     estimated scf accuracy    <      66.05370046 Ry

     iteration #  9     ecut=    30.00 Ry     beta=0.70
     Davidson diagonalization with overlap
     ethr =  1.00E-02,  avg # of iterations = 16.0

     negative rho (up, down):  1.110E+01 0.000E+00

     total cpu time spent up to now is        6.0 secs

     total energy              =    -919.34074115 Ry
     Harris-Foulkes estimate   =   -2984.34894215 Ry
     estimated scf accuracy    <     343.75124106 Ry

     iteration # 10     ecut=    30.00 Ry     beta=0.70
     Davidson diagonalization with overlap
     ethr =  1.00E-02,  avg # of iterations =  8.0

     negative rho (up, down):  1.491E+01 0.000E+00

     total cpu time spent up to now is        6.0 secs

     total energy              =   -2490.44506705 Ry
     Harris-Foulkes estimate   =   -1645.48992173 Ry
     estimated scf accuracy    <     359.02339995 Ry

     iteration # 11     ecut=    30.00 Ry     beta=0.70
     Davidson diagonalization with overlap
     ethr =  1.00E-02,  avg # of iterations =  7.0

     negative rho (up, down):  1.205E+01 0.000E+00

     total cpu time spent up to now is        6.1 secs

     total energy              =    -372.48329329 Ry
     Harris-Foulkes estimate   =  -53573.26847023 Ry
     estimated scf accuracy    <     562.09432410 Ry

     iteration # 12     ecut=    30.00 Ry     beta=0.70
     Davidson diagonalization with overlap
     ethr =  1.00E-02,  avg # of iterations = 10.0

     negative rho (up, down):  8.153E+00 0.000E+00

     total cpu time spent up to now is        6.2 secs

     total energy              =    -105.33474047 Ry
     Harris-Foulkes estimate   =   -1977.07661445 Ry
     estimated scf accuracy    <     420.38368917 Ry

     iteration # 13     ecut=    30.00 Ry     beta=0.70
     Davidson diagonalization with overlap
     ethr =  1.00E-02,  avg # of iterations = 11.0

     negative rho (up, down):  6.527E+00 0.000E+00

     total cpu time spent up to now is        6.2 secs

     total energy              =     -46.58195315 Ry
     Harris-Foulkes estimate   =   -1692.65063541 Ry
     estimated scf accuracy    <     314.64955366 Ry

     iteration # 14     ecut=    30.00 Ry     beta=0.70
     Davidson diagonalization with overlap
     ethr =  1.00E-02,  avg # of iterations = 10.0

     negative rho (up, down):  3.105E-01 0.000E+00

     total cpu time spent up to now is        6.3 secs

     total energy              =      89.57629473 Ry
     Harris-Foulkes estimate   =   -1403.06367680 Ry
     estimated scf accuracy    <     217.79966551 Ry

     iteration # 15     ecut=    30.00 Ry     beta=0.70
     Davidson diagonalization with overlap
     ethr =  1.00E-02,  avg # of iterations =  8.0

     negative rho (up, down):  3.685E-01 0.000E+00

     total cpu time spent up to now is        6.3 secs

     total energy              =     152.91554230 Ry
     Harris-Foulkes estimate   =   -2375.80575747 Ry
     estimated scf accuracy    <      45.80845552 Ry

     iteration # 16     ecut=    30.00 Ry     beta=0.70
     Davidson diagonalization with overlap
     ethr =  1.00E-02,  avg # of iterations =  8.0

     negative rho (up, down):  1.080E+00 0.000E+00

     total cpu time spent up to now is        6.4 secs

     total energy              =      33.01453465 Ry
     Harris-Foulkes estimate   =    -783.62205165 Ry
     estimated scf accuracy    <      47.90984373 Ry

     iteration # 17     ecut=    30.00 Ry     beta=0.70
     Davidson diagonalization with overlap
     ethr =  1.00E-02,  avg # of iterations =  6.0

     negative rho (up, down):  9.983E-01 0.000E+00

     total cpu time spent up to now is        6.5 secs

     total energy              =     -87.75386923 Ry
     Harris-Foulkes estimate   =   -5033.86176647 Ry
     estimated scf accuracy    <      51.38652763 Ry

     iteration # 18     ecut=    30.00 Ry     beta=0.70
     Davidson diagonalization with overlap
     ethr =  1.00E-02,  avg # of iterations = 15.0

     negative rho (up, down):  1.053E+00 0.000E+00

     total cpu time spent up to now is        6.5 secs

     total energy              =     108.62068142 Ry
     Harris-Foulkes estimate   =   -2966.92138633 Ry
     estimated scf accuracy    <      24.15211301 Ry

     iteration # 19     ecut=    30.00 Ry     beta=0.70
     Davidson diagonalization with overlap
     ethr =  1.00E-02,  avg # of iterations =  9.0

     negative rho (up, down):  9.062E-01 0.000E+00

     total cpu time spent up to now is        6.6 secs

     total energy              =      35.93050218 Ry
     Harris-Foulkes estimate   =    -877.81637450 Ry
     estimated scf accuracy    <      32.23724108 Ry

     iteration # 20     ecut=    30.00 Ry     beta=0.70
     Davidson diagonalization with overlap
     ethr =  1.00E-02,  avg # of iterations = 11.0

     negative rho (up, down):  5.531E-01 0.000E+00

     total cpu time spent up to now is        6.7 secs

     total energy              =     102.58821721 Ry
     Harris-Foulkes estimate   =   -7115.39817946 Ry
     estimated scf accuracy    <      44.90037928 Ry

     iteration # 21     ecut=    30.00 Ry     beta=0.70
     Davidson diagonalization with overlap
     ethr =  1.00E-02,  avg # of iterations =  8.0

     negative rho (up, down):  4.314E-01 0.000E+00

     total cpu time spent up to now is        6.8 secs

     total energy              =      31.46754225 Ry
     Harris-Foulkes estimate   =    -408.56070637 Ry
     estimated scf accuracy    <      33.06011204 Ry

     iteration # 22     ecut=    30.00 Ry     beta=0.70
     Davidson diagonalization with overlap
     ethr =  1.00E-02,  avg # of iterations =  8.0

     negative rho (up, down):  2.237E-02 0.000E+00

     total cpu time spent up to now is        6.8 secs

     total energy              =      82.85397436 Ry
     Harris-Foulkes estimate   =   -1026.27476680 Ry
     estimated scf accuracy    <      24.11768678 Ry

     iteration # 23     ecut=    30.00 Ry     beta=0.70
     Davidson diagonalization with overlap
     ethr =  1.00E-02,  avg # of iterations =  9.0

     negative rho (up, down):  2.970E-02 0.000E+00

     total cpu time spent up to now is        6.9 secs

     total energy              =      46.68441181 Ry
     Harris-Foulkes estimate   =    -123.32142421 Ry
     estimated scf accuracy    <      14.57102829 Ry

     iteration # 24     ecut=    30.00 Ry     beta=0.70
     Davidson diagonalization with overlap
     ethr =  1.00E-02,  avg # of iterations =  6.0

     negative rho (up, down):  3.897E-01 0.000E+00

     total cpu time spent up to now is        7.0 secs

     total energy              =      47.21055084 Ry
     Harris-Foulkes estimate   =    -188.58493795 Ry
     estimated scf accuracy    <      27.22580193 Ry

     iteration # 25     ecut=    30.00 Ry     beta=0.70
     Davidson diagonalization with overlap
     ethr =  1.00E-02,  avg # of iterations =  9.0

     negative rho (up, down):  4.810E-01 0.000E+00

     total cpu time spent up to now is        7.0 secs

     total energy              =      93.85201848 Ry
     Harris-Foulkes estimate   =    -556.77168594 Ry
     estimated scf accuracy    <      35.22007590 Ry

     iteration # 26     ecut=    30.00 Ry     beta=0.70
     Davidson diagonalization with overlap
     ethr =  1.00E-02,  avg # of iterations =  9.0

     negative rho (up, down):  5.409E-01 0.000E+00

     total cpu time spent up to now is        7.1 secs

     total energy              =   -5863.63767010 Ry
     Harris-Foulkes estimate   =    -431.76437860 Ry
     estimated scf accuracy    <      37.11979268 Ry

     iteration # 27     ecut=    30.00 Ry     beta=0.70
     Davidson diagonalization with overlap
     ethr =  1.00E-02,  avg # of iterations =  6.0

     negative rho (up, down):  6.611E-01 0.000E+00

     total cpu time spent up to now is        7.1 secs

     total energy              =     130.09385798 Ry
     Harris-Foulkes estimate   =  -14848.80740770 Ry
     estimated scf accuracy    <      30.27038907 Ry

     iteration # 28     ecut=    30.00 Ry     beta=0.70
     Davidson diagonalization with overlap
     ethr =  1.00E-02,  avg # of iterations =  8.0

     negative rho (up, down):  2.574E-01 0.000E+00

     total cpu time spent up to now is        7.2 secs

     total energy              =     127.06879131 Ry
     Harris-Foulkes estimate   =   -1008.55454412 Ry
     estimated scf accuracy    <      24.97440938 Ry

     iteration # 29     ecut=    30.00 Ry     beta=0.70
     Davidson diagonalization with overlap
     ethr =  1.00E-02,  avg # of iterations = 10.0

     negative rho (up, down):  1.395E-03 0.000E+00

     total cpu time spent up to now is        7.3 secs

     total energy              =     124.04167269 Ry
     Harris-Foulkes estimate   =    -435.88059899 Ry
     estimated scf accuracy    <      38.44384840 Ry

     iteration # 30     ecut=    30.00 Ry     beta=0.70
     Davidson diagonalization with overlap
     ethr =  1.00E-02,  avg # of iterations =  6.0

     negative rho (up, down):  3.984E-02 0.000E+00

     total cpu time spent up to now is        7.3 secs

     total energy              =     -62.59319418 Ry
     Harris-Foulkes estimate   =     -68.58960585 Ry
     estimated scf accuracy    <      52.41611429 Ry

     iteration # 31     ecut=    30.00 Ry     beta=0.70
     Davidson diagonalization with overlap
     ethr =  1.00E-02,  avg # of iterations =  5.0

     negative rho (up, down):  1.191E-01 0.000E+00

     total cpu time spent up to now is        7.4 secs

     total energy              =      39.20659092 Ry
     Harris-Foulkes estimate   =    -656.60453678 Ry
     estimated scf accuracy    <      15.28188390 Ry

     iteration # 32     ecut=    30.00 Ry     beta=0.70
     Davidson diagonalization with overlap
     ethr =  1.00E-02,  avg # of iterations = 16.0

     negative rho (up, down):  1.831E-01 0.000E+00

     total cpu time spent up to now is        7.4 secs

     total energy              =     -24.77964088 Ry
     Harris-Foulkes estimate   =    -287.15664121 Ry
     estimated scf accuracy    <      23.84239003 Ry

     iteration # 33     ecut=    30.00 Ry     beta=0.70
     Davidson diagonalization with overlap
     ethr =  1.00E-02,  avg # of iterations =  7.0

     negative rho (up, down):  1.794E-01 0.000E+00

     total cpu time spent up to now is        7.5 secs

     total energy              =     128.99638952 Ry
     Harris-Foulkes estimate   =   -6051.82271236 Ry
     estimated scf accuracy    <      40.02925945 Ry

     iteration # 34     ecut=    30.00 Ry     beta=0.70
     Davidson diagonalization with overlap
     ethr =  1.00E-02,  avg # of iterations = 10.0

     negative rho (up, down):  1.877E-01 0.000E+00

     total cpu time spent up to now is        7.5 secs

     total energy              =      -3.57123426 Ry
     Harris-Foulkes estimate   =    -185.59592378 Ry
     estimated scf accuracy    <      15.50560848 Ry

     iteration # 35     ecut=    30.00 Ry     beta=0.70
     Davidson diagonalization with overlap
     ethr =  1.00E-02,  avg # of iterations =  7.0

     negative rho (up, down):  2.614E-01 0.000E+00

     total cpu time spent up to now is        7.6 secs

     total energy              =   -3238.88769423 Ry
     Harris-Foulkes estimate   =   -8010.38917904 Ry
     estimated scf accuracy    <      32.98579562 Ry

     iteration # 36     ecut=    30.00 Ry     beta=0.70
     Davidson diagonalization with overlap
     ethr =  1.00E-02,  avg # of iterations =  3.0

     negative rho (up, down):  2.488E-01 0.000E+00

     total cpu time spent up to now is        7.6 secs

     total energy              =      19.19678051 Ry
     Harris-Foulkes estimate   =  -14057.91093107 Ry
     estimated scf accuracy    <      27.02306141 Ry

     iteration # 37     ecut=    30.00 Ry     beta=0.70
     Davidson diagonalization with overlap
     ethr =  1.00E-02,  avg # of iterations =  5.0

     negative rho (up, down):  5.720E-01 0.000E+00

     total cpu time spent up to now is        7.7 secs

     total energy              =    -206.73039192 Ry
     Harris-Foulkes estimate   =    -272.23819330 Ry
     estimated scf accuracy    <      16.47335444 Ry

     iteration # 38     ecut=    30.00 Ry     beta=0.70
     Davidson diagonalization with overlap
     ethr =  1.00E-02,  avg # of iterations =  8.0

     negative rho (up, down):  1.972E-02 0.000E+00

     total cpu time spent up to now is        7.8 secs

     total energy              =     106.86591137 Ry
     Harris-Foulkes estimate   =   -2342.55040664 Ry
     estimated scf accuracy    <      29.36901733 Ry

     iteration # 39     ecut=    30.00 Ry     beta=0.70
     Davidson diagonalization with overlap
     ethr =  1.00E-02,  avg # of iterations = 10.0

     negative rho (up, down):  5.839E-02 0.000E+00

     total cpu time spent up to now is        7.8 secs

     total energy              =      37.35652184 Ry
     Harris-Foulkes estimate   =   -1099.47697978 Ry
     estimated scf accuracy    <      11.61827725 Ry

     iteration # 40     ecut=    30.00 Ry     beta=0.70
     Davidson diagonalization with overlap
     ethr =  1.00E-02,  avg # of iterations = 14.0

     negative rho (up, down):  3.837E-02 0.000E+00

     total cpu time spent up to now is        7.9 secs

     total energy              =     -24.81307870 Ry
     Harris-Foulkes estimate   =     -57.99734028 Ry
     estimated scf accuracy    <      20.14038133 Ry

     iteration # 41     ecut=    30.00 Ry     beta=0.70
     Davidson diagonalization with overlap
     ethr =  1.00E-02,  avg # of iterations =  4.0

     negative rho (up, down):  1.909E-02 0.000E+00

     total cpu time spent up to now is        7.9 secs

     total energy              =      -9.44509294 Ry
     Harris-Foulkes estimate   =    -200.02449641 Ry
     estimated scf accuracy    <      15.30990783 Ry

     iteration # 42     ecut=    30.00 Ry     beta=0.70
     Davidson diagonalization with overlap
     ethr =  1.00E-02,  avg # of iterations =  8.0

     negative rho (up, down):  3.646E-03 0.000E+00

     total cpu time spent up to now is        8.0 secs

     total energy              =     -11.04657440 Ry
     Harris-Foulkes estimate   =    -103.17421999 Ry
     estimated scf accuracy    <      16.05970103 Ry

     iteration # 43     ecut=    30.00 Ry     beta=0.70
     Davidson diagonalization with overlap
     ethr =  1.00E-02,  avg # of iterations =  5.0

     negative rho (up, down):  6.073E-03 0.000E+00

     total cpu time spent up to now is        8.0 secs

     total energy              =      40.17498760 Ry
     Harris-Foulkes estimate   =    -973.08836437 Ry
     estimated scf accuracy    <       8.18313216 Ry

     iteration # 44     ecut=    30.00 Ry     beta=0.70
     Davidson diagonalization with overlap
     ethr =  1.00E-02,  avg # of iterations =  8.0

     negative rho (up, down):  3.636E-03 0.000E+00

     total cpu time spent up to now is        8.1 secs

     total energy              =     -50.63654963 Ry
     Harris-Foulkes estimate   =     -51.40528717 Ry
     estimated scf accuracy    <      28.90060694 Ry

     iteration # 45     ecut=    30.00 Ry     beta=0.70
     Davidson diagonalization with overlap
     ethr =  1.00E-02,  avg # of iterations =  1.0

     negative rho (up, down):  1.279E-02 0.000E+00

     total cpu time spent up to now is        8.1 secs

     total energy              =     -51.16802612 Ry
     Harris-Foulkes estimate   =     -50.63851543 Ry
     estimated scf accuracy    <      27.89921820 Ry

     iteration # 46     ecut=    30.00 Ry     beta=0.70
     Davidson diagonalization with overlap
     ethr =  1.00E-02,  avg # of iterations =  8.0

     negative rho (up, down):  3.733E-03 0.000E+00

     total cpu time spent up to now is        8.1 secs

     total energy              =      69.60457159 Ry
     Harris-Foulkes estimate   =    -256.95560572 Ry
     estimated scf accuracy    <      21.58624648 Ry

     iteration # 47     ecut=    30.00 Ry     beta=0.70
     Davidson diagonalization with overlap
     ethr =  1.00E-02,  avg # of iterations =  5.0

     negative rho (up, down):  7.025E-02 0.000E+00

     total cpu time spent up to now is        8.2 secs

     total energy              =     -58.04618248 Ry
     Harris-Foulkes estimate   =     -51.27509748 Ry
     estimated scf accuracy    <      28.80754805 Ry

     iteration # 48     ecut=    30.00 Ry     beta=0.70
     Davidson diagonalization with overlap
     ethr =  1.00E-02,  avg # of iterations =  5.0

     negative rho (up, down):  4.201E-05 0.000E+00

     total cpu time spent up to now is        8.2 secs

     total energy              =     142.22226433 Ry
     Harris-Foulkes estimate   =   -1117.66877113 Ry
     estimated scf accuracy    <      31.08258194 Ry

     iteration # 49     ecut=    30.00 Ry     beta=0.70
     Davidson diagonalization with overlap
     ethr =  1.00E-02,  avg # of iterations =  4.0

     negative rho (up, down):  3.732E-02 0.000E+00

     total cpu time spent up to now is        8.3 secs

     total energy              =     -52.22012862 Ry
     Harris-Foulkes estimate   =     -51.32936208 Ry
     estimated scf accuracy    <      28.45088620 Ry

     iteration # 50     ecut=    30.00 Ry     beta=0.70
     Davidson diagonalization with overlap
     ethr =  1.00E-02,  avg # of iterations =  5.0

     negative rho (up, down):  7.321E-02 0.000E+00

     total cpu time spent up to now is        8.3 secs

     total energy              =     -21.07581439 Ry
     Harris-Foulkes estimate   =    -269.41829528 Ry
     estimated scf accuracy    <      16.88381262 Ry

     iteration # 51     ecut=    30.00 Ry     beta=0.70
     Davidson diagonalization with overlap
     ethr =  1.00E-02,  avg # of iterations =  4.0

     negative rho (up, down):  6.328E-02 0.000E+00

     total cpu time spent up to now is        8.4 secs

     total energy              =     -52.61442331 Ry
     Harris-Foulkes estimate   =     -51.16382725 Ry
     estimated scf accuracy    <      27.78413763 Ry

     iteration # 52     ecut=    30.00 Ry     beta=0.70
     Davidson diagonalization with overlap
     ethr =  1.00E-02,  avg # of iterations =  6.0

     negative rho (up, down):  6.805E-02 0.000E+00

     total cpu time spent up to now is        8.4 secs

     total energy              =   -1193.63253114 Ry
     Harris-Foulkes estimate   =   -1080.27268757 Ry
     estimated scf accuracy    <      35.41238352 Ry

     iteration # 53     ecut=    30.00 Ry     beta=0.70
     Davidson diagonalization with overlap
     ethr =  1.00E-02,  avg # of iterations =  6.0

     negative rho (up, down):  7.947E-02 0.000E+00

     total cpu time spent up to now is        8.5 secs

     total energy              =     129.75569408 Ry
     Harris-Foulkes estimate   =   -2717.56497300 Ry
     estimated scf accuracy    <      31.69020471 Ry

     iteration # 54     ecut=    30.00 Ry     beta=0.70
     Davidson diagonalization with overlap
     ethr =  1.00E-02,  avg # of iterations =  9.0

     negative rho (up, down):  5.826E-02 0.000E+00

     total cpu time spent up to now is        8.5 secs

     total energy              =     -10.44314005 Ry
     Harris-Foulkes estimate   =    -101.05685884 Ry
     estimated scf accuracy    <      17.76386647 Ry

     iteration # 55     ecut=    30.00 Ry     beta=0.70
     Davidson diagonalization with overlap
     ethr =  1.00E-02,  avg # of iterations =  8.0

     negative rho (up, down):  6.096E-02 0.000E+00

     total cpu time spent up to now is        8.6 secs

     total energy              =     -34.77943644 Ry
     Harris-Foulkes estimate   =    -149.90298758 Ry
     estimated scf accuracy    <      16.55883845 Ry

     iteration # 56     ecut=    30.00 Ry     beta=0.70
     Davidson diagonalization with overlap
     ethr =  1.00E-02,  avg # of iterations =  6.0

     negative rho (up, down):  1.095E-01 0.000E+00

     total cpu time spent up to now is        8.6 secs

     total energy              =     -44.29807009 Ry
     Harris-Foulkes estimate   =    -241.33544474 Ry
     estimated scf accuracy    <      17.11526425 Ry

     iteration # 57     ecut=    30.00 Ry     beta=0.70
     Davidson diagonalization with overlap
     ethr =  1.00E-02,  avg # of iterations =  7.0

     negative rho (up, down):  7.105E-02 0.000E+00

     total cpu time spent up to now is        8.6 secs

     total energy              =     840.62028279 Ry
     Harris-Foulkes estimate   =    -104.85409430 Ry
     estimated scf accuracy    <      26.70667737 Ry

     iteration # 58     ecut=    30.00 Ry     beta=0.70
     Davidson diagonalization with overlap
     ethr =  1.00E-02,  avg # of iterations =  6.0

     negative rho (up, down):  5.954E-02 0.000E+00

     total cpu time spent up to now is        8.7 secs

     total energy              =      13.79594624 Ry
     Harris-Foulkes estimate   =     -92.07990228 Ry
     estimated scf accuracy    <      14.86939869 Ry

     iteration # 59     ecut=    30.00 Ry     beta=0.70
     Davidson diagonalization with overlap
     ethr =  1.00E-02,  avg # of iterations =  4.0

     negative rho (up, down):  8.543E-02 0.000E+00

     total cpu time spent up to now is        8.7 secs

     total energy              =     -53.15207981 Ry
     Harris-Foulkes estimate   =    -687.46279467 Ry
     estimated scf accuracy    <      11.63222733 Ry

     iteration # 60     ecut=    30.00 Ry     beta=0.70
     Davidson diagonalization with overlap
     ethr =  1.00E-02,  avg # of iterations =  6.0

     negative rho (up, down):  3.220E-02 0.000E+00

     total cpu time spent up to now is        8.8 secs

     total energy              =     -63.70308024 Ry
     Harris-Foulkes estimate   =    -941.50802012 Ry
     estimated scf accuracy    <      32.66123198 Ry

     iteration # 61     ecut=    30.00 Ry     beta=0.70
     Davidson diagonalization with overlap
     ethr =  1.00E-02,  avg # of iterations =  5.0

     negative rho (up, down):  4.926E-02 0.000E+00

     total cpu time spent up to now is        8.8 secs

     total energy              =      61.91422056 Ry
     Harris-Foulkes estimate   =    -362.62819346 Ry
     estimated scf accuracy    <      26.68976228 Ry

     iteration # 62     ecut=    30.00 Ry     beta=0.70
     Davidson diagonalization with overlap
     ethr =  1.00E-02,  avg # of iterations =  6.0

     negative rho (up, down):  8.473E-02 0.000E+00

     total cpu time spent up to now is        8.9 secs

     total energy              =      35.39081979 Ry
     Harris-Foulkes estimate   =    -348.06679496 Ry
     estimated scf accuracy    <      10.57822706 Ry

     iteration # 63     ecut=    30.00 Ry     beta=0.70
     Davidson diagonalization with overlap
     ethr =  1.00E-02,  avg # of iterations =  6.0

     negative rho (up, down):  2.784E-01 0.000E+00

     total cpu time spent up to now is        8.9 secs

     total energy              =      -6.30068011 Ry
     Harris-Foulkes estimate   =    -629.14529410 Ry
     estimated scf accuracy    <      19.89455294 Ry

     iteration # 64     ecut=    30.00 Ry     beta=0.70
     Davidson diagonalization with overlap
     ethr =  1.00E-02,  avg # of iterations =  8.0

     negative rho (up, down):  4.055E-01 0.000E+00

     total cpu time spent up to now is        9.0 secs

     total energy              =    -376.95845988 Ry
     Harris-Foulkes estimate   =    -383.72109983 Ry
     estimated scf accuracy    <      47.00379699 Ry

     iteration # 65     ecut=    30.00 Ry     beta=0.70
     Davidson diagonalization with overlap
     ethr =  1.00E-02,  avg # of iterations =  9.0

     negative rho (up, down):  4.036E-01 0.000E+00

     total cpu time spent up to now is        9.1 secs

     total energy              =    -876.68518413 Ry
     Harris-Foulkes estimate   =   -8399.81392015 Ry
     estimated scf accuracy    <      46.23360028 Ry

     iteration # 66     ecut=    30.00 Ry     beta=0.70
     Davidson diagonalization with overlap
     ethr =  1.00E-02,  avg # of iterations = 11.0

     negative rho (up, down):  4.363E-01 0.000E+00

     total cpu time spent up to now is        9.1 secs

     total energy              =    -566.87374452 Ry
     Harris-Foulkes estimate   =   -9206.38394735 Ry
     estimated scf accuracy    <      42.80833891 Ry

     iteration # 67     ecut=    30.00 Ry     beta=0.70
     Davidson diagonalization with overlap
     ethr =  1.00E-02,  avg # of iterations =  8.0

     negative rho (up, down):  6.232E-01 0.000E+00

     total cpu time spent up to now is        9.2 secs

     total energy              =    -180.36415259 Ry
     Harris-Foulkes estimate   =   -1436.78898255 Ry
     estimated scf accuracy    <      43.59798507 Ry

     iteration # 68     ecut=    30.00 Ry     beta=0.70
     Davidson diagonalization with overlap
     ethr =  1.00E-02,  avg # of iterations =  9.0

     negative rho (up, down):  3.424E-01 0.000E+00

     total cpu time spent up to now is        9.2 secs

     total energy              =      48.24783383 Ry
     Harris-Foulkes estimate   =    -958.76959590 Ry
     estimated scf accuracy    <      16.02079807 Ry

     iteration # 69     ecut=    30.00 Ry     beta=0.70
     Davidson diagonalization with overlap
     ethr =  1.00E-02,  avg # of iterations =  6.0

     negative rho (up, down):  5.218E-01 0.000E+00

     total cpu time spent up to now is        9.3 secs

     total energy              =   36918.37478068 Ry
     Harris-Foulkes estimate   =   -2096.11275695 Ry
     estimated scf accuracy    <      42.97343101 Ry

     iteration # 70     ecut=    30.00 Ry     beta=0.70
     Davidson diagonalization with overlap
     ethr =  1.00E-02,  avg # of iterations =  5.0

     negative rho (up, down):  5.657E-01 0.000E+00

     total cpu time spent up to now is        9.3 secs

     total energy              =     203.37816986 Ry
     Harris-Foulkes estimate   =   -1833.24891746 Ry
     estimated scf accuracy    <      29.91420155 Ry

     iteration # 71     ecut=    30.00 Ry     beta=0.70
     Davidson diagonalization with overlap
     ethr =  1.00E-02,  avg # of iterations =  8.0

     negative rho (up, down):  1.375E+00 0.000E+00

     total cpu time spent up to now is        9.4 secs

     total energy              =      84.81363924 Ry
     Harris-Foulkes estimate   =    -287.48613006 Ry
     estimated scf accuracy    <      35.14581494 Ry

     iteration # 72     ecut=    30.00 Ry     beta=0.70
     Davidson diagonalization with overlap
     ethr =  1.00E-02,  avg # of iterations =  8.0

     negative rho (up, down):  1.443E+00 0.000E+00

     total cpu time spent up to now is        9.4 secs

     total energy              =    -291.03597940 Ry
     Harris-Foulkes estimate   =    -392.58083105 Ry
     estimated scf accuracy    <      30.78060913 Ry

     iteration # 73     ecut=    30.00 Ry     beta=0.70
     Davidson diagonalization with overlap
     ethr =  1.00E-02,  avg # of iterations =  8.0

     negative rho (up, down):  1.210E+00 0.000E+00

     total cpu time spent up to now is        9.5 secs

     total energy              =     103.90835662 Ry
     Harris-Foulkes estimate   =  -18771.97210130 Ry
     estimated scf accuracy    <      29.21577950 Ry

     iteration # 74     ecut=    30.00 Ry     beta=0.70
     Davidson diagonalization with overlap
     ethr =  1.00E-02,  avg # of iterations =  9.0

     negative rho (up, down):  1.368E+00 0.000E+00

     total cpu time spent up to now is        9.6 secs

     total energy              =   -7772.24320156 Ry
     Harris-Foulkes estimate   =   -2891.79207869 Ry
     estimated scf accuracy    <      31.69159477 Ry

     iteration # 75     ecut=    30.00 Ry     beta=0.70
     Davidson diagonalization with overlap
     ethr =  1.00E-02,  avg # of iterations =  7.0

     negative rho (up, down):  7.637E-01 0.000E+00

     total cpu time spent up to now is        9.6 secs

     total energy              =   -3079.71801101 Ry
     Harris-Foulkes estimate   = -149652.18432656 Ry
     estimated scf accuracy    <      28.40468887 Ry

     iteration # 76     ecut=    30.00 Ry     beta=0.70
     Davidson diagonalization with overlap
     ethr =  1.00E-02,  avg # of iterations = 15.0

     negative rho (up, down):  7.126E-01 0.000E+00

     total cpu time spent up to now is        9.7 secs

     total energy              =     109.45957050 Ry
     Harris-Foulkes estimate   =  -31062.39391031 Ry
     estimated scf accuracy    <      21.05391738 Ry

     iteration # 77     ecut=    30.00 Ry     beta=0.70
     Davidson diagonalization with overlap
     ethr =  1.00E-02,  avg # of iterations =  8.0

     negative rho (up, down):  6.723E-01 0.000E+00

     total cpu time spent up to now is        9.8 secs

     total energy              =    -103.00203263 Ry
     Harris-Foulkes estimate   =   -3211.76363977 Ry
     estimated scf accuracy    <      32.80260542 Ry

     iteration # 78     ecut=    30.00 Ry     beta=0.70
     Davidson diagonalization with overlap
     ethr =  1.00E-02,  avg # of iterations =  9.0

     negative rho (up, down):  3.822E-01 0.000E+00

     total cpu time spent up to now is        9.8 secs

     total energy              =     121.51533031 Ry
     Harris-Foulkes estimate   =   -3450.82760586 Ry
     estimated scf accuracy    <      23.03880042 Ry

     iteration # 79     ecut=    30.00 Ry     beta=0.70
     Davidson diagonalization with overlap
     ethr =  1.00E-02,  avg # of iterations = 10.0

     negative rho (up, down):  1.839E-01 0.000E+00

     total cpu time spent up to now is        9.9 secs

     total energy              =      32.95988325 Ry
     Harris-Foulkes estimate   =    -158.47470249 Ry
     estimated scf accuracy    <      17.00382657 Ry

     iteration # 80     ecut=    30.00 Ry     beta=0.70
     Davidson diagonalization with overlap
     ethr =  1.00E-02,  avg # of iterations =  5.0

     negative rho (up, down):  2.859E-02 0.000E+00

     total cpu time spent up to now is        9.9 secs

     total energy              =      89.69526769 Ry
     Harris-Foulkes estimate   =    -733.05223860 Ry
     estimated scf accuracy    <      15.56294771 Ry

     iteration # 81     ecut=    30.00 Ry     beta=0.70
     Davidson diagonalization with overlap
     ethr =  1.00E-02,  avg # of iterations =  4.0

     negative rho (up, down):  2.064E-02 0.000E+00

     total cpu time spent up to now is       10.0 secs

     total energy              =     -71.66404603 Ry
     Harris-Foulkes estimate   =     -80.06644348 Ry
     estimated scf accuracy    <      64.75325676 Ry

     iteration # 82     ecut=    30.00 Ry     beta=0.70
     Davidson diagonalization with overlap
     ethr =  1.00E-02,  avg # of iterations =  1.0

     negative rho (up, down):  1.179E-02 0.000E+00

     total cpu time spent up to now is       10.0 secs

     total energy              =     -72.95988511 Ry
     Harris-Foulkes estimate   =     -71.69302469 Ry
     estimated scf accuracy    <      54.20176689 Ry

     iteration # 83     ecut=    30.00 Ry     beta=0.70
     Davidson diagonalization with overlap
     ethr =  1.00E-02,  avg # of iterations =  1.0

     negative rho (up, down):  4.787E-02 0.000E+00

     total cpu time spent up to now is       10.1 secs

     total energy              =     -80.18627994 Ry
     Harris-Foulkes estimate   =     -72.96022685 Ry
     estimated scf accuracy    <      55.58719497 Ry

     iteration # 84     ecut=    30.00 Ry     beta=0.70
     Davidson diagonalization with overlap
     ethr =  1.00E-02,  avg # of iterations =  5.0

     negative rho (up, down):  2.004E-03 0.000E+00

     total cpu time spent up to now is       10.1 secs

     total energy              =      89.82005737 Ry
     Harris-Foulkes estimate   =    -905.34592632 Ry
     estimated scf accuracy    <      15.08380839 Ry

     iteration # 85     ecut=    30.00 Ry     beta=0.70
     Davidson diagonalization with overlap
     ethr =  1.00E-02,  avg # of iterations =  5.0

     negative rho (up, down):  1.641E-01 0.000E+00

     total cpu time spent up to now is       10.1 secs

     total energy              =     -60.20938680 Ry
     Harris-Foulkes estimate   =    -101.79341151 Ry
     estimated scf accuracy    <      39.76585883 Ry

     iteration # 86     ecut=    30.00 Ry     beta=0.70
     Davidson diagonalization with overlap
     ethr =  1.00E-02,  avg # of iterations =  6.0

     negative rho (up, down):  7.766E-01 0.000E+00

     total cpu time spent up to now is       10.2 secs

     total energy              =    -216.33801524 Ry
     Harris-Foulkes estimate   =    -159.90385314 Ry
     estimated scf accuracy    <      82.45965985 Ry

     iteration # 87     ecut=    30.00 Ry     beta=0.70
     Davidson diagonalization with overlap
     ethr =  1.00E-02,  avg # of iterations =  5.0

     negative rho (up, down):  2.609E-02 0.000E+00

     total cpu time spent up to now is       10.2 secs

     total energy              =     -78.76414299 Ry
     Harris-Foulkes estimate   =    -549.56786798 Ry
     estimated scf accuracy    <      99.61054577 Ry

     iteration # 88     ecut=    30.00 Ry     beta=0.70
     Davidson diagonalization with overlap
     ethr =  1.00E-02,  avg # of iterations =  7.0

     negative rho (up, down):  1.992E-02 0.000E+00

     total cpu time spent up to now is       10.3 secs

     total energy              =      41.64045441 Ry
     Harris-Foulkes estimate   =   -1750.79259471 Ry
     estimated scf accuracy    <      68.88343894 Ry

     iteration # 89     ecut=    30.00 Ry     beta=0.70
     Davidson diagonalization with overlap
     ethr =  1.00E-02,  avg # of iterations =  7.0

     negative rho (up, down):  9.009E-03 0.000E+00

     total cpu time spent up to now is       10.3 secs

     total energy              =      23.91192478 Ry
     Harris-Foulkes estimate   =    -174.65446780 Ry
     estimated scf accuracy    <      18.73431078 Ry

     iteration # 90     ecut=    30.00 Ry     beta=0.70
     Davidson diagonalization with overlap
     ethr =  1.00E-02,  avg # of iterations =  7.0

     negative rho (up, down):  2.937E-02 0.000E+00

     total cpu time spent up to now is       10.4 secs

     total energy              =      25.05277021 Ry
     Harris-Foulkes estimate   =    -102.24840259 Ry
     estimated scf accuracy    <      31.32127122 Ry

     iteration # 91     ecut=    30.00 Ry     beta=0.70
     Davidson diagonalization with overlap
     ethr =  1.00E-02,  avg # of iterations =  5.0

     negative rho (up, down):  6.310E-02 0.000E+00

     total cpu time spent up to now is       10.4 secs

     total energy              =     -40.00609564 Ry
     Harris-Foulkes estimate   =    -291.88354194 Ry
     estimated scf accuracy    <      68.50661071 Ry

     iteration # 92     ecut=    30.00 Ry     beta=0.70
     Davidson diagonalization with overlap
     ethr =  1.00E-02,  avg # of iterations =  5.0

     negative rho (up, down):  3.089E-01 0.000E+00

     total cpu time spent up to now is       10.5 secs

     total energy              =    -135.60569870 Ry
     Harris-Foulkes estimate   =   -1248.90977391 Ry
     estimated scf accuracy    <      65.14830625 Ry

     iteration # 93     ecut=    30.00 Ry     beta=0.70
     Davidson diagonalization with overlap
     ethr =  1.00E-02,  avg # of iterations =  7.0

     negative rho (up, down):  4.071E-01 0.000E+00

     total cpu time spent up to now is       10.6 secs

     total energy              =      38.60621560 Ry
     Harris-Foulkes estimate   =    -448.67123483 Ry
     estimated scf accuracy    <      32.73307763 Ry

     iteration # 94     ecut=    30.00 Ry     beta=0.70
     Davidson diagonalization with overlap
     ethr =  1.00E-02,  avg # of iterations =  8.0

     negative rho (up, down):  3.907E-01 0.000E+00

     total cpu time spent up to now is       10.6 secs

     total energy              =      50.32967313 Ry
     Harris-Foulkes estimate   =    -824.38368194 Ry
     estimated scf accuracy    <      37.79785741 Ry

     iteration # 95     ecut=    30.00 Ry     beta=0.70
     Davidson diagonalization with overlap
     ethr =  1.00E-02,  avg # of iterations =  9.0

     negative rho (up, down):  5.265E-01 0.000E+00

     total cpu time spent up to now is       10.7 secs

     total energy              =   -1373.74055055 Ry
     Harris-Foulkes estimate   =   -1121.66514122 Ry
     estimated scf accuracy    <      23.96843615 Ry

     iteration # 96     ecut=    30.00 Ry     beta=0.70
     Davidson diagonalization with overlap
     ethr =  1.00E-02,  avg # of iterations =  8.0

     negative rho (up, down):  6.272E-01 0.000E+00

     total cpu time spent up to now is       10.7 secs

     total energy              =    -174.36456264 Ry
     Harris-Foulkes estimate   =   -9163.62145629 Ry
     estimated scf accuracy    <      32.84865503 Ry

     iteration # 97     ecut=    30.00 Ry     beta=0.70
     Davidson diagonalization with overlap
     ethr =  1.00E-02,  avg # of iterations =  7.0

     negative rho (up, down):  4.718E-01 0.000E+00

     total cpu time spent up to now is       10.8 secs

     total energy              =    -839.12526387 Ry
     Harris-Foulkes estimate   =   -4861.10220417 Ry
     estimated scf accuracy    <      30.84576211 Ry

     iteration # 98     ecut=    30.00 Ry     beta=0.70
     Davidson diagonalization with overlap
     ethr =  1.00E-02,  avg # of iterations =  4.0

     negative rho (up, down):  7.310E-01 0.000E+00

     total cpu time spent up to now is       10.8 secs

     total energy              =  -15813.39781720 Ry
     Harris-Foulkes estimate   =   -2504.18791099 Ry
     estimated scf accuracy    <      31.88122715 Ry

     iteration # 99     ecut=    30.00 Ry     beta=0.70
     Davidson diagonalization with overlap
     ethr =  1.00E-02,  avg # of iterations = 11.0

     negative rho (up, down):  5.824E-01 0.000E+00

     total cpu time spent up to now is       10.9 secs

     total energy              =      70.87651217 Ry
     Harris-Foulkes estimate   =  -28938.27869201 Ry
     estimated scf accuracy    <      14.63372110 Ry

     iteration #100     ecut=    30.00 Ry     beta=0.70
     Davidson diagonalization with overlap
     ethr =  1.00E-02,  avg # of iterations =  8.0

     negative rho (up, down):  1.772E-02 0.000E+00

     total cpu time spent up to now is       10.9 secs

     total energy              =      71.37651899 Ry
     Harris-Foulkes estimate   =    -682.25645161 Ry
     estimated scf accuracy    <      26.82447710 Ry

     End of self-consistent calculation

     convergence NOT achieved after 100 iterations: stopping

     Writing output data file pwscf.save
 
     init_run     :      0.10s CPU      0.11s WALL (       1 calls)
     electrons    :      8.10s CPU      9.89s WALL (       4 calls)
     update_pot   :      0.32s CPU      0.46s WALL (       3 calls)
     forces       :      0.08s CPU      0.08s WALL (       3 calls)

     Called by init_run:
     wfcinit      :      0.02s CPU      0.02s WALL (       1 calls)
     potinit      :      0.02s CPU      0.03s WALL (       1 calls)

     Called by electrons:
     c_bands      :      4.19s CPU      4.43s WALL (     211 calls)
     sum_band     :      0.63s CPU      0.66s WALL (     211 calls)
     v_of_rho     :      1.61s CPU      1.71s WALL (     215 calls)
     mix_rho      :      1.47s CPU      2.55s WALL (     211 calls)

     Called by c_bands:
     init_us_2    :      0.02s CPU      0.02s WALL (     423 calls)
     cegterg      :      4.15s CPU      4.32s WALL (     211 calls)

     Called by sum_band:

     Called by *egterg:
     h_psi        :      3.45s CPU      3.60s WALL (    1256 calls)
     g_psi        :      0.04s CPU      0.04s WALL (    1044 calls)
     cdiaghg      :      0.26s CPU      0.27s WALL (    1252 calls)

     Called by h_psi:
     h_psi:pot    :      3.43s CPU      3.58s WALL (    1256 calls)
     h_psi:calbec :      0.05s CPU      0.07s WALL (    1256 calls)
     vloc_psi     :      3.37s CPU      3.50s WALL (    1256 calls)
     add_vuspsi   :      0.01s CPU      0.01s WALL (    1256 calls)

     General routines
     calbec       :      0.06s CPU      0.08s WALL (    1270 calls)
     fft          :      0.99s CPU      1.06s WALL (    2371 calls)
     fftw         :      3.45s CPU      3.60s WALL (   15366 calls)
     davcio       :      0.24s CPU      0.92s WALL (    3877 calls)
 
     Parallel routines
     fft_scatter  :      1.62s CPU      1.77s WALL (   17737 calls)
 
     PWSCF        :     8.76s CPU        11.03s WALL

 
   This run was terminated on:   8:31:47  14Feb2018            

=------------------------------------------------------------------------------=
   JOB DONE.
=------------------------------------------------------------------------------=
