
     Program PWSCF v.6.0 (svn rev. 13079) starts on 14Feb2018 at  8:32:45 

     This program is part of the open-source Quantum ESPRESSO suite
     for quantum simulation of materials; please cite
         "P. Giannozzi et al., J. Phys.:Condens. Matter 21 395502 (2009);
          URL http://www.quantum-espresso.org", 
     in publications or presentations arising from this work. More details at
     http://www.quantum-espresso.org/quote

     Parallel version (MPI), running on    28 processors
     R & G space division:  proc/nbgrp/npool/nimage =      28
     Reading input from inputs/MD-H2O-2/393.in

     Current dimensions of program PWSCF are:
     Max number of different atomic species (ntypx) = 10
     Max number of k-points (npk) =  40000
     Max angular momentum in pseudopotentials (lmaxx) =  3

     Subspace diagonalization in iterative solution of the eigenvalue problem:
     a serial algorithm will be used

 
     Parallelization info
     --------------------
     sticks:   dense  smooth     PW     G-vecs:    dense   smooth      PW
     Min         136     136     33                 6338     6338     787
     Max         137     137     34                 6341     6341     792
     Sum        3809    3809    949               177509   177509   22119
 


     bravais-lattice index     =            1
     lattice parameter (alat)  =      20.0000  a.u.
     unit-cell volume          =    8000.0000 (a.u.)^3
     number of atoms/cell      =            3
     number of atomic types    =            2
     number of electrons       =         8.00
     number of Kohn-Sham states=            8
     kinetic-energy cutoff     =      30.0000  Ry
     charge density cutoff     =     120.0000  Ry
     convergence threshold     =      1.0E-08
     mixing beta               =       0.7000
     number of iterations used =            8  plain     mixing
     Exchange-correlation      = BLYP ( 1  3  1  3 0 0)
     nstep                     =         5000


     celldm(1)=  20.000000  celldm(2)=   0.000000  celldm(3)=   0.000000
     celldm(4)=   0.000000  celldm(5)=   0.000000  celldm(6)=   0.000000

     crystal axes: (cart. coord. in units of alat)
               a(1) = (   1.000000   0.000000   0.000000 )  
               a(2) = (   0.000000   1.000000   0.000000 )  
               a(3) = (   0.000000   0.000000   1.000000 )  

     reciprocal axes: (cart. coord. in units 2 pi/alat)
               b(1) = (  1.000000  0.000000  0.000000 )  
               b(2) = (  0.000000  1.000000  0.000000 )  
               b(3) = (  0.000000  0.000000  1.000000 )  


     PseudoPot. # 1 for  H read from file:
     ./H.blyp-hgh.UPF
     MD5 check sum: c576e69559cde411e611be972c763230
     Pseudo is Norm-conserving, Zval =  1.0
     Generated in analytical, separable form
     Using radial grid of  929 points,  0 beta functions with: 

     PseudoPot. # 2 for  O read from file:
     ./O.blyp-hgh.UPF
     MD5 check sum: d0b7156309aa9befef28faac7bc56342
     Pseudo is Norm-conserving, Zval =  6.0
     Generated in analytical, separable form
     Using radial grid of 1095 points,  1 beta functions with: 
                l(1) =   0

     atomic species   valence    mass     pseudopotential
        H              1.00     1.01000      H( 1.00)
        O              6.00    16.00000      O( 1.00)

     No symmetry found



   Cartesian axes

     site n.     atom                  positions (alat units)
         1           H   tau(   1) = (   0.3178822   0.8683163   0.3556538  )
         2           H   tau(   2) = (   0.0223609   0.2519641   0.1782741  )
         3           O   tau(   3) = (   0.9772360   0.3072834   0.1089582  )

     number of k points=     1  Marzari-Vanderbilt smearing, width (Ry)=  0.0250
                       cart. coord. in units 2pi/alat
        k(    1) = (   0.0000000   0.0000000   0.0000000), wk =   2.0000000

     Dense  grid:   177509 G-vectors     FFT dimensions: (  72,  72,  72)

     Estimated max dynamical RAM per process >       6.09Mb

     Estimated total allocated dynamical RAM >     170.64Mb

     Initial potential from superposition of free atoms
     Check: negative starting charge=   -0.349142

     starting charge    7.99998, renormalised to    8.00000

     negative rho (up, down):  3.491E-01 0.000E+00
     Starting wfc are    6 randomized atomic wfcs +    2 random wfc

     total cpu time spent up to now is        0.2 secs

     per-process dynamical memory:    18.8 Mb

     Self-consistent Calculation

     iteration #  1     ecut=    30.00 Ry     beta=0.70
     Davidson diagonalization with overlap
     ethr =  1.00E-02,  avg # of iterations =  9.0

     negative rho (up, down):  9.153E-02 0.000E+00

     total cpu time spent up to now is        0.3 secs

     total energy              =     -30.33798401 Ry
     Harris-Foulkes estimate   =     -32.24067563 Ry
     estimated scf accuracy    <       2.18365515 Ry

     iteration #  2     ecut=    30.00 Ry     beta=0.70
     Davidson diagonalization with overlap
     ethr =  1.00E-02,  avg # of iterations =  3.0

     negative rho (up, down):  6.662E-02 0.000E+00

     total cpu time spent up to now is        0.3 secs

     total energy              =     -32.29995572 Ry
     Harris-Foulkes estimate   =     -34.61383385 Ry
     estimated scf accuracy    <       5.63153880 Ry

     iteration #  3     ecut=    30.00 Ry     beta=0.70
     Davidson diagonalization with overlap
     ethr =  1.00E-02,  avg # of iterations =  2.0

     negative rho (up, down):  6.406E-02 0.000E+00

     total cpu time spent up to now is        0.4 secs

     total energy              =     -32.44767332 Ry
     Harris-Foulkes estimate   =     -32.53548525 Ry
     estimated scf accuracy    <       1.83761922 Ry

     iteration #  4     ecut=    30.00 Ry     beta=0.70
     Davidson diagonalization with overlap
     ethr =  1.00E-02,  avg # of iterations =  1.0

     negative rho (up, down):  1.182E-02 0.000E+00

     total cpu time spent up to now is        0.4 secs

     total energy              =     -31.28397786 Ry
     Harris-Foulkes estimate   =     -32.44799371 Ry
     estimated scf accuracy    <       1.71664505 Ry

     iteration #  5     ecut=    30.00 Ry     beta=0.70
     Davidson diagonalization with overlap
     ethr =  1.00E-02,  avg # of iterations =  4.0

     negative rho (up, down):  2.413E-02 0.000E+00

     total cpu time spent up to now is        0.5 secs

     total energy              =     -33.43305523 Ry
     Harris-Foulkes estimate   =     -33.26363017 Ry
     estimated scf accuracy    <       8.79950780 Ry

     iteration #  6     ecut=    30.00 Ry     beta=0.70
     Davidson diagonalization with overlap
     ethr =  1.00E-02,  avg # of iterations =  1.0

     negative rho (up, down):  1.829E-02 0.000E+00

     total cpu time spent up to now is        0.5 secs

     total energy              =     -33.25645651 Ry
     Harris-Foulkes estimate   =     -33.43867264 Ry
     estimated scf accuracy    <       9.52273149 Ry

     iteration #  7     ecut=    30.00 Ry     beta=0.70
     Davidson diagonalization with overlap
     ethr =  1.00E-02,  avg # of iterations =  1.0

     negative rho (up, down):  2.156E-02 0.000E+00

     total cpu time spent up to now is        0.5 secs

     total energy              =     -32.79007656 Ry
     Harris-Foulkes estimate   =     -33.25930729 Ry
     estimated scf accuracy    <       8.62842447 Ry

     iteration #  8     ecut=    30.00 Ry     beta=0.70
     Davidson diagonalization with overlap
     ethr =  1.00E-02,  avg # of iterations =  1.0

     negative rho (up, down):  1.020E-02 0.000E+00

     total cpu time spent up to now is        0.6 secs

     total energy              =     -32.83920652 Ry
     Harris-Foulkes estimate   =     -32.92204760 Ry
     estimated scf accuracy    <       3.00007163 Ry

     iteration #  9     ecut=    30.00 Ry     beta=0.70
     Davidson diagonalization with overlap
     ethr =  1.00E-02,  avg # of iterations =  1.0

     negative rho (up, down):  1.384E-01 0.000E+00

     total cpu time spent up to now is        0.6 secs

     total energy              =     -32.27381724 Ry
     Harris-Foulkes estimate   =     -32.84032184 Ry
     estimated scf accuracy    <       2.83920312 Ry

     iteration # 10     ecut=    30.00 Ry     beta=0.70
     Davidson diagonalization with overlap
     ethr =  1.00E-02,  avg # of iterations =  1.0

     negative rho (up, down):  1.238E-01 0.000E+00

     total cpu time spent up to now is        0.6 secs

     total energy              =     -32.41007107 Ry
     Harris-Foulkes estimate   =     -32.29264246 Ry
     estimated scf accuracy    <       1.83365011 Ry

     iteration # 11     ecut=    30.00 Ry     beta=0.70
     Davidson diagonalization with overlap
     ethr =  1.00E-02,  avg # of iterations =  1.0

     negative rho (up, down):  1.483E-01 0.000E+00

     total cpu time spent up to now is        0.7 secs

     total energy              =     -32.13836092 Ry
     Harris-Foulkes estimate   =     -32.41194855 Ry
     estimated scf accuracy    <       2.01649376 Ry

     iteration # 12     ecut=    30.00 Ry     beta=0.70
     Davidson diagonalization with overlap
     ethr =  1.00E-02,  avg # of iterations =  1.0

     negative rho (up, down):  4.831E-01 0.000E+00

     total cpu time spent up to now is        0.7 secs

     total energy              =     -32.14031875 Ry
     Harris-Foulkes estimate   =     -32.14304784 Ry
     estimated scf accuracy    <       1.55654357 Ry

     iteration # 13     ecut=    30.00 Ry     beta=0.70
     Davidson diagonalization with overlap
     ethr =  1.00E-02,  avg # of iterations =  1.0

     negative rho (up, down):  1.997E+00 0.000E+00

     total cpu time spent up to now is        0.7 secs

     total energy              =     -32.91565578 Ry
     Harris-Foulkes estimate   =     -32.14830769 Ry
     estimated scf accuracy    <       1.60150529 Ry

     iteration # 14     ecut=    30.00 Ry     beta=0.70
     Davidson diagonalization with overlap
     ethr =  1.00E-02,  avg # of iterations =  5.0

     negative rho (up, down):  6.341E-01 0.000E+00

     total cpu time spent up to now is        0.8 secs

     total energy              =     -29.25669691 Ry
     Harris-Foulkes estimate   =     -34.10690126 Ry
     estimated scf accuracy    <      15.65967094 Ry

     iteration # 15     ecut=    30.00 Ry     beta=0.70
     Davidson diagonalization with overlap
     ethr =  1.00E-02,  avg # of iterations =  3.0

     negative rho (up, down):  3.266E-01 0.000E+00

     total cpu time spent up to now is        0.8 secs

     total energy              =     -30.03198607 Ry
     Harris-Foulkes estimate   =     -30.53079860 Ry
     estimated scf accuracy    <       3.94375677 Ry

     iteration # 16     ecut=    30.00 Ry     beta=0.70
     Davidson diagonalization with overlap
     ethr =  1.00E-02,  avg # of iterations =  5.0

     negative rho (up, down):  2.119E-01 0.000E+00

     total cpu time spent up to now is        0.8 secs

     total energy              =     -31.48537959 Ry
     Harris-Foulkes estimate   =     -31.46409696 Ry
     estimated scf accuracy    <       0.75136134 Ry

     iteration # 17     ecut=    30.00 Ry     beta=0.70
     Davidson diagonalization with overlap
     ethr =  9.39E-03,  avg # of iterations =  1.0

     negative rho (up, down):  1.707E-02 0.000E+00

     total cpu time spent up to now is        0.9 secs

     total energy              =     -31.41361295 Ry
     Harris-Foulkes estimate   =     -31.50984669 Ry
     estimated scf accuracy    <       1.31877572 Ry

     iteration # 18     ecut=    30.00 Ry     beta=0.70
     Davidson diagonalization with overlap
     ethr =  9.39E-03,  avg # of iterations =  1.0

     negative rho (up, down):  5.452E-02 0.000E+00

     total cpu time spent up to now is        0.9 secs

     total energy              =     -31.57851266 Ry
     Harris-Foulkes estimate   =     -31.44140816 Ry
     estimated scf accuracy    <       1.33078847 Ry

     iteration # 19     ecut=    30.00 Ry     beta=0.70
     Davidson diagonalization with overlap
     ethr =  9.39E-03,  avg # of iterations =  5.0

     negative rho (up, down):  8.364E-02 0.000E+00

     total cpu time spent up to now is        1.0 secs

     total energy              =     -32.32842406 Ry
     Harris-Foulkes estimate   =     -33.08374676 Ry
     estimated scf accuracy    <       2.63361690 Ry

     iteration # 20     ecut=    30.00 Ry     beta=0.70
     Davidson diagonalization with overlap
     ethr =  9.39E-03,  avg # of iterations =  1.0

     negative rho (up, down):  4.255E-02 0.000E+00

     total cpu time spent up to now is        1.0 secs

     total energy              =     -32.02322376 Ry
     Harris-Foulkes estimate   =     -32.35005548 Ry
     estimated scf accuracy    <       1.50694745 Ry

     iteration # 21     ecut=    30.00 Ry     beta=0.70
     Davidson diagonalization with overlap
     ethr =  9.39E-03,  avg # of iterations =  1.0

     negative rho (up, down):  2.007E-01 0.000E+00

     total cpu time spent up to now is        1.0 secs

     total energy              =     -32.13352877 Ry
     Harris-Foulkes estimate   =     -32.02093893 Ry
     estimated scf accuracy    <       1.01167029 Ry

     iteration # 22     ecut=    30.00 Ry     beta=0.70
     Davidson diagonalization with overlap
     ethr =  9.39E-03,  avg # of iterations =  1.0

     negative rho (up, down):  1.582E-01 0.000E+00

     total cpu time spent up to now is        1.1 secs

     total energy              =     -31.28681485 Ry
     Harris-Foulkes estimate   =     -32.13380938 Ry
     estimated scf accuracy    <       1.15114619 Ry

     iteration # 23     ecut=    30.00 Ry     beta=0.70
     Davidson diagonalization with overlap
     ethr =  9.39E-03,  avg # of iterations =  3.0

     negative rho (up, down):  4.862E-02 0.000E+00

     total cpu time spent up to now is        1.1 secs

     total energy              =     -32.72758986 Ry
     Harris-Foulkes estimate   =     -33.98834404 Ry
     estimated scf accuracy    <      10.92463503 Ry

     iteration # 24     ecut=    30.00 Ry     beta=0.70
     Davidson diagonalization with overlap
     ethr =  9.39E-03,  avg # of iterations =  1.0

     negative rho (up, down):  8.032E-03 0.000E+00

     total cpu time spent up to now is        1.1 secs

     total energy              =     -32.48764612 Ry
     Harris-Foulkes estimate   =     -32.90407581 Ry
     estimated scf accuracy    <       3.25645580 Ry

     iteration # 25     ecut=    30.00 Ry     beta=0.70
     Davidson diagonalization with overlap
     ethr =  9.39E-03,  avg # of iterations =  1.0

     negative rho (up, down):  8.302E-03 0.000E+00

     total cpu time spent up to now is        1.2 secs

     total energy              =     -32.37396856 Ry
     Harris-Foulkes estimate   =     -32.51135615 Ry
     estimated scf accuracy    <       2.36643643 Ry

     iteration # 26     ecut=    30.00 Ry     beta=0.70
     Davidson diagonalization with overlap
     ethr =  9.39E-03,  avg # of iterations =  3.0

     negative rho (up, down):  2.076E-03 0.000E+00

     total cpu time spent up to now is        1.2 secs

     total energy              =     -32.18698545 Ry
     Harris-Foulkes estimate   =     -32.39546782 Ry
     estimated scf accuracy    <       1.99821261 Ry

     iteration # 27     ecut=    30.00 Ry     beta=0.70
     Davidson diagonalization with overlap
     ethr =  9.39E-03,  avg # of iterations =  1.0

     negative rho (up, down):  2.149E-03 0.000E+00

     total cpu time spent up to now is        1.2 secs

     total energy              =     -32.06488829 Ry
     Harris-Foulkes estimate   =     -32.19573993 Ry
     estimated scf accuracy    <       1.61103863 Ry

     iteration # 28     ecut=    30.00 Ry     beta=0.70
     Davidson diagonalization with overlap
     ethr =  9.39E-03,  avg # of iterations =  1.0

     negative rho (up, down):  2.331E-03 0.000E+00

     total cpu time spent up to now is        1.3 secs

     total energy              =     -32.07329338 Ry
     Harris-Foulkes estimate   =     -32.06785285 Ry
     estimated scf accuracy    <       1.38206279 Ry

     iteration # 29     ecut=    30.00 Ry     beta=0.70
     Davidson diagonalization with overlap
     ethr =  9.39E-03,  avg # of iterations =  1.0

     negative rho (up, down):  3.716E-04 0.000E+00

     total cpu time spent up to now is        1.3 secs

     total energy              =     -32.00582740 Ry
     Harris-Foulkes estimate   =     -32.07363558 Ry
     estimated scf accuracy    <       1.38214670 Ry

     iteration # 30     ecut=    30.00 Ry     beta=0.70
     Davidson diagonalization with overlap
     ethr =  9.39E-03,  avg # of iterations =  1.0

     negative rho (up, down):  4.063E-02 0.000E+00

     total cpu time spent up to now is        1.3 secs

     total energy              =     -31.79097319 Ry
     Harris-Foulkes estimate   =     -32.00626663 Ry
     estimated scf accuracy    <       1.34164252 Ry

     iteration # 31     ecut=    30.00 Ry     beta=0.70
     Davidson diagonalization with overlap
     ethr =  9.39E-03,  avg # of iterations =  1.0

     negative rho (up, down):  3.792E-03 0.000E+00

     total cpu time spent up to now is        1.4 secs

     total energy              =     -31.95580191 Ry
     Harris-Foulkes estimate   =     -32.06186243 Ry
     estimated scf accuracy    <       1.06647456 Ry

     iteration # 32     ecut=    30.00 Ry     beta=0.70
     Davidson diagonalization with overlap
     ethr =  9.39E-03,  avg # of iterations =  1.0

     negative rho (up, down):  8.214E-04 0.000E+00

     total cpu time spent up to now is        1.4 secs

     total energy              =     -31.90616989 Ry
     Harris-Foulkes estimate   =     -31.95775085 Ry
     estimated scf accuracy    <       0.60503494 Ry

     iteration # 33     ecut=    30.00 Ry     beta=0.70
     Davidson diagonalization with overlap
     ethr =  7.56E-03,  avg # of iterations =  1.0

     negative rho (up, down):  8.185E-04 0.000E+00

     total cpu time spent up to now is        1.4 secs

     total energy              =     -31.96784241 Ry
     Harris-Foulkes estimate   =     -31.97822044 Ry
     estimated scf accuracy    <       1.60512650 Ry

     iteration # 34     ecut=    30.00 Ry     beta=0.70
     Davidson diagonalization with overlap
     ethr =  7.56E-03,  avg # of iterations =  1.0

     negative rho (up, down):  6.048E-04 0.000E+00

     total cpu time spent up to now is        1.5 secs

     total energy              =     -32.08373168 Ry
     Harris-Foulkes estimate   =     -31.96812375 Ry
     estimated scf accuracy    <       1.39603303 Ry

     iteration # 35     ecut=    30.00 Ry     beta=0.70
     Davidson diagonalization with overlap
     ethr =  7.56E-03,  avg # of iterations =  1.0

     negative rho (up, down):  7.808E-04 0.000E+00

     total cpu time spent up to now is        1.5 secs

     total energy              =     -32.01699536 Ry
     Harris-Foulkes estimate   =     -32.08079635 Ry
     estimated scf accuracy    <       1.38595938 Ry

     iteration # 36     ecut=    30.00 Ry     beta=0.70
     Davidson diagonalization with overlap
     ethr =  7.56E-03,  avg # of iterations =  1.0

     negative rho (up, down):  5.861E-05 0.000E+00

     total cpu time spent up to now is        1.5 secs

     total energy              =     -32.03194978 Ry
     Harris-Foulkes estimate   =     -32.01729640 Ry
     estimated scf accuracy    <       1.30498454 Ry

     iteration # 37     ecut=    30.00 Ry     beta=0.70
     Davidson diagonalization with overlap
     ethr =  7.56E-03,  avg # of iterations =  1.0

     negative rho (up, down):  1.390E-04 0.000E+00

     total cpu time spent up to now is        1.6 secs

     total energy              =     -32.05106572 Ry
     Harris-Foulkes estimate   =     -32.03190311 Ry
     estimated scf accuracy    <       1.30587357 Ry

     iteration # 38     ecut=    30.00 Ry     beta=0.70
     Davidson diagonalization with overlap
     ethr =  7.56E-03,  avg # of iterations =  1.0

     negative rho (up, down):  1.137E-04 0.000E+00

     total cpu time spent up to now is        1.6 secs

     total energy              =     -32.04005776 Ry
     Harris-Foulkes estimate   =     -32.05109505 Ry
     estimated scf accuracy    <       1.33744187 Ry

     iteration # 39     ecut=    30.00 Ry     beta=0.70
     Davidson diagonalization with overlap
     ethr =  7.56E-03,  avg # of iterations =  1.0

     negative rho (up, down):  8.582E-05 0.000E+00

     total cpu time spent up to now is        1.6 secs

     total energy              =     -32.04487748 Ry
     Harris-Foulkes estimate   =     -32.04006861 Ry
     estimated scf accuracy    <       1.32123092 Ry

     iteration # 40     ecut=    30.00 Ry     beta=0.70
     Davidson diagonalization with overlap
     ethr =  7.56E-03,  avg # of iterations =  1.0

     negative rho (up, down):  5.718E-04 0.000E+00

     total cpu time spent up to now is        1.7 secs

     total energy              =     -32.03410215 Ry
     Harris-Foulkes estimate   =     -32.04487934 Ry
     estimated scf accuracy    <       1.32868962 Ry

     iteration # 41     ecut=    30.00 Ry     beta=0.70
     Davidson diagonalization with overlap
     ethr =  7.56E-03,  avg # of iterations =  1.0

     negative rho (up, down):  1.612E-03 0.000E+00

     total cpu time spent up to now is        1.7 secs

     total energy              =     -32.00672220 Ry
     Harris-Foulkes estimate   =     -32.03410925 Ry
     estimated scf accuracy    <       1.31244654 Ry

     iteration # 42     ecut=    30.00 Ry     beta=0.70
     Davidson diagonalization with overlap
     ethr =  7.56E-03,  avg # of iterations =  1.0

     negative rho (up, down):  1.038E-02 0.000E+00

     total cpu time spent up to now is        1.7 secs

     total energy              =     -31.63332652 Ry
     Harris-Foulkes estimate   =     -32.00665754 Ry
     estimated scf accuracy    <       1.33587611 Ry

     iteration # 43     ecut=    30.00 Ry     beta=0.70
     Davidson diagonalization with overlap
     ethr =  7.56E-03,  avg # of iterations =  1.0

     negative rho (up, down):  3.869E-04 0.000E+00

     total cpu time spent up to now is        1.8 secs

     total energy              =     -32.08545239 Ry
     Harris-Foulkes estimate   =     -32.23285522 Ry
     estimated scf accuracy    <       1.32798122 Ry

     iteration # 44     ecut=    30.00 Ry     beta=0.70
     Davidson diagonalization with overlap
     ethr =  7.56E-03,  avg # of iterations =  1.0

     total cpu time spent up to now is        1.8 secs

     total energy              =     -31.95079428 Ry
     Harris-Foulkes estimate   =     -32.08694300 Ry
     estimated scf accuracy    <       1.11304896 Ry

     iteration # 45     ecut=    30.00 Ry     beta=0.70
     Davidson diagonalization with overlap
     ethr =  7.56E-03,  avg # of iterations =  1.0

     total cpu time spent up to now is        1.8 secs

     total energy              =     -31.93514921 Ry
     Harris-Foulkes estimate   =     -31.95465647 Ry
     estimated scf accuracy    <       0.49188874 Ry

     iteration # 46     ecut=    30.00 Ry     beta=0.70
     Davidson diagonalization with overlap
     ethr =  6.15E-03,  avg # of iterations =  1.0

     negative rho (up, down):  4.347E-08 0.000E+00

     total cpu time spent up to now is        1.9 secs

     total energy              =     -31.93790889 Ry
     Harris-Foulkes estimate   =     -31.94640660 Ry
     estimated scf accuracy    <       0.04509612 Ry

     iteration # 47     ecut=    30.00 Ry     beta=0.70
     Davidson diagonalization with overlap
     ethr =  5.64E-04,  avg # of iterations =  1.0

     total cpu time spent up to now is        1.9 secs

     total energy              =     -31.92699290 Ry
     Harris-Foulkes estimate   =     -31.96700132 Ry
     estimated scf accuracy    <       0.82271024 Ry

     iteration # 48     ecut=    30.00 Ry     beta=0.70
     Davidson diagonalization with overlap
     ethr =  5.64E-04,  avg # of iterations =  1.0

     total cpu time spent up to now is        1.9 secs

     total energy              =     -31.94707294 Ry
     Harris-Foulkes estimate   =     -31.94679090 Ry
     estimated scf accuracy    <       0.07769864 Ry

     iteration # 49     ecut=    30.00 Ry     beta=0.70
     Davidson diagonalization with overlap
     ethr =  5.64E-04,  avg # of iterations =  1.0

     total cpu time spent up to now is        2.0 secs

     total energy              =     -31.93972980 Ry
     Harris-Foulkes estimate   =     -31.94710264 Ry
     estimated scf accuracy    <       0.10311574 Ry

     iteration # 50     ecut=    30.00 Ry     beta=0.70
     Davidson diagonalization with overlap
     ethr =  5.64E-04,  avg # of iterations =  1.0

     total cpu time spent up to now is        2.0 secs

     total energy              =     -31.94448964 Ry
     Harris-Foulkes estimate   =     -31.95009717 Ry
     estimated scf accuracy    <       0.27693794 Ry

     iteration # 51     ecut=    30.00 Ry     beta=0.70
     Davidson diagonalization with overlap
     ethr =  5.64E-04,  avg # of iterations =  1.0

     total cpu time spent up to now is        2.0 secs

     total energy              =     -31.94485303 Ry
     Harris-Foulkes estimate   =     -31.94624040 Ry
     estimated scf accuracy    <       0.03190973 Ry

     iteration # 52     ecut=    30.00 Ry     beta=0.70
     Davidson diagonalization with overlap
     ethr =  3.99E-04,  avg # of iterations =  1.0

     negative rho (up, down):  3.680E-08 0.000E+00

     total cpu time spent up to now is        2.1 secs

     total energy              =     -31.94480908 Ry
     Harris-Foulkes estimate   =     -31.94603252 Ry
     estimated scf accuracy    <       0.01647824 Ry

     iteration # 53     ecut=    30.00 Ry     beta=0.70
     Davidson diagonalization with overlap
     ethr =  2.06E-04,  avg # of iterations =  1.0

     negative rho (up, down):  8.117E-08 0.000E+00

     total cpu time spent up to now is        2.1 secs

     total energy              =     -31.94595067 Ry
     Harris-Foulkes estimate   =     -31.94658686 Ry
     estimated scf accuracy    <       0.05697919 Ry

     iteration # 54     ecut=    30.00 Ry     beta=0.70
     Davidson diagonalization with overlap
     ethr =  2.06E-04,  avg # of iterations =  1.0

     negative rho (up, down):  1.191E-07 0.000E+00

     total cpu time spent up to now is        2.1 secs

     total energy              =     -31.94568405 Ry
     Harris-Foulkes estimate   =     -31.94607738 Ry
     estimated scf accuracy    <       0.02009075 Ry

     iteration # 55     ecut=    30.00 Ry     beta=0.70
     Davidson diagonalization with overlap
     ethr =  2.06E-04,  avg # of iterations =  1.0

     total cpu time spent up to now is        2.2 secs

     total energy              =     -31.94585953 Ry
     Harris-Foulkes estimate   =     -31.94582918 Ry
     estimated scf accuracy    <       0.00126655 Ry

     iteration # 56     ecut=    30.00 Ry     beta=0.70
     Davidson diagonalization with overlap
     ethr =  1.58E-05,  avg # of iterations =  6.0

     total cpu time spent up to now is        2.2 secs

     total energy              =     -31.94575037 Ry
     Harris-Foulkes estimate   =     -31.94587484 Ry
     estimated scf accuracy    <       0.00489943 Ry

     iteration # 57     ecut=    30.00 Ry     beta=0.70
     Davidson diagonalization with overlap
     ethr =  1.58E-05,  avg # of iterations =  1.0

     total cpu time spent up to now is        2.2 secs

     total energy              =     -31.94581066 Ry
     Harris-Foulkes estimate   =     -31.94581198 Ry
     estimated scf accuracy    <       0.00000211 Ry

     iteration # 58     ecut=    30.00 Ry     beta=0.70
     Davidson diagonalization with overlap
     c_bands:  1 eigenvalues not converged
     ethr =  2.64E-08,  avg # of iterations = 20.0

     total cpu time spent up to now is        2.3 secs

     total energy              =     -31.94581168 Ry
     Harris-Foulkes estimate   =     -31.94581133 Ry
     estimated scf accuracy    <       0.00001772 Ry

     iteration # 59     ecut=    30.00 Ry     beta=0.70
     Davidson diagonalization with overlap
     ethr =  2.64E-08,  avg # of iterations =  1.0

     total cpu time spent up to now is        2.3 secs

     total energy              =     -31.94581141 Ry
     Harris-Foulkes estimate   =     -31.94581173 Ry
     estimated scf accuracy    <       0.00000594 Ry

     iteration # 60     ecut=    30.00 Ry     beta=0.70
     Davidson diagonalization with overlap
     ethr =  2.64E-08,  avg # of iterations =  1.0

     total cpu time spent up to now is        2.4 secs

     total energy              =     -31.94581161 Ry
     Harris-Foulkes estimate   =     -31.94581154 Ry
     estimated scf accuracy    <       0.00000040 Ry

     iteration # 61     ecut=    30.00 Ry     beta=0.70
     Davidson diagonalization with overlap
     ethr =  5.00E-09,  avg # of iterations =  1.0

     total cpu time spent up to now is        2.4 secs

     End of self-consistent calculation

          k = 0.0000 0.0000 0.0000 ( 22119 PWs)   bands (ev):

   -24.8114 -10.6563  -7.0694  -7.0687  -6.9308  -0.7205   0.3130   0.8111

     the Fermi energy is    -6.8990 ev

!    total energy              =     -31.94581160 Ry
     Harris-Foulkes estimate   =     -31.94581161 Ry
     estimated scf accuracy    <          1.1E-09 Ry

     convergence has been achieved in  61 iterations

     Forces acting on atoms (Ry/au):

     atom    1 type  1   force =    -0.00035829   -0.00026965    0.00016125
     atom    2 type  1   force =     0.00624802   -0.00917048    0.01155063
     atom    3 type  2   force =    -0.00588972    0.00944013   -0.01171188

     Total force =     0.022754     Total SCF correction =     0.000151

     Molecular Dynamics Calculation

     Starting temperature  =  1000.00 K

     temperature is controlled by Andersen thermostat
     Collision frequency = 1.0000/timestep
     mass H                =     1.01
     mass O                =    16.00
     Time step             =   100.00 a.u.,  4.8378 femto-seconds

     Entering Dynamics:    iteration =     1
                           time      =   0.0048 pico-seconds


     Andersen thermostat:    3 collisions

ATOMIC_POSITIONS (bohr)
H        6.529157801  18.094990038   6.702248359
H        0.411348964   4.832961599   3.460577222
O       19.536156424   6.112694121   2.211720609


     kinetic energy (Ekin) =     0.03833135 Ry
     temperature           =  2017.34462905 K 
     Ekin + Etot (const)   =   -31.90748025 Ry

     Linear momentum :    0.0000000000   -0.0000000000   -0.0000000000

     Writing output data file pwscf.save
     Check: negative starting charge=   -0.349142
     NEW-OLD atomic charge density approx. for the potential
     Check: negative starting charge=   -0.348955

     negative rho (up, down):  9.506E-02 0.000E+00

     total cpu time spent up to now is        2.7 secs

     per-process dynamical memory:    20.4 Mb

     Self-consistent Calculation

     iteration #  1     ecut=    30.00 Ry     beta=0.70
     Davidson diagonalization with overlap
     c_bands:  1 eigenvalues not converged
     ethr =  1.00E-06,  avg # of iterations = 20.0

     negative rho (up, down):  2.371E-02 0.000E+00

     total cpu time spent up to now is        2.8 secs

     total energy              =     -30.60158531 Ry
     Harris-Foulkes estimate   =     -31.95778280 Ry
     estimated scf accuracy    <       1.58755576 Ry

     iteration #  2     ecut=    30.00 Ry     beta=0.70
     Davidson diagonalization with overlap
     ethr =  1.00E-02,  avg # of iterations =  4.0

     negative rho (up, down):  1.749E-02 0.000E+00

     total cpu time spent up to now is        2.8 secs

     total energy              =     -32.42788287 Ry
     Harris-Foulkes estimate   =     -34.38350920 Ry
     estimated scf accuracy    <       4.96976416 Ry

     iteration #  3     ecut=    30.00 Ry     beta=0.70
     Davidson diagonalization with overlap
     ethr =  1.00E-02,  avg # of iterations =  2.0

     negative rho (up, down):  1.448E-02 0.000E+00

     total cpu time spent up to now is        2.9 secs

     total energy              =     -32.24143324 Ry
     Harris-Foulkes estimate   =     -32.60068628 Ry
     estimated scf accuracy    <       1.81934447 Ry

     iteration #  4     ecut=    30.00 Ry     beta=0.70
     Davidson diagonalization with overlap
     ethr =  1.00E-02,  avg # of iterations =  2.0

     negative rho (up, down):  9.903E-03 0.000E+00

     total cpu time spent up to now is        2.9 secs

     total energy              =     -31.79161056 Ry
     Harris-Foulkes estimate   =     -32.24352684 Ry
     estimated scf accuracy    <       1.34510923 Ry

     iteration #  5     ecut=    30.00 Ry     beta=0.70
     Davidson diagonalization with overlap
     ethr =  1.00E-02,  avg # of iterations =  2.0

     negative rho (up, down):  6.014E-03 0.000E+00

     total cpu time spent up to now is        2.9 secs

     total energy              =     -31.85057725 Ry
     Harris-Foulkes estimate   =     -32.08909028 Ry
     estimated scf accuracy    <       1.41025248 Ry

     iteration #  6     ecut=    30.00 Ry     beta=0.70
     Davidson diagonalization with overlap
     ethr =  1.00E-02,  avg # of iterations =  1.0

     negative rho (up, down):  2.466E-03 0.000E+00

     total cpu time spent up to now is        3.0 secs

     total energy              =     -31.92843390 Ry
     Harris-Foulkes estimate   =     -31.99574306 Ry
     estimated scf accuracy    <       0.95656498 Ry

     iteration #  7     ecut=    30.00 Ry     beta=0.70
     Davidson diagonalization with overlap
     ethr =  1.00E-02,  avg # of iterations =  1.0

     negative rho (up, down):  1.670E-03 0.000E+00

     total cpu time spent up to now is        3.0 secs

     total energy              =     -31.94576715 Ry
     Harris-Foulkes estimate   =     -31.94461398 Ry
     estimated scf accuracy    <       0.00160127 Ry

     iteration #  8     ecut=    30.00 Ry     beta=0.70
     Davidson diagonalization with overlap
     ethr =  2.00E-05,  avg # of iterations = 10.0

     negative rho (up, down):  3.346E-04 0.000E+00

     total cpu time spent up to now is        3.0 secs

     total energy              =     -31.93307048 Ry
     Harris-Foulkes estimate   =     -31.94831955 Ry
     estimated scf accuracy    <       0.23995706 Ry

     iteration #  9     ecut=    30.00 Ry     beta=0.70
     Davidson diagonalization with overlap
     ethr =  2.00E-05,  avg # of iterations =  3.0

     total cpu time spent up to now is        3.1 secs

     total energy              =     -31.91397124 Ry
     Harris-Foulkes estimate   =     -31.95291969 Ry
     estimated scf accuracy    <       0.42446894 Ry

     iteration # 10     ecut=    30.00 Ry     beta=0.70
     Davidson diagonalization with overlap
     ethr =  2.00E-05,  avg # of iterations =  4.0

     total cpu time spent up to now is        3.1 secs

     total energy              =     -31.97837170 Ry
     Harris-Foulkes estimate   =     -31.97716452 Ry
     estimated scf accuracy    <       1.60111499 Ry

     iteration # 11     ecut=    30.00 Ry     beta=0.70
     Davidson diagonalization with overlap
     ethr =  2.00E-05,  avg # of iterations =  1.0

     negative rho (up, down):  1.064E-08 0.000E+00

     total cpu time spent up to now is        3.1 secs

     total energy              =     -31.93757715 Ry
     Harris-Foulkes estimate   =     -31.97837371 Ry
     estimated scf accuracy    <       1.60869331 Ry

     iteration # 12     ecut=    30.00 Ry     beta=0.70
     Davidson diagonalization with overlap
     ethr =  2.00E-05,  avg # of iterations =  2.0

     total cpu time spent up to now is        3.2 secs

     total energy              =     -31.94032944 Ry
     Harris-Foulkes estimate   =     -31.94778447 Ry
     estimated scf accuracy    <       0.16327485 Ry

     iteration # 13     ecut=    30.00 Ry     beta=0.70
     Davidson diagonalization with overlap
     ethr =  2.00E-05,  avg # of iterations =  1.0

     total cpu time spent up to now is        3.2 secs

     total energy              =     -31.94967792 Ry
     Harris-Foulkes estimate   =     -31.94715828 Ry
     estimated scf accuracy    <       0.09978614 Ry

     iteration # 14     ecut=    30.00 Ry     beta=0.70
     Davidson diagonalization with overlap
     ethr =  2.00E-05,  avg # of iterations =  1.0

     total cpu time spent up to now is        3.3 secs

     total energy              =     -31.93699771 Ry
     Harris-Foulkes estimate   =     -31.95064506 Ry
     estimated scf accuracy    <       0.30839779 Ry

     iteration # 15     ecut=    30.00 Ry     beta=0.70
     Davidson diagonalization with overlap
     ethr =  2.00E-05,  avg # of iterations =  1.0

     total cpu time spent up to now is        3.3 secs

     total energy              =     -31.94474779 Ry
     Harris-Foulkes estimate   =     -31.94714029 Ry
     estimated scf accuracy    <       0.11229397 Ry

     iteration # 16     ecut=    30.00 Ry     beta=0.70
     Davidson diagonalization with overlap
     ethr =  2.00E-05,  avg # of iterations =  1.0

     total cpu time spent up to now is        3.3 secs

     total energy              =     -31.94577114 Ry
     Harris-Foulkes estimate   =     -31.94578161 Ry
     estimated scf accuracy    <       0.00208370 Ry

     iteration # 17     ecut=    30.00 Ry     beta=0.70
     Davidson diagonalization with overlap
     ethr =  2.00E-05,  avg # of iterations =  1.0

     total cpu time spent up to now is        3.3 secs

     total energy              =     -31.94576431 Ry
     Harris-Foulkes estimate   =     -31.94577245 Ry
     estimated scf accuracy    <       0.00132443 Ry

     iteration # 18     ecut=    30.00 Ry     beta=0.70
     Davidson diagonalization with overlap
     ethr =  1.66E-05,  avg # of iterations =  1.0

     total cpu time spent up to now is        3.4 secs

     total energy              =     -31.94576598 Ry
     Harris-Foulkes estimate   =     -31.94576537 Ry
     estimated scf accuracy    <       0.00075013 Ry

     iteration # 19     ecut=    30.00 Ry     beta=0.70
     Davidson diagonalization with overlap
     ethr =  9.38E-06,  avg # of iterations =  1.0

     total cpu time spent up to now is        3.4 secs

     total energy              =     -31.94576752 Ry
     Harris-Foulkes estimate   =     -31.94576602 Ry
     estimated scf accuracy    <       0.00080111 Ry

     iteration # 20     ecut=    30.00 Ry     beta=0.70
     Davidson diagonalization with overlap
     ethr =  9.38E-06,  avg # of iterations =  1.0

     negative rho (up, down):  4.660E-08 0.000E+00

     total cpu time spent up to now is        3.5 secs

     total energy              =     -31.94567508 Ry
     Harris-Foulkes estimate   =     -31.94576757 Ry
     estimated scf accuracy    <       0.00091219 Ry

     iteration # 21     ecut=    30.00 Ry     beta=0.70
     Davidson diagonalization with overlap
     ethr =  9.38E-06,  avg # of iterations =  1.0

     negative rho (up, down):  4.641E-08 0.000E+00

     total cpu time spent up to now is        3.5 secs

     total energy              =     -31.94596720 Ry
     Harris-Foulkes estimate   =     -31.94587663 Ry
     estimated scf accuracy    <       0.00904552 Ry

     iteration # 22     ecut=    30.00 Ry     beta=0.70
     Davidson diagonalization with overlap
     ethr =  9.38E-06,  avg # of iterations =  1.0

     total cpu time spent up to now is        3.5 secs

     total energy              =     -31.94571375 Ry
     Harris-Foulkes estimate   =     -31.94598530 Ry
     estimated scf accuracy    <       0.01722153 Ry

     iteration # 23     ecut=    30.00 Ry     beta=0.70
     Davidson diagonalization with overlap
     ethr =  9.38E-06,  avg # of iterations =  1.0

     negative rho (up, down):  1.661E-08 0.000E+00

     total cpu time spent up to now is        3.6 secs

     total energy              =     -31.94575135 Ry
     Harris-Foulkes estimate   =     -31.94579389 Ry
     estimated scf accuracy    <       0.00280703 Ry

     iteration # 24     ecut=    30.00 Ry     beta=0.70
     Davidson diagonalization with overlap
     ethr =  9.38E-06,  avg # of iterations =  1.0

     negative rho (up, down):  3.398E-07 0.000E+00

     total cpu time spent up to now is        3.6 secs

     total energy              =     -31.94575598 Ry
     Harris-Foulkes estimate   =     -31.94576454 Ry
     estimated scf accuracy    <       0.00044710 Ry

     iteration # 25     ecut=    30.00 Ry     beta=0.70
     Davidson diagonalization with overlap
     ethr =  5.59E-06,  avg # of iterations =  1.0

     negative rho (up, down):  1.774E-07 0.000E+00

     total cpu time spent up to now is        3.6 secs

     total energy              =     -31.94575753 Ry
     Harris-Foulkes estimate   =     -31.94575889 Ry
     estimated scf accuracy    <       0.00004100 Ry

     iteration # 26     ecut=    30.00 Ry     beta=0.70
     Davidson diagonalization with overlap
     ethr =  5.13E-07,  avg # of iterations =  1.0

     negative rho (up, down):  1.334E-08 0.000E+00

     total cpu time spent up to now is        3.7 secs

     total energy              =     -31.94575781 Ry
     Harris-Foulkes estimate   =     -31.94575779 Ry
     estimated scf accuracy    <       0.00001693 Ry

     iteration # 27     ecut=    30.00 Ry     beta=0.70
     Davidson diagonalization with overlap
     ethr =  2.12E-07,  avg # of iterations =  1.0

     total cpu time spent up to now is        3.7 secs

     total energy              =     -31.94575792 Ry
     Harris-Foulkes estimate   =     -31.94575805 Ry
     estimated scf accuracy    <       0.00000140 Ry

     iteration # 28     ecut=    30.00 Ry     beta=0.70
     Davidson diagonalization with overlap
     ethr =  1.75E-08,  avg # of iterations =  1.0

     total cpu time spent up to now is        3.7 secs

     total energy              =     -31.94575787 Ry
     Harris-Foulkes estimate   =     -31.94575797 Ry
     estimated scf accuracy    <       0.00000008 Ry

     iteration # 29     ecut=    30.00 Ry     beta=0.70
     Davidson diagonalization with overlap
     ethr =  9.76E-10,  avg # of iterations =  1.0

     total cpu time spent up to now is        3.8 secs

     End of self-consistent calculation

          k = 0.0000 0.0000 0.0000 ( 22119 PWs)   bands (ev):

   -24.8180 -10.6642  -7.0772  -7.0765  -6.9388  -0.7260   0.2933   0.8133

     the Fermi energy is    -6.9070 ev

!    total energy              =     -31.94575784 Ry
     Harris-Foulkes estimate   =     -31.94575787 Ry
     estimated scf accuracy    <          1.1E-09 Ry

     convergence has been achieved in  29 iterations

     Forces acting on atoms (Ry/au):

     atom    1 type  1   force =    -0.00051521    0.00006357   -0.00003499
     atom    2 type  1   force =     0.00538618   -0.00998343    0.00993171
     atom    3 type  2   force =    -0.00487097    0.00991986   -0.00989673

     Total force =     0.021158     Total SCF correction =     0.000035

     Entering Dynamics:    iteration =     2
                           time      =   0.0097 pico-seconds


     Andersen thermostat:    3 collisions

ATOMIC_POSITIONS (bohr)
H        6.558244298  17.790464749   6.760571528
H        0.473412416   4.521321281   3.702813870
O       19.530402584   6.151589575   2.192747770


     kinetic energy (Ekin) =     0.01039006 Ry
     temperature           =   546.81982388 K 
     Ekin + Etot (const)   =   -31.93536778 Ry
     Message from routine dynamics:
     Total linear momentum <> 0

     Linear momentum :    0.0403264523   -0.0467690797    0.0425028931

     Writing output data file pwscf.save

     first order wave-functions extrapolation
     Check: negative starting charge=   -0.348955
     first order charge density extrapolation
     Check: negative starting charge=   -0.347180

     negative rho (up, down):  1.832E-01 0.000E+00

     total cpu time spent up to now is        4.1 secs

     per-process dynamical memory:    20.4 Mb

     Self-consistent Calculation

     iteration #  1     ecut=    30.00 Ry     beta=0.70
     Davidson diagonalization with overlap
     c_bands:  1 eigenvalues not converged
     ethr =  1.00E-06,  avg # of iterations = 20.0

     negative rho (up, down):  4.624E-02 0.000E+00

     total cpu time spent up to now is        4.2 secs

     total energy              =     -30.66873803 Ry
     Harris-Foulkes estimate   =     -31.85095174 Ry
     estimated scf accuracy    <       1.50419774 Ry

     iteration #  2     ecut=    30.00 Ry     beta=0.70
     Davidson diagonalization with overlap
     ethr =  1.00E-02,  avg # of iterations =  3.0

     negative rho (up, down):  3.477E-02 0.000E+00

     total cpu time spent up to now is        4.3 secs

     total energy              =     -32.23882936 Ry
     Harris-Foulkes estimate   =     -34.25455153 Ry
     estimated scf accuracy    <       5.31200192 Ry

     iteration #  3     ecut=    30.00 Ry     beta=0.70
     Davidson diagonalization with overlap
     ethr =  1.00E-02,  avg # of iterations =  2.0

     negative rho (up, down):  2.950E-02 0.000E+00

     total cpu time spent up to now is        4.3 secs

     total energy              =     -32.16720252 Ry
     Harris-Foulkes estimate   =     -32.46294196 Ry
     estimated scf accuracy    <       1.75707569 Ry

     iteration #  4     ecut=    30.00 Ry     beta=0.70
     Davidson diagonalization with overlap
     ethr =  1.00E-02,  avg # of iterations =  1.0

     negative rho (up, down):  2.054E-02 0.000E+00

     total cpu time spent up to now is        4.3 secs

     total energy              =     -31.73416739 Ry
     Harris-Foulkes estimate   =     -32.16871481 Ry
     estimated scf accuracy    <       1.37069416 Ry

     iteration #  5     ecut=    30.00 Ry     beta=0.70
     Davidson diagonalization with overlap
     ethr =  1.00E-02,  avg # of iterations =  4.0

     negative rho (up, down):  4.037E-03 0.000E+00

     total cpu time spent up to now is        4.4 secs

     total energy              =     -31.89049291 Ry
     Harris-Foulkes estimate   =     -32.02065352 Ry
     estimated scf accuracy    <       1.40072087 Ry

     iteration #  6     ecut=    30.00 Ry     beta=0.70
     Davidson diagonalization with overlap
     ethr =  1.00E-02,  avg # of iterations =  1.0

     negative rho (up, down):  6.947E-04 0.000E+00

     total cpu time spent up to now is        4.4 secs

     total energy              =     -31.85456193 Ry
     Harris-Foulkes estimate   =     -31.89464570 Ry
     estimated scf accuracy    <       0.16461206 Ry

     iteration #  7     ecut=    30.00 Ry     beta=0.70
     Davidson diagonalization with overlap
     ethr =  2.06E-03,  avg # of iterations =  1.0

     negative rho (up, down):  1.806E-04 0.000E+00

     total cpu time spent up to now is        4.4 secs

     total energy              =     -31.93025632 Ry
     Harris-Foulkes estimate   =     -31.98537008 Ry
     estimated scf accuracy    <       1.04936307 Ry

     iteration #  8     ecut=    30.00 Ry     beta=0.70
     Davidson diagonalization with overlap
     ethr =  2.06E-03,  avg # of iterations =  1.0

     negative rho (up, down):  1.817E-04 0.000E+00

     total cpu time spent up to now is        4.5 secs

     total energy              =     -31.93116145 Ry
     Harris-Foulkes estimate   =     -31.93045244 Ry
     estimated scf accuracy    <       0.95969023 Ry

     iteration #  9     ecut=    30.00 Ry     beta=0.70
     Davidson diagonalization with overlap
     ethr =  2.06E-03,  avg # of iterations =  1.0

     negative rho (up, down):  1.836E-04 0.000E+00

     total cpu time spent up to now is        4.5 secs

     total energy              =     -31.93093370 Ry
     Harris-Foulkes estimate   =     -31.93116827 Ry
     estimated scf accuracy    <       0.96085980 Ry

     iteration # 10     ecut=    30.00 Ry     beta=0.70
     Davidson diagonalization with overlap
     ethr =  2.06E-03,  avg # of iterations =  1.0

     negative rho (up, down):  4.414E-04 0.000E+00

     total cpu time spent up to now is        4.5 secs

     total energy              =     -31.87752662 Ry
     Harris-Foulkes estimate   =     -31.93093464 Ry
     estimated scf accuracy    <       0.95949230 Ry

     iteration # 11     ecut=    30.00 Ry     beta=0.70
     Davidson diagonalization with overlap
     ethr =  2.06E-03,  avg # of iterations =  1.0

     negative rho (up, down):  1.769E-05 0.000E+00

     total cpu time spent up to now is        4.6 secs

     total energy              =     -31.89702349 Ry
     Harris-Foulkes estimate   =     -31.89539870 Ry
     estimated scf accuracy    <       0.01205250 Ry

     iteration # 12     ecut=    30.00 Ry     beta=0.70
     Davidson diagonalization with overlap
     ethr =  1.51E-04,  avg # of iterations =  3.0

     negative rho (up, down):  1.664E-06 0.000E+00

     total cpu time spent up to now is        4.6 secs

     total energy              =     -31.89831038 Ry
     Harris-Foulkes estimate   =     -31.90110258 Ry
     estimated scf accuracy    <       0.46678640 Ry

     iteration # 13     ecut=    30.00 Ry     beta=0.70
     Davidson diagonalization with overlap
     ethr =  1.51E-04,  avg # of iterations =  1.0

     negative rho (up, down):  1.730E-06 0.000E+00

     total cpu time spent up to now is        4.6 secs

     total energy              =     -31.89769052 Ry
     Harris-Foulkes estimate   =     -31.89863441 Ry
     estimated scf accuracy    <       0.27355986 Ry

     iteration # 14     ecut=    30.00 Ry     beta=0.70
     Davidson diagonalization with overlap
     ethr =  1.51E-04,  avg # of iterations =  1.0

     negative rho (up, down):  1.057E-04 0.000E+00

     total cpu time spent up to now is        4.7 secs

     total energy              =     -31.90373006 Ry
     Harris-Foulkes estimate   =     -31.89775547 Ry
     estimated scf accuracy    <       0.20317577 Ry

     iteration # 15     ecut=    30.00 Ry     beta=0.70
     Davidson diagonalization with overlap
     ethr =  1.51E-04,  avg # of iterations =  1.0

     negative rho (up, down):  2.813E-05 0.000E+00

     total cpu time spent up to now is        4.7 secs

     total energy              =     -31.89815375 Ry
     Harris-Foulkes estimate   =     -31.90702621 Ry
     estimated scf accuracy    <       0.88301311 Ry

     iteration # 16     ecut=    30.00 Ry     beta=0.70
     Davidson diagonalization with overlap
     ethr =  1.51E-04,  avg # of iterations =  1.0

     negative rho (up, down):  5.648E-05 0.000E+00

     total cpu time spent up to now is        4.7 secs

     total energy              =     -31.89648030 Ry
     Harris-Foulkes estimate   =     -31.89967757 Ry
     estimated scf accuracy    <       0.35995742 Ry

     iteration # 17     ecut=    30.00 Ry     beta=0.70
     Davidson diagonalization with overlap
     ethr =  1.51E-04,  avg # of iterations =  1.0

     negative rho (up, down):  1.009E-06 0.000E+00

     total cpu time spent up to now is        4.8 secs

     total energy              =     -31.89027651 Ry
     Harris-Foulkes estimate   =     -31.89701122 Ry
     estimated scf accuracy    <       0.15525710 Ry

     iteration # 18     ecut=    30.00 Ry     beta=0.70
     Davidson diagonalization with overlap
     ethr =  1.51E-04,  avg # of iterations =  1.0

     negative rho (up, down):  3.869E-08 0.000E+00

     total cpu time spent up to now is        4.8 secs

     total energy              =     -31.89916606 Ry
     Harris-Foulkes estimate   =     -31.89644884 Ry
     estimated scf accuracy    <       0.08605122 Ry

     iteration # 19     ecut=    30.00 Ry     beta=0.70
     Davidson diagonalization with overlap
     ethr =  1.51E-04,  avg # of iterations =  1.0

     negative rho (up, down):  6.555E-07 0.000E+00

     total cpu time spent up to now is        4.8 secs

     total energy              =     -31.89091116 Ry
     Harris-Foulkes estimate   =     -31.90049774 Ry
     estimated scf accuracy    <       0.32804018 Ry

     iteration # 20     ecut=    30.00 Ry     beta=0.70
     Davidson diagonalization with overlap
     ethr =  1.51E-04,  avg # of iterations =  1.0

     negative rho (up, down):  5.116E-06 0.000E+00

     total cpu time spent up to now is        4.9 secs

     total energy              =     -31.89525402 Ry
     Harris-Foulkes estimate   =     -31.89526363 Ry
     estimated scf accuracy    <       0.00011124 Ry

     iteration # 21     ecut=    30.00 Ry     beta=0.70
     Davidson diagonalization with overlap
     c_bands:  1 eigenvalues not converged
     ethr =  1.39E-06,  avg # of iterations = 20.0

     negative rho (up, down):  9.137E-07 0.000E+00

     total cpu time spent up to now is        4.9 secs

     total energy              =     -31.89527312 Ry
     Harris-Foulkes estimate   =     -31.89526857 Ry
     estimated scf accuracy    <       0.00052355 Ry

     iteration # 22     ecut=    30.00 Ry     beta=0.70
     Davidson diagonalization with overlap
     ethr =  1.39E-06,  avg # of iterations = 17.0

     negative rho (up, down):  1.215E-07 0.000E+00

     total cpu time spent up to now is        5.0 secs

     total energy              =     -31.89525980 Ry
     Harris-Foulkes estimate   =     -31.89527407 Ry
     estimated scf accuracy    <       0.00087497 Ry

     iteration # 23     ecut=    30.00 Ry     beta=0.70
     Davidson diagonalization with overlap
     ethr =  1.39E-06,  avg # of iterations =  1.0

     negative rho (up, down):  1.696E-08 0.000E+00

     total cpu time spent up to now is        5.0 secs

     total energy              =     -31.89526279 Ry
     Harris-Foulkes estimate   =     -31.89526422 Ry
     estimated scf accuracy    <       0.00012228 Ry

     iteration # 24     ecut=    30.00 Ry     beta=0.70
     Davidson diagonalization with overlap
     ethr =  1.39E-06,  avg # of iterations =  1.0

     total cpu time spent up to now is        5.0 secs

     total energy              =     -31.89526132 Ry
     Harris-Foulkes estimate   =     -31.89526310 Ry
     estimated scf accuracy    <       0.00003942 Ry

     iteration # 25     ecut=    30.00 Ry     beta=0.70
     Davidson diagonalization with overlap
     ethr =  4.93E-07,  avg # of iterations =  1.0

     total cpu time spent up to now is        5.1 secs

     total energy              =     -31.89526198 Ry
     Harris-Foulkes estimate   =     -31.89526200 Ry
     estimated scf accuracy    <       0.00000074 Ry

     iteration # 26     ecut=    30.00 Ry     beta=0.70
     Davidson diagonalization with overlap
     ethr =  9.27E-09,  avg # of iterations =  1.0

     total cpu time spent up to now is        5.1 secs

     total energy              =     -31.89526197 Ry
     Harris-Foulkes estimate   =     -31.89526200 Ry
     estimated scf accuracy    <       0.00000004 Ry

     iteration # 27     ecut=    30.00 Ry     beta=0.70
     Davidson diagonalization with overlap
     ethr =  5.50E-10,  avg # of iterations =  1.0

     total cpu time spent up to now is        5.1 secs

     End of self-consistent calculation

          k = 0.0000 0.0000 0.0000 ( 22119 PWs)   bands (ev):

   -24.0821  -9.9738  -7.0006  -6.9998  -6.8652  -1.6494   0.0646   0.8107

     the Fermi energy is    -6.8314 ev

!    total energy              =     -31.89526197 Ry
     Harris-Foulkes estimate   =     -31.89526197 Ry
     estimated scf accuracy    <          1.0E-09 Ry

     convergence has been achieved in  27 iterations

     Forces acting on atoms (Ry/au):

     atom    1 type  1   force =    -0.00058432   -0.00033637    0.00017267
     atom    2 type  1   force =    -0.07540295    0.12918118   -0.11933010
     atom    3 type  2   force =     0.07598726   -0.12884480    0.11915743

     Total force =     0.270531     Total SCF correction =     0.000135

     Entering Dynamics:    iteration =     3
                           time      =   0.0145 pico-seconds


     Andersen thermostat:    3 collisions

ATOMIC_POSITIONS (bohr)
H        6.472789574  17.980484205   6.870046147
H        0.159498636   6.123091631   1.956706442
O       19.555612721   6.038482843   2.296060217


     kinetic energy (Ekin) =     0.10512804 Ry
     temperature           =  5532.79489775 K 
     Ekin + Etot (const)   =   -31.79013393 Ry
     Message from routine dynamics:
     Total linear momentum <> 0

     Linear momentum :   -0.4441401620    0.1910587082    0.1349989965

     Writing output data file pwscf.save

     second order wave-functions extrapolation
     Check: negative starting charge=   -0.347180
     second order charge density extrapolation
     Check: negative starting charge=   -0.352351

     negative rho (up, down):  3.394E-01 0.000E+00

     total cpu time spent up to now is        5.5 secs

     per-process dynamical memory:    20.4 Mb

     Self-consistent Calculation

     iteration #  1     ecut=    30.00 Ry     beta=0.70
     Davidson diagonalization with overlap
     ethr =  1.00E-06,  avg # of iterations = 13.0

     negative rho (up, down):  4.609E-02 0.000E+00

     total cpu time spent up to now is        5.6 secs

     total energy              =      66.43966392 Ry
     Harris-Foulkes estimate   =    -854.65703830 Ry
     estimated scf accuracy    <      29.21232292 Ry

     iteration #  2     ecut=    30.00 Ry     beta=0.70
     Davidson diagonalization with overlap
     ethr =  1.00E-02,  avg # of iterations =  6.0

     negative rho (up, down):  2.844E-02 0.000E+00

     total cpu time spent up to now is        5.7 secs

     total energy              =     -30.40703622 Ry
     Harris-Foulkes estimate   =     -42.70464153 Ry
     estimated scf accuracy    <      23.47241097 Ry

     iteration #  3     ecut=    30.00 Ry     beta=0.70
     Davidson diagonalization with overlap
     ethr =  1.00E-02,  avg # of iterations =  3.0

     negative rho (up, down):  2.367E-02 0.000E+00

     total cpu time spent up to now is        5.8 secs

     total energy              =     -29.67217255 Ry
     Harris-Foulkes estimate   =     -32.17816623 Ry
     estimated scf accuracy    <       8.84650072 Ry

     iteration #  4     ecut=    30.00 Ry     beta=0.70
     Davidson diagonalization with overlap
     ethr =  1.00E-02,  avg # of iterations =  1.0

     negative rho (up, down):  1.392E-02 0.000E+00

     total cpu time spent up to now is        5.8 secs

     total energy              =     -27.56770304 Ry
     Harris-Foulkes estimate   =     -30.27525326 Ry
     estimated scf accuracy    <       6.42738930 Ry

     iteration #  5     ecut=    30.00 Ry     beta=0.70
     Davidson diagonalization with overlap
     ethr =  1.00E-02,  avg # of iterations =  2.0

     negative rho (up, down):  1.191E-02 0.000E+00

     total cpu time spent up to now is        5.8 secs

     total energy              =     -27.54542025 Ry
     Harris-Foulkes estimate   =     -27.89127889 Ry
     estimated scf accuracy    <       3.11828319 Ry

     iteration #  6     ecut=    30.00 Ry     beta=0.70
     Davidson diagonalization with overlap
     ethr =  1.00E-02,  avg # of iterations =  1.0

     negative rho (up, down):  2.222E-03 0.000E+00

     total cpu time spent up to now is        5.8 secs

     total energy              =     -26.60942578 Ry
     Harris-Foulkes estimate   =     -27.55666441 Ry
     estimated scf accuracy    <       1.76176597 Ry

     iteration #  7     ecut=    30.00 Ry     beta=0.70
     Davidson diagonalization with overlap
     ethr =  1.00E-02,  avg # of iterations =  2.0

     negative rho (up, down):  2.252E-03 0.000E+00

     total cpu time spent up to now is        5.9 secs

     total energy              =     -26.89609108 Ry
     Harris-Foulkes estimate   =     -26.94128709 Ry
     estimated scf accuracy    <       1.23383549 Ry

     iteration #  8     ecut=    30.00 Ry     beta=0.70
     Davidson diagonalization with overlap
     ethr =  1.00E-02,  avg # of iterations =  1.0

     negative rho (up, down):  2.386E-03 0.000E+00

     total cpu time spent up to now is        5.9 secs

     total energy              =     -26.77696215 Ry
     Harris-Foulkes estimate   =     -26.89687312 Ry
     estimated scf accuracy    <       1.16325356 Ry

     iteration #  9     ecut=    30.00 Ry     beta=0.70
     Davidson diagonalization with overlap
     ethr =  1.00E-02,  avg # of iterations =  1.0

     negative rho (up, down):  2.320E-03 0.000E+00

     total cpu time spent up to now is        5.9 secs

     total energy              =     -26.81482396 Ry
     Harris-Foulkes estimate   =     -26.80299493 Ry
     estimated scf accuracy    <       0.21110289 Ry

     iteration # 10     ecut=    30.00 Ry     beta=0.70
     Davidson diagonalization with overlap
     ethr =  2.64E-03,  avg # of iterations =  1.0

     negative rho (up, down):  1.221E-06 0.000E+00

     total cpu time spent up to now is        6.0 secs

     total energy              =     -27.00266192 Ry
     Harris-Foulkes estimate   =     -26.83287736 Ry
     estimated scf accuracy    <       1.84409621 Ry

     iteration # 11     ecut=    30.00 Ry     beta=0.70
     Davidson diagonalization with overlap
     ethr =  2.64E-03,  avg # of iterations =  2.0

     negative rho (up, down):  5.203E-07 0.000E+00

     total cpu time spent up to now is        6.0 secs

     total energy              =     -27.01779126 Ry
     Harris-Foulkes estimate   =     -27.00047168 Ry
     estimated scf accuracy    <       1.73204387 Ry

     iteration # 12     ecut=    30.00 Ry     beta=0.70
     Davidson diagonalization with overlap
     ethr =  2.64E-03,  avg # of iterations =  1.0

     negative rho (up, down):  2.289E-07 0.000E+00

     total cpu time spent up to now is        6.0 secs

     total energy              =     -27.03951875 Ry
     Harris-Foulkes estimate   =     -27.01827623 Ry
     estimated scf accuracy    <       1.75536125 Ry

     iteration # 13     ecut=    30.00 Ry     beta=0.70
     Davidson diagonalization with overlap
     ethr =  2.64E-03,  avg # of iterations =  1.0

     negative rho (up, down):  1.402E-07 0.000E+00

     total cpu time spent up to now is        6.1 secs

     total energy              =     -27.08505247 Ry
     Harris-Foulkes estimate   =     -27.04128005 Ry
     estimated scf accuracy    <       1.77991056 Ry

     iteration # 14     ecut=    30.00 Ry     beta=0.70
     Davidson diagonalization with overlap
     ethr =  2.64E-03,  avg # of iterations =  1.0

     negative rho (up, down):  9.237E-08 0.000E+00

     total cpu time spent up to now is        6.1 secs

     total energy              =     -27.08835865 Ry
     Harris-Foulkes estimate   =     -27.08617211 Ry
     estimated scf accuracy    <       1.85873840 Ry

     iteration # 15     ecut=    30.00 Ry     beta=0.70
     Davidson diagonalization with overlap
     ethr =  2.64E-03,  avg # of iterations =  1.0

     negative rho (up, down):  2.095E-08 0.000E+00

     total cpu time spent up to now is        6.2 secs

     total energy              =     -27.03616723 Ry
     Harris-Foulkes estimate   =     -27.08838569 Ry
     estimated scf accuracy    <       1.85961034 Ry

     iteration # 16     ecut=    30.00 Ry     beta=0.70
     Davidson diagonalization with overlap
     ethr =  2.64E-03,  avg # of iterations =  1.0

     negative rho (up, down):  1.513E-08 0.000E+00

     total cpu time spent up to now is        6.2 secs

     total energy              =     -27.04018983 Ry
     Harris-Foulkes estimate   =     -27.03676583 Ry
     estimated scf accuracy    <       1.77187123 Ry

     iteration # 17     ecut=    30.00 Ry     beta=0.70
     Davidson diagonalization with overlap
     ethr =  2.64E-03,  avg # of iterations =  1.0

     negative rho (up, down):  2.721E-08 0.000E+00

     total cpu time spent up to now is        6.2 secs

     total energy              =     -27.00661376 Ry
     Harris-Foulkes estimate   =     -27.04022375 Ry
     estimated scf accuracy    <       1.77656094 Ry

     iteration # 18     ecut=    30.00 Ry     beta=0.70
     Davidson diagonalization with overlap
     ethr =  2.64E-03,  avg # of iterations =  1.0

     negative rho (up, down):  5.681E-02 0.000E+00

     total cpu time spent up to now is        6.3 secs

     total energy              =     -25.67756008 Ry
     Harris-Foulkes estimate   =     -27.00669413 Ry
     estimated scf accuracy    <       1.72129074 Ry

     iteration # 19     ecut=    30.00 Ry     beta=0.70
     Davidson diagonalization with overlap
     ethr =  2.64E-03,  avg # of iterations =  4.0

     negative rho (up, down):  3.976E-05 0.000E+00

     total cpu time spent up to now is        6.3 secs

     total energy              =     -27.45104794 Ry
     Harris-Foulkes estimate   =     -28.74869520 Ry
     estimated scf accuracy    <       3.53616380 Ry

     iteration # 20     ecut=    30.00 Ry     beta=0.70
     Davidson diagonalization with overlap
     ethr =  2.64E-03,  avg # of iterations =  3.0

     total cpu time spent up to now is        6.3 secs

     total energy              =     -26.74228349 Ry
     Harris-Foulkes estimate   =     -27.47804551 Ry
     estimated scf accuracy    <       1.80255077 Ry

     iteration # 21     ecut=    30.00 Ry     beta=0.70
     Davidson diagonalization with overlap
     ethr =  2.64E-03,  avg # of iterations =  3.0

     total cpu time spent up to now is        6.4 secs

     total energy              =     -26.71915932 Ry
     Harris-Foulkes estimate   =     -26.78434450 Ry
     estimated scf accuracy    <       0.21271831 Ry

     iteration # 22     ecut=    30.00 Ry     beta=0.70
     Davidson diagonalization with overlap
     ethr =  2.64E-03,  avg # of iterations =  1.0

     total cpu time spent up to now is        6.4 secs

     total energy              =     -26.95357350 Ry
     Harris-Foulkes estimate   =     -26.90737371 Ry
     estimated scf accuracy    <       0.99116690 Ry

     iteration # 23     ecut=    30.00 Ry     beta=0.70
     Davidson diagonalization with overlap
     ethr =  2.64E-03,  avg # of iterations =  1.0

     total cpu time spent up to now is        6.4 secs

     total energy              =     -26.96232247 Ry
     Harris-Foulkes estimate   =     -26.95381451 Ry
     estimated scf accuracy    <       1.06178872 Ry

     iteration # 24     ecut=    30.00 Ry     beta=0.70
     Davidson diagonalization with overlap
     ethr =  2.64E-03,  avg # of iterations =  1.0

     negative rho (up, down):  3.312E-06 0.000E+00

     total cpu time spent up to now is        6.5 secs

     total energy              =     -26.95433479 Ry
     Harris-Foulkes estimate   =     -26.96233203 Ry
     estimated scf accuracy    <       1.07408336 Ry

     iteration # 25     ecut=    30.00 Ry     beta=0.70
     Davidson diagonalization with overlap
     ethr =  2.64E-03,  avg # of iterations =  1.0

     negative rho (up, down):  3.971E-07 0.000E+00

     total cpu time spent up to now is        6.5 secs

     total energy              =     -26.96346241 Ry
     Harris-Foulkes estimate   =     -26.95435609 Ry
     estimated scf accuracy    <       1.05991544 Ry

     iteration # 26     ecut=    30.00 Ry     beta=0.70
     Davidson diagonalization with overlap
     ethr =  2.64E-03,  avg # of iterations =  1.0

     negative rho (up, down):  2.280E-07 0.000E+00

     total cpu time spent up to now is        6.5 secs

     total energy              =     -26.91092384 Ry
     Harris-Foulkes estimate   =     -26.96348510 Ry
     estimated scf accuracy    <       1.07533639 Ry

     iteration # 27     ecut=    30.00 Ry     beta=0.70
     Davidson diagonalization with overlap
     ethr =  2.64E-03,  avg # of iterations =  1.0

     total cpu time spent up to now is        6.6 secs

     total energy              =     -26.88166428 Ry
     Harris-Foulkes estimate   =     -26.91104785 Ry
     estimated scf accuracy    <       1.00065579 Ry

     iteration # 28     ecut=    30.00 Ry     beta=0.70
     Davidson diagonalization with overlap
     ethr =  2.64E-03,  avg # of iterations =  1.0

     negative rho (up, down):  2.565E-04 0.000E+00

     total cpu time spent up to now is        6.6 secs

     total energy              =     -27.09039292 Ry
     Harris-Foulkes estimate   =     -26.88170163 Ry
     estimated scf accuracy    <       0.95896109 Ry

     iteration # 29     ecut=    30.00 Ry     beta=0.70
     Davidson diagonalization with overlap
     ethr =  2.64E-03,  avg # of iterations =  1.0

     negative rho (up, down):  2.024E-04 0.000E+00

     total cpu time spent up to now is        6.6 secs

     total energy              =     -27.10671115 Ry
     Harris-Foulkes estimate   =     -27.10006561 Ry
     estimated scf accuracy    <       1.25161052 Ry

     iteration # 30     ecut=    30.00 Ry     beta=0.70
     Davidson diagonalization with overlap
     ethr =  2.64E-03,  avg # of iterations =  1.0

     negative rho (up, down):  1.435E-03 0.000E+00

     total cpu time spent up to now is        6.7 secs

     total energy              =     -26.16513677 Ry
     Harris-Foulkes estimate   =     -27.10675175 Ry
     estimated scf accuracy    <       1.26232412 Ry

     iteration # 31     ecut=    30.00 Ry     beta=0.70
     Davidson diagonalization with overlap
     ethr =  2.64E-03,  avg # of iterations =  4.0

     negative rho (up, down):  5.113E-05 0.000E+00

     total cpu time spent up to now is        6.7 secs

     total energy              =     -28.52195738 Ry
     Harris-Foulkes estimate   =     -28.20199784 Ry
     estimated scf accuracy    <      11.36880573 Ry

     iteration # 32     ecut=    30.00 Ry     beta=0.70
     Davidson diagonalization with overlap
     ethr =  2.64E-03,  avg # of iterations =  2.0

     negative rho (up, down):  4.038E-05 0.000E+00

     total cpu time spent up to now is        6.8 secs

     total energy              =     -28.50281127 Ry
     Harris-Foulkes estimate   =     -28.53678663 Ry
     estimated scf accuracy    <      11.78965672 Ry

     iteration # 33     ecut=    30.00 Ry     beta=0.70
     Davidson diagonalization with overlap
     ethr =  2.64E-03,  avg # of iterations =  1.0

     negative rho (up, down):  3.988E-04 0.000E+00

     total cpu time spent up to now is        6.8 secs

     total energy              =     -28.50675889 Ry
     Harris-Foulkes estimate   =     -28.50782002 Ry
     estimated scf accuracy    <      11.54778107 Ry

     iteration # 34     ecut=    30.00 Ry     beta=0.70
     Davidson diagonalization with overlap
     ethr =  2.64E-03,  avg # of iterations =  1.0

     negative rho (up, down):  1.247E-04 0.000E+00

     total cpu time spent up to now is        6.8 secs

     total energy              =     -28.51659268 Ry
     Harris-Foulkes estimate   =     -28.50772651 Ry
     estimated scf accuracy    <      11.52379348 Ry

     iteration # 35     ecut=    30.00 Ry     beta=0.70
     Davidson diagonalization with overlap
     ethr =  2.64E-03,  avg # of iterations =  1.0

     negative rho (up, down):  1.382E-04 0.000E+00

     total cpu time spent up to now is        6.9 secs

     total energy              =     -28.52238652 Ry
     Harris-Foulkes estimate   =     -28.52095324 Ry
     estimated scf accuracy    <      11.59575376 Ry

     iteration # 36     ecut=    30.00 Ry     beta=0.70
     Davidson diagonalization with overlap
     ethr =  2.64E-03,  avg # of iterations =  1.0

     negative rho (up, down):  2.408E-04 0.000E+00

     total cpu time spent up to now is        6.9 secs

     total energy              =     -28.52988790 Ry
     Harris-Foulkes estimate   =     -28.52282431 Ry
     estimated scf accuracy    <      11.63597052 Ry

     iteration # 37     ecut=    30.00 Ry     beta=0.70
     Davidson diagonalization with overlap
     ethr =  2.64E-03,  avg # of iterations =  1.0

     negative rho (up, down):  4.830E-02 0.000E+00

     total cpu time spent up to now is        6.9 secs

     total energy              =     -25.40503625 Ry
     Harris-Foulkes estimate   =     -28.53025517 Ry
     estimated scf accuracy    <      11.65984395 Ry

     iteration # 38     ecut=    30.00 Ry     beta=0.70
     Davidson diagonalization with overlap
     ethr =  2.64E-03,  avg # of iterations =  3.0

     negative rho (up, down):  5.051E-02 0.000E+00

     total cpu time spent up to now is        7.0 secs

     total energy              =     -26.59291554 Ry
     Harris-Foulkes estimate   =     -26.80706850 Ry
     estimated scf accuracy    <       0.84152308 Ry

     iteration # 39     ecut=    30.00 Ry     beta=0.70
     Davidson diagonalization with overlap
     ethr =  2.64E-03,  avg # of iterations =  2.0

     negative rho (up, down):  3.220E-02 0.000E+00

     total cpu time spent up to now is        7.0 secs

     total energy              =     -26.91298652 Ry
     Harris-Foulkes estimate   =     -27.00449261 Ry
     estimated scf accuracy    <       1.79251482 Ry

     iteration # 40     ecut=    30.00 Ry     beta=0.70
     Davidson diagonalization with overlap
     ethr =  2.64E-03,  avg # of iterations =  1.0

     negative rho (up, down):  1.403E-02 0.000E+00

     total cpu time spent up to now is        7.0 secs

     total energy              =     -26.70061033 Ry
     Harris-Foulkes estimate   =     -26.91454947 Ry
     estimated scf accuracy    <       1.62307330 Ry

     iteration # 41     ecut=    30.00 Ry     beta=0.70
     Davidson diagonalization with overlap
     ethr =  2.64E-03,  avg # of iterations =  1.0

     negative rho (up, down):  3.442E-03 0.000E+00

     total cpu time spent up to now is        7.1 secs

     total energy              =     -26.81035828 Ry
     Harris-Foulkes estimate   =     -26.81226649 Ry
     estimated scf accuracy    <       0.86719955 Ry

     iteration # 42     ecut=    30.00 Ry     beta=0.70
     Davidson diagonalization with overlap
     ethr =  2.64E-03,  avg # of iterations =  1.0

     negative rho (up, down):  2.602E-03 0.000E+00

     total cpu time spent up to now is        7.1 secs

     total energy              =     -26.77035091 Ry
     Harris-Foulkes estimate   =     -26.81043469 Ry
     estimated scf accuracy    <       0.85238471 Ry

     iteration # 43     ecut=    30.00 Ry     beta=0.70
     Davidson diagonalization with overlap
     ethr =  2.64E-03,  avg # of iterations =  1.0

     negative rho (up, down):  7.885E-05 0.000E+00

     total cpu time spent up to now is        7.1 secs

     total energy              =     -26.77975345 Ry
     Harris-Foulkes estimate   =     -26.78047222 Ry
     estimated scf accuracy    <       0.02392722 Ry

     iteration # 44     ecut=    30.00 Ry     beta=0.70
     Davidson diagonalization with overlap
     ethr =  2.99E-04,  avg # of iterations =  1.0

     total cpu time spent up to now is        7.2 secs

     total energy              =     -26.78117133 Ry
     Harris-Foulkes estimate   =     -26.78190820 Ry
     estimated scf accuracy    <       0.07295298 Ry

     iteration # 45     ecut=    30.00 Ry     beta=0.70
     Davidson diagonalization with overlap
     ethr =  2.99E-04,  avg # of iterations =  1.0

     total cpu time spent up to now is        7.2 secs

     total energy              =     -26.77894187 Ry
     Harris-Foulkes estimate   =     -26.78139856 Ry
     estimated scf accuracy    <       0.01765128 Ry

     iteration # 46     ecut=    30.00 Ry     beta=0.70
     Davidson diagonalization with overlap
     ethr =  2.21E-04,  avg # of iterations =  3.0

     negative rho (up, down):  4.163E-04 0.000E+00

     total cpu time spent up to now is        7.2 secs

     total energy              =     -26.79923009 Ry
     Harris-Foulkes estimate   =     -26.78619976 Ry
     estimated scf accuracy    <       0.31143165 Ry

     iteration # 47     ecut=    30.00 Ry     beta=0.70
     Davidson diagonalization with overlap
     ethr =  2.21E-04,  avg # of iterations =  1.0

     negative rho (up, down):  5.296E-04 0.000E+00

     total cpu time spent up to now is        7.3 secs

     total energy              =     -26.80384827 Ry
     Harris-Foulkes estimate   =     -26.80388092 Ry
     estimated scf accuracy    <       0.79743521 Ry

     iteration # 48     ecut=    30.00 Ry     beta=0.70
     Davidson diagonalization with overlap
     ethr =  2.21E-04,  avg # of iterations =  1.0

     negative rho (up, down):  4.253E-04 0.000E+00

     total cpu time spent up to now is        7.3 secs

     total energy              =     -26.76649377 Ry
     Harris-Foulkes estimate   =     -26.80384986 Ry
     estimated scf accuracy    <       0.79681083 Ry

     iteration # 49     ecut=    30.00 Ry     beta=0.70
     Davidson diagonalization with overlap
     ethr =  2.21E-04,  avg # of iterations =  1.0

     negative rho (up, down):  6.340E-05 0.000E+00

     total cpu time spent up to now is        7.3 secs

     total energy              =     -26.78133207 Ry
     Harris-Foulkes estimate   =     -26.78137169 Ry
     estimated scf accuracy    <       0.01233778 Ry

     iteration # 50     ecut=    30.00 Ry     beta=0.70
     Davidson diagonalization with overlap
     ethr =  1.54E-04,  avg # of iterations =  1.0

     negative rho (up, down):  5.679E-08 0.000E+00

     total cpu time spent up to now is        7.4 secs

     total energy              =     -26.78118714 Ry
     Harris-Foulkes estimate   =     -26.78134192 Ry
     estimated scf accuracy    <       0.00957240 Ry

     iteration # 51     ecut=    30.00 Ry     beta=0.70
     Davidson diagonalization with overlap
     ethr =  1.20E-04,  avg # of iterations =  1.0

     total cpu time spent up to now is        7.4 secs

     total energy              =     -26.78120566 Ry
     Harris-Foulkes estimate   =     -26.78123730 Ry
     estimated scf accuracy    <       0.00117928 Ry

     iteration # 52     ecut=    30.00 Ry     beta=0.70
     Davidson diagonalization with overlap
     ethr =  1.47E-05,  avg # of iterations =  5.0

     total cpu time spent up to now is        7.5 secs

     total energy              =     -26.78122175 Ry
     Harris-Foulkes estimate   =     -26.78122215 Ry
     estimated scf accuracy    <       0.00000493 Ry

     iteration # 53     ecut=    30.00 Ry     beta=0.70
     Davidson diagonalization with overlap
     ethr =  6.16E-08,  avg # of iterations =  5.0

     total cpu time spent up to now is        7.5 secs

     total energy              =     -26.78122202 Ry
     Harris-Foulkes estimate   =     -26.78122205 Ry
     estimated scf accuracy    <       0.00000689 Ry

     iteration # 54     ecut=    30.00 Ry     beta=0.70
     Davidson diagonalization with overlap
     ethr =  6.16E-08,  avg # of iterations =  1.0

     total cpu time spent up to now is        7.5 secs

     total energy              =     -26.78122202 Ry
     Harris-Foulkes estimate   =     -26.78122208 Ry
     estimated scf accuracy    <       0.00000029 Ry

     iteration # 55     ecut=    30.00 Ry     beta=0.70
     Davidson diagonalization with overlap
     ethr =  3.65E-09,  avg # of iterations =  1.0

     total cpu time spent up to now is        7.6 secs

     End of self-consistent calculation

          k = 0.0000 0.0000 0.0000 ( 22119 PWs)   bands (ev):

   -31.2603 -11.7654  -7.5742  -7.5733  -7.4136  -0.3099   0.5798   0.7580

     the Fermi energy is    -7.3963 ev

!    total energy              =     -26.78122202 Ry
     Harris-Foulkes estimate   =     -26.78122202 Ry
     estimated scf accuracy    <          3.7E-10 Ry

     convergence has been achieved in  55 iterations

     Forces acting on atoms (Ry/au):

[...]
     Harris-Foulkes estimate   =   -2659.24291265 Ry
     estimated scf accuracy    <      29.08351036 Ry

     iteration # 59     ecut=    30.00 Ry     beta=0.70
     Davidson diagonalization with overlap
     ethr =  1.00E-02,  avg # of iterations =  8.0

     negative rho (up, down):  6.070E-01 0.000E+00

     total cpu time spent up to now is       11.1 secs

     total energy              =    -246.00221559 Ry
     Harris-Foulkes estimate   =  -13389.37673829 Ry
     estimated scf accuracy    <      43.26257248 Ry

     iteration # 60     ecut=    30.00 Ry     beta=0.70
     Davidson diagonalization with overlap
     ethr =  1.00E-02,  avg # of iterations =  6.0

     negative rho (up, down):  6.335E-01 0.000E+00

     total cpu time spent up to now is       11.1 secs

     total energy              =      93.71501200 Ry
     Harris-Foulkes estimate   =   -3064.28810552 Ry
     estimated scf accuracy    <      44.17233032 Ry

     iteration # 61     ecut=    30.00 Ry     beta=0.70
     Davidson diagonalization with overlap
     ethr =  1.00E-02,  avg # of iterations =  6.0

     negative rho (up, down):  6.485E-01 0.000E+00

     total cpu time spent up to now is       11.2 secs

     total energy              =   -2051.08244922 Ry
     Harris-Foulkes estimate   =    -409.31622934 Ry
     estimated scf accuracy    <      51.39871788 Ry

     iteration # 62     ecut=    30.00 Ry     beta=0.70
     Davidson diagonalization with overlap
     ethr =  1.00E-02,  avg # of iterations =  7.0

     negative rho (up, down):  8.054E-01 0.000E+00

     total cpu time spent up to now is       11.2 secs

     total energy              =     326.13534613 Ry
     Harris-Foulkes estimate   =  -13657.64966350 Ry
     estimated scf accuracy    <      39.19042580 Ry

     iteration # 63     ecut=    30.00 Ry     beta=0.70
     Davidson diagonalization with overlap
     ethr =  1.00E-02,  avg # of iterations =  5.0

     negative rho (up, down):  7.584E-01 0.000E+00

     total cpu time spent up to now is       11.3 secs

     total energy              =      65.23607533 Ry
     Harris-Foulkes estimate   =   -3369.69984072 Ry
     estimated scf accuracy    <      48.68354848 Ry

     iteration # 64     ecut=    30.00 Ry     beta=0.70
     Davidson diagonalization with overlap
     ethr =  1.00E-02,  avg # of iterations =  8.0

     negative rho (up, down):  8.461E-01 0.000E+00

     total cpu time spent up to now is       11.3 secs

     total energy              =    -136.97801531 Ry
     Harris-Foulkes estimate   =   -2228.60396164 Ry
     estimated scf accuracy    <      35.63510531 Ry

     iteration # 65     ecut=    30.00 Ry     beta=0.70
     Davidson diagonalization with overlap
     ethr =  1.00E-02,  avg # of iterations =  7.0

     negative rho (up, down):  1.372E+00 0.000E+00

     total cpu time spent up to now is       11.4 secs

     total energy              =     542.41549639 Ry
     Harris-Foulkes estimate   =   -7184.07741575 Ry
     estimated scf accuracy    <      22.88626011 Ry

     iteration # 66     ecut=    30.00 Ry     beta=0.70
     Davidson diagonalization with overlap
     ethr =  1.00E-02,  avg # of iterations =  9.0

     negative rho (up, down):  1.456E+00 0.000E+00

     total cpu time spent up to now is       11.4 secs

     total energy              =    -500.16191859 Ry
     Harris-Foulkes estimate   =   -6396.92540749 Ry
     estimated scf accuracy    <      26.96596246 Ry

     iteration # 67     ecut=    30.00 Ry     beta=0.70
     Davidson diagonalization with overlap
     ethr =  1.00E-02,  avg # of iterations =  7.0

     negative rho (up, down):  1.294E+00 0.000E+00

     total cpu time spent up to now is       11.5 secs

     total energy              =     -87.47794125 Ry
     Harris-Foulkes estimate   =   -9223.17649143 Ry
     estimated scf accuracy    <      23.57099733 Ry

     iteration # 68     ecut=    30.00 Ry     beta=0.70
     Davidson diagonalization with overlap
     ethr =  1.00E-02,  avg # of iterations = 10.0

     negative rho (up, down):  5.020E-01 0.000E+00

     total cpu time spent up to now is       11.6 secs

     total energy              =      94.66026289 Ry
     Harris-Foulkes estimate   =   -6469.37371002 Ry
     estimated scf accuracy    <      29.10983829 Ry

     iteration # 69     ecut=    30.00 Ry     beta=0.70
     Davidson diagonalization with overlap
     ethr =  1.00E-02,  avg # of iterations =  7.0

     negative rho (up, down):  4.832E-01 0.000E+00

     total cpu time spent up to now is       11.6 secs

     total energy              =      47.25230107 Ry
     Harris-Foulkes estimate   =   -1384.79202903 Ry
     estimated scf accuracy    <      25.93328197 Ry

     iteration # 70     ecut=    30.00 Ry     beta=0.70
     Davidson diagonalization with overlap
     ethr =  1.00E-02,  avg # of iterations = 11.0

     negative rho (up, down):  4.376E-01 0.000E+00

     total cpu time spent up to now is       11.7 secs

     total energy              =      87.90441060 Ry
     Harris-Foulkes estimate   =    -532.08102175 Ry
     estimated scf accuracy    <      13.21325331 Ry

     iteration # 71     ecut=    30.00 Ry     beta=0.70
     Davidson diagonalization with overlap
     ethr =  1.00E-02,  avg # of iterations =  7.0

     negative rho (up, down):  4.210E-01 0.000E+00

     total cpu time spent up to now is       11.7 secs

     total energy              =    -174.73468910 Ry
     Harris-Foulkes estimate   =   -3418.89700200 Ry
     estimated scf accuracy    <      27.17832359 Ry

     iteration # 72     ecut=    30.00 Ry     beta=0.70
     Davidson diagonalization with overlap
     ethr =  1.00E-02,  avg # of iterations =  5.0

     negative rho (up, down):  3.809E-02 0.000E+00

     total cpu time spent up to now is       11.8 secs

     total energy              =     136.57464649 Ry
     Harris-Foulkes estimate   =   -2157.54657221 Ry
     estimated scf accuracy    <      21.30179710 Ry

     iteration # 73     ecut=    30.00 Ry     beta=0.70
     Davidson diagonalization with overlap
     ethr =  1.00E-02,  avg # of iterations =  9.0

     negative rho (up, down):  5.614E-03 0.000E+00

     total cpu time spent up to now is       11.8 secs

     total energy              =      26.57335020 Ry
     Harris-Foulkes estimate   =    -325.31747202 Ry
     estimated scf accuracy    <      23.78861091 Ry

     iteration # 74     ecut=    30.00 Ry     beta=0.70
     Davidson diagonalization with overlap
     ethr =  1.00E-02,  avg # of iterations =  4.0

     negative rho (up, down):  1.911E-03 0.000E+00

     total cpu time spent up to now is       11.9 secs

     total energy              =     -12.68409962 Ry
     Harris-Foulkes estimate   =   -1783.09273458 Ry
     estimated scf accuracy    <      31.02634851 Ry

     iteration # 75     ecut=    30.00 Ry     beta=0.70
     Davidson diagonalization with overlap
     ethr =  1.00E-02,  avg # of iterations =  5.0

     negative rho (up, down):  6.429E-02 0.000E+00

     total cpu time spent up to now is       11.9 secs

     total energy              =     -20.29714383 Ry
     Harris-Foulkes estimate   =     -75.29951621 Ry
     estimated scf accuracy    <      28.29185923 Ry

     iteration # 76     ecut=    30.00 Ry     beta=0.70
     Davidson diagonalization with overlap
     ethr =  1.00E-02,  avg # of iterations =  7.0

     negative rho (up, down):  1.713E-01 0.000E+00

     total cpu time spent up to now is       12.0 secs

     total energy              =     -62.80734005 Ry
     Harris-Foulkes estimate   =     -61.42720101 Ry
     estimated scf accuracy    <      43.96769747 Ry

     iteration # 77     ecut=    30.00 Ry     beta=0.70
     Davidson diagonalization with overlap
     ethr =  1.00E-02,  avg # of iterations =  5.0

     negative rho (up, down):  2.685E-01 0.000E+00

     total cpu time spent up to now is       12.0 secs

     total energy              =     -54.79773980 Ry
     Harris-Foulkes estimate   =    -111.24778087 Ry
     estimated scf accuracy    <      32.36341964 Ry

     iteration # 78     ecut=    30.00 Ry     beta=0.70
     Davidson diagonalization with overlap
     ethr =  1.00E-02,  avg # of iterations =  7.0

     negative rho (up, down):  3.364E-01 0.000E+00

     total cpu time spent up to now is       12.1 secs

     total energy              =      32.33494354 Ry
     Harris-Foulkes estimate   =    -564.99487607 Ry
     estimated scf accuracy    <      29.38077813 Ry

     iteration # 79     ecut=    30.00 Ry     beta=0.70
     Davidson diagonalization with overlap
     ethr =  1.00E-02,  avg # of iterations =  6.0

     negative rho (up, down):  2.517E-01 0.000E+00

     total cpu time spent up to now is       12.1 secs

     total energy              =     -32.73341028 Ry
     Harris-Foulkes estimate   =     -71.87940252 Ry
     estimated scf accuracy    <      31.06062801 Ry

     iteration # 80     ecut=    30.00 Ry     beta=0.70
     Davidson diagonalization with overlap
     ethr =  1.00E-02,  avg # of iterations =  7.0

     negative rho (up, down):  2.265E-01 0.000E+00

     total cpu time spent up to now is       12.2 secs

     total energy              =    -150.23592910 Ry
     Harris-Foulkes estimate   =    -243.81304604 Ry
     estimated scf accuracy    <      18.96620460 Ry

     iteration # 81     ecut=    30.00 Ry     beta=0.70
     Davidson diagonalization with overlap
     ethr =  1.00E-02,  avg # of iterations =  5.0

     negative rho (up, down):  2.932E-01 0.000E+00

     total cpu time spent up to now is       12.2 secs

     total energy              =   -4139.86529650 Ry
     Harris-Foulkes estimate   =   -1590.75635211 Ry
     estimated scf accuracy    <      39.00706445 Ry

     iteration # 82     ecut=    30.00 Ry     beta=0.70
     Davidson diagonalization with overlap
     ethr =  1.00E-02,  avg # of iterations =  9.0

     negative rho (up, down):  2.847E-01 0.000E+00

     total cpu time spent up to now is       12.3 secs

     total energy              =      14.06213895 Ry
     Harris-Foulkes estimate   =  -14625.13703836 Ry
     estimated scf accuracy    <      19.31839902 Ry

     iteration # 83     ecut=    30.00 Ry     beta=0.70
     Davidson diagonalization with overlap
     ethr =  1.00E-02,  avg # of iterations =  9.0

     negative rho (up, down):  6.439E-02 0.000E+00

     total cpu time spent up to now is       12.3 secs

     total energy              =     117.36297521 Ry
     Harris-Foulkes estimate   =    -469.31835120 Ry
     estimated scf accuracy    <      37.97193940 Ry

     iteration # 84     ecut=    30.00 Ry     beta=0.70
     Davidson diagonalization with overlap
     ethr =  1.00E-02,  avg # of iterations = 10.0

     negative rho (up, down):  1.645E-01 0.000E+00

     total cpu time spent up to now is       12.4 secs

     total energy              =      -5.97198182 Ry
     Harris-Foulkes estimate   =    -205.16970944 Ry
     estimated scf accuracy    <      20.41395344 Ry

     iteration # 85     ecut=    30.00 Ry     beta=0.70
     Davidson diagonalization with overlap
     ethr =  1.00E-02,  avg # of iterations =  9.0

     negative rho (up, down):  2.872E-02 0.000E+00

     total cpu time spent up to now is       12.4 secs

     total energy              =     106.36465720 Ry
     Harris-Foulkes estimate   =    -260.27795750 Ry
     estimated scf accuracy    <      32.51896302 Ry

     iteration # 86     ecut=    30.00 Ry     beta=0.70
     Davidson diagonalization with overlap
     ethr =  1.00E-02,  avg # of iterations =  9.0

     negative rho (up, down):  1.106E-03 0.000E+00

     total cpu time spent up to now is       12.5 secs

     total energy              =     -54.17706240 Ry
     Harris-Foulkes estimate   =     -56.01838639 Ry
     estimated scf accuracy    <      37.02349205 Ry

     iteration # 87     ecut=    30.00 Ry     beta=0.70
     Davidson diagonalization with overlap
     ethr =  1.00E-02,  avg # of iterations =  4.0

     negative rho (up, down):  3.586E-02 0.000E+00

     total cpu time spent up to now is       12.5 secs

     total energy              =      -2.97115353 Ry
     Harris-Foulkes estimate   =    -577.05452451 Ry
     estimated scf accuracy    <      18.13465876 Ry

     iteration # 88     ecut=    30.00 Ry     beta=0.70
     Davidson diagonalization with overlap
     ethr =  1.00E-02,  avg # of iterations =  8.0

     negative rho (up, down):  4.682E-04 0.000E+00

     total cpu time spent up to now is       12.6 secs

     total energy              =      60.71557822 Ry
     Harris-Foulkes estimate   =    -224.26353318 Ry
     estimated scf accuracy    <      19.91716215 Ry

     iteration # 89     ecut=    30.00 Ry     beta=0.70
     Davidson diagonalization with overlap
     ethr =  1.00E-02,  avg # of iterations =  5.0

     negative rho (up, down):  1.341E-01 0.000E+00

     total cpu time spent up to now is       12.6 secs

     total energy              =     -58.06728776 Ry
     Harris-Foulkes estimate   =     -54.33372543 Ry
     estimated scf accuracy    <      35.13189948 Ry

     iteration # 90     ecut=    30.00 Ry     beta=0.70
     Davidson diagonalization with overlap
     ethr =  1.00E-02,  avg # of iterations =  5.0

     negative rho (up, down):  1.472E-04 0.000E+00

     total cpu time spent up to now is       12.7 secs

     total energy              =     137.48538125 Ry
     Harris-Foulkes estimate   =  -37994.30865543 Ry
     estimated scf accuracy    <      26.84405296 Ry

     iteration # 91     ecut=    30.00 Ry     beta=0.70
     Davidson diagonalization with overlap
     ethr =  1.00E-02,  avg # of iterations = 10.0

     negative rho (up, down):  1.233E-02 0.000E+00

     total cpu time spent up to now is       12.7 secs

     total energy              =     -50.94510414 Ry
     Harris-Foulkes estimate   =     -52.66680338 Ry
     estimated scf accuracy    <      32.79368982 Ry

     iteration # 92     ecut=    30.00 Ry     beta=0.70
     Davidson diagonalization with overlap
     ethr =  1.00E-02,  avg # of iterations =  7.0

     negative rho (up, down):  4.703E-02 0.000E+00

     total cpu time spent up to now is       12.8 secs

     total energy              =       1.59238388 Ry
     Harris-Foulkes estimate   =    -479.99511380 Ry
     estimated scf accuracy    <      15.67654833 Ry

     iteration # 93     ecut=    30.00 Ry     beta=0.70
     Davidson diagonalization with overlap
     ethr =  1.00E-02,  avg # of iterations =  7.0

     negative rho (up, down):  2.640E-02 0.000E+00

     total cpu time spent up to now is       12.8 secs

     total energy              =      57.96964776 Ry
     Harris-Foulkes estimate   =    -413.76952204 Ry
     estimated scf accuracy    <      28.01046119 Ry

     iteration # 94     ecut=    30.00 Ry     beta=0.70
     Davidson diagonalization with overlap
     ethr =  1.00E-02,  avg # of iterations =  8.0

     negative rho (up, down):  8.141E-02 0.000E+00

     total cpu time spent up to now is       12.9 secs

     total energy              =     -72.57795732 Ry
     Harris-Foulkes estimate   =    -206.59898808 Ry
     estimated scf accuracy    <      30.14905807 Ry

     iteration # 95     ecut=    30.00 Ry     beta=0.70
     Davidson diagonalization with overlap
     ethr =  1.00E-02,  avg # of iterations =  4.0

     negative rho (up, down):  8.094E-02 0.000E+00

     total cpu time spent up to now is       12.9 secs

     total energy              =      31.84154455 Ry
     Harris-Foulkes estimate   =   -1004.74598676 Ry
     estimated scf accuracy    <      41.82721197 Ry

     iteration # 96     ecut=    30.00 Ry     beta=0.70
     Davidson diagonalization with overlap
     ethr =  1.00E-02,  avg # of iterations = 14.0

     negative rho (up, down):  2.025E-01 0.000E+00

     total cpu time spent up to now is       13.0 secs

     total energy              =     -19.36119459 Ry
     Harris-Foulkes estimate   =    -130.26321943 Ry
     estimated scf accuracy    <      19.23693190 Ry

     iteration # 97     ecut=    30.00 Ry     beta=0.70
     Davidson diagonalization with overlap
     ethr =  1.00E-02,  avg # of iterations =  8.0

     negative rho (up, down):  4.159E-03 0.000E+00

     total cpu time spent up to now is       13.0 secs

     total energy              =     116.09471163 Ry
     Harris-Foulkes estimate   =    -547.98874267 Ry
     estimated scf accuracy    <      25.81503393 Ry

     iteration # 98     ecut=    30.00 Ry     beta=0.70
     Davidson diagonalization with overlap
     ethr =  1.00E-02,  avg # of iterations = 12.0

     negative rho (up, down):  3.485E-02 0.000E+00

     total cpu time spent up to now is       13.1 secs

     total energy              =      -8.94999612 Ry
     Harris-Foulkes estimate   =    -156.46880011 Ry
     estimated scf accuracy    <      16.08502674 Ry

     iteration # 99     ecut=    30.00 Ry     beta=0.70
     Davidson diagonalization with overlap
     ethr =  1.00E-02,  avg # of iterations =  5.0

     negative rho (up, down):  2.502E-01 0.000E+00

     total cpu time spent up to now is       13.1 secs

     total energy              =      -3.02641115 Ry
     Harris-Foulkes estimate   =    -437.69503922 Ry
     estimated scf accuracy    <      15.01357103 Ry

     iteration #100     ecut=    30.00 Ry     beta=0.70
     Davidson diagonalization with overlap
     ethr =  1.00E-02,  avg # of iterations =  7.0

     negative rho (up, down):  1.632E-01 0.000E+00

     total cpu time spent up to now is       13.2 secs

     total energy              =     103.97522963 Ry
     Harris-Foulkes estimate   =   -1271.75395128 Ry
     estimated scf accuracy    <      23.79793107 Ry

     End of self-consistent calculation

     convergence NOT achieved after 100 iterations: stopping

     Writing output data file pwscf.save
 
     init_run     :      0.09s CPU      0.11s WALL (       1 calls)
     electrons    :      9.67s CPU     11.96s WALL (       5 calls)
     update_pot   :      0.45s CPU      0.65s WALL (       4 calls)
     forces       :      0.10s CPU      0.10s WALL (       4 calls)

     Called by init_run:
     wfcinit      :      0.01s CPU      0.02s WALL (       1 calls)
     potinit      :      0.02s CPU      0.03s WALL (       1 calls)

     Called by electrons:
     c_bands      :      4.58s CPU      4.80s WALL (     272 calls)
     sum_band     :      0.80s CPU      0.85s WALL (     272 calls)
     v_of_rho     :      2.00s CPU      2.14s WALL (     277 calls)
     mix_rho      :      2.01s CPU      3.35s WALL (     272 calls)

     Called by c_bands:
     init_us_2    :      0.03s CPU      0.03s WALL (     545 calls)
     cegterg      :      4.52s CPU      4.67s WALL (     272 calls)

     Called by sum_band:

     Called by *egterg:
     h_psi        :      3.78s CPU      3.89s WALL (    1358 calls)
     g_psi        :      0.04s CPU      0.04s WALL (    1085 calls)
     cdiaghg      :      0.28s CPU      0.29s WALL (    1353 calls)

     Called by h_psi:
     h_psi:pot    :      3.76s CPU      3.87s WALL (    1358 calls)
     h_psi:calbec :      0.05s CPU      0.07s WALL (    1358 calls)
     vloc_psi     :      3.69s CPU      3.78s WALL (    1358 calls)
     add_vuspsi   :      0.01s CPU      0.01s WALL (    1358 calls)

     General routines
     calbec       :      0.07s CPU      0.10s WALL (    1377 calls)
     fft          :      1.30s CPU      1.40s WALL (    3055 calls)
     fftw         :      3.84s CPU      3.96s WALL (   17148 calls)
     davcio       :      0.31s CPU      1.15s WALL (    5008 calls)
 
     Parallel routines
     fft_scatter  :      1.94s CPU      2.06s WALL (   20203 calls)
 
     PWSCF        :    10.49s CPU        13.28s WALL

 
   This run was terminated on:   8:32:59  14Feb2018            

=------------------------------------------------------------------------------=
   JOB DONE.
=------------------------------------------------------------------------------=
