
     Program PWSCF v.6.0 (svn rev. 13079) starts on 14Feb2018 at  8:35: 3 

     This program is part of the open-source Quantum ESPRESSO suite
     for quantum simulation of materials; please cite
         "P. Giannozzi et al., J. Phys.:Condens. Matter 21 395502 (2009);
          URL http://www.quantum-espresso.org", 
     in publications or presentations arising from this work. More details at
     http://www.quantum-espresso.org/quote

     Parallel version (MPI), running on    28 processors
     R & G space division:  proc/nbgrp/npool/nimage =      28
     Reading input from inputs/MD-H2O-2/404.in

     Current dimensions of program PWSCF are:
     Max number of different atomic species (ntypx) = 10
     Max number of k-points (npk) =  40000
     Max angular momentum in pseudopotentials (lmaxx) =  3

     Subspace diagonalization in iterative solution of the eigenvalue problem:
     a serial algorithm will be used

 
     Parallelization info
     --------------------
     sticks:   dense  smooth     PW     G-vecs:    dense   smooth      PW
     Min         136     136     33                 6338     6338     787
     Max         137     137     34                 6341     6341     792
     Sum        3809    3809    949               177509   177509   22119
 


     bravais-lattice index     =            1
     lattice parameter (alat)  =      20.0000  a.u.
     unit-cell volume          =    8000.0000 (a.u.)^3
     number of atoms/cell      =            3
     number of atomic types    =            2
     number of electrons       =         8.00
     number of Kohn-Sham states=            8
     kinetic-energy cutoff     =      30.0000  Ry
     charge density cutoff     =     120.0000  Ry
     convergence threshold     =      1.0E-08
     mixing beta               =       0.7000
     number of iterations used =            8  plain     mixing
     Exchange-correlation      = BLYP ( 1  3  1  3 0 0)
     nstep                     =         5000


     celldm(1)=  20.000000  celldm(2)=   0.000000  celldm(3)=   0.000000
     celldm(4)=   0.000000  celldm(5)=   0.000000  celldm(6)=   0.000000

     crystal axes: (cart. coord. in units of alat)
               a(1) = (   1.000000   0.000000   0.000000 )  
               a(2) = (   0.000000   1.000000   0.000000 )  
               a(3) = (   0.000000   0.000000   1.000000 )  

     reciprocal axes: (cart. coord. in units 2 pi/alat)
               b(1) = (  1.000000  0.000000  0.000000 )  
               b(2) = (  0.000000  1.000000  0.000000 )  
               b(3) = (  0.000000  0.000000  1.000000 )  


     PseudoPot. # 1 for  H read from file:
     ./H.blyp-hgh.UPF
     MD5 check sum: c576e69559cde411e611be972c763230
     Pseudo is Norm-conserving, Zval =  1.0
     Generated in analytical, separable form
     Using radial grid of  929 points,  0 beta functions with: 

     PseudoPot. # 2 for  O read from file:
     ./O.blyp-hgh.UPF
     MD5 check sum: d0b7156309aa9befef28faac7bc56342
     Pseudo is Norm-conserving, Zval =  6.0
     Generated in analytical, separable form
     Using radial grid of 1095 points,  1 beta functions with: 
                l(1) =   0

     atomic species   valence    mass     pseudopotential
        H              1.00     1.01000      H( 1.00)
        O              6.00    16.00000      O( 1.00)

     No symmetry found



   Cartesian axes

     site n.     atom                  positions (alat units)
         1           H   tau(   1) = (   0.9173916   0.4053406   0.6520328  )
         2           H   tau(   2) = (   0.5654040   0.6141355   0.4402194  )
         3           O   tau(   3) = (   0.5710331   0.5297367   0.3881522  )

     number of k points=     1  Marzari-Vanderbilt smearing, width (Ry)=  0.0250
                       cart. coord. in units 2pi/alat
        k(    1) = (   0.0000000   0.0000000   0.0000000), wk =   2.0000000

     Dense  grid:   177509 G-vectors     FFT dimensions: (  72,  72,  72)

     Estimated max dynamical RAM per process >       6.09Mb

     Estimated total allocated dynamical RAM >     170.64Mb

     Initial potential from superposition of free atoms
     Check: negative starting charge=   -0.345384

     starting charge    7.99998, renormalised to    8.00000

     negative rho (up, down):  3.454E-01 0.000E+00
     Starting wfc are    6 randomized atomic wfcs +    2 random wfc

     total cpu time spent up to now is        0.2 secs

     per-process dynamical memory:    18.8 Mb

     Self-consistent Calculation

     iteration #  1     ecut=    30.00 Ry     beta=0.70
     Davidson diagonalization with overlap
     ethr =  1.00E-02,  avg # of iterations =  6.0

     negative rho (up, down):  9.021E-02 0.000E+00

     total cpu time spent up to now is        0.3 secs

     total energy              =     -30.40661634 Ry
     Harris-Foulkes estimate   =     -32.23509007 Ry
     estimated scf accuracy    <       2.10531768 Ry

     iteration #  2     ecut=    30.00 Ry     beta=0.70
     Davidson diagonalization with overlap
     ethr =  1.00E-02,  avg # of iterations =  3.0

     negative rho (up, down):  6.566E-02 0.000E+00

     total cpu time spent up to now is        0.3 secs

     total energy              =     -32.27005002 Ry
     Harris-Foulkes estimate   =     -34.49039703 Ry
     estimated scf accuracy    <       5.42033610 Ry

     iteration #  3     ecut=    30.00 Ry     beta=0.70
     Davidson diagonalization with overlap
     ethr =  1.00E-02,  avg # of iterations =  3.0

     negative rho (up, down):  6.314E-02 0.000E+00

     total cpu time spent up to now is        0.4 secs

     total energy              =     -32.41790159 Ry
     Harris-Foulkes estimate   =     -32.50128020 Ry
     estimated scf accuracy    <       1.74925431 Ry

     iteration #  4     ecut=    30.00 Ry     beta=0.70
     Davidson diagonalization with overlap
     ethr =  1.00E-02,  avg # of iterations =  1.0

     negative rho (up, down):  1.208E-02 0.000E+00

     total cpu time spent up to now is        0.4 secs

     total energy              =     -31.32199516 Ry
     Harris-Foulkes estimate   =     -32.41822863 Ry
     estimated scf accuracy    <       1.63334886 Ry

     iteration #  5     ecut=    30.00 Ry     beta=0.70
     Davidson diagonalization with overlap
     ethr =  1.00E-02,  avg # of iterations =  3.0

     negative rho (up, down):  1.906E-02 0.000E+00

     total cpu time spent up to now is        0.4 secs

     total energy              =     -33.25043370 Ry
     Harris-Foulkes estimate   =     -33.15451807 Ry
     estimated scf accuracy    <       6.50264260 Ry

     iteration #  6     ecut=    30.00 Ry     beta=0.70
     Davidson diagonalization with overlap
     ethr =  1.00E-02,  avg # of iterations =  1.0

     negative rho (up, down):  1.297E-02 0.000E+00

     total cpu time spent up to now is        0.5 secs

     total energy              =     -32.90915136 Ry
     Harris-Foulkes estimate   =     -33.26120836 Ry
     estimated scf accuracy    <       8.45341516 Ry

     iteration #  7     ecut=    30.00 Ry     beta=0.70
     Davidson diagonalization with overlap
     ethr =  1.00E-02,  avg # of iterations =  1.0

     negative rho (up, down):  1.217E-02 0.000E+00

     total cpu time spent up to now is        0.5 secs

     total energy              =     -32.75400102 Ry
     Harris-Foulkes estimate   =     -32.98654341 Ry
     estimated scf accuracy    <       3.20852670 Ry

     iteration #  8     ecut=    30.00 Ry     beta=0.70
     Davidson diagonalization with overlap
     ethr =  1.00E-02,  avg # of iterations =  1.0

     negative rho (up, down):  2.897E-02 0.000E+00

     total cpu time spent up to now is        0.5 secs

     total energy              =     -32.36674659 Ry
     Harris-Foulkes estimate   =     -32.75990279 Ry
     estimated scf accuracy    <       2.68508037 Ry

     iteration #  9     ecut=    30.00 Ry     beta=0.70
     Davidson diagonalization with overlap
     ethr =  1.00E-02,  avg # of iterations =  1.0

     negative rho (up, down):  2.945E-02 0.000E+00

     total cpu time spent up to now is        0.5 secs

     total energy              =     -32.01055488 Ry
     Harris-Foulkes estimate   =     -32.37739686 Ry
     estimated scf accuracy    <       1.94091633 Ry

     iteration # 10     ecut=    30.00 Ry     beta=0.70
     Davidson diagonalization with overlap
     ethr =  1.00E-02,  avg # of iterations =  1.0

     negative rho (up, down):  2.719E-02 0.000E+00

     total cpu time spent up to now is        0.6 secs

     total energy              =     -32.26741044 Ry
     Harris-Foulkes estimate   =     -32.02241671 Ry
     estimated scf accuracy    <       1.30120892 Ry

     iteration # 11     ecut=    30.00 Ry     beta=0.70
     Davidson diagonalization with overlap
     ethr =  1.00E-02,  avg # of iterations =  1.0

     negative rho (up, down):  1.975E-02 0.000E+00

     total cpu time spent up to now is        0.6 secs

     total energy              =     -32.14127231 Ry
     Harris-Foulkes estimate   =     -32.27198293 Ry
     estimated scf accuracy    <       1.71383395 Ry

     iteration # 12     ecut=    30.00 Ry     beta=0.70
     Davidson diagonalization with overlap
     ethr =  1.00E-02,  avg # of iterations =  1.0

     negative rho (up, down):  1.597E-01 0.000E+00

     total cpu time spent up to now is        0.6 secs

     total energy              =     -31.66171014 Ry
     Harris-Foulkes estimate   =     -32.14258116 Ry
     estimated scf accuracy    <       1.50122629 Ry

     iteration # 13     ecut=    30.00 Ry     beta=0.70
     Davidson diagonalization with overlap
     ethr =  1.00E-02,  avg # of iterations =  1.0

     negative rho (up, down):  1.514E-01 0.000E+00

     total cpu time spent up to now is        0.7 secs

     total energy              =     -32.20552963 Ry
     Harris-Foulkes estimate   =     -32.20331747 Ry
     estimated scf accuracy    <       1.13726612 Ry

     iteration # 14     ecut=    30.00 Ry     beta=0.70
     Davidson diagonalization with overlap
     ethr =  1.00E-02,  avg # of iterations =  1.0

     negative rho (up, down):  3.039E-02 0.000E+00

     total cpu time spent up to now is        0.7 secs

     total energy              =     -31.97845701 Ry
     Harris-Foulkes estimate   =     -32.20670407 Ry
     estimated scf accuracy    <       1.15930084 Ry

     iteration # 15     ecut=    30.00 Ry     beta=0.70
     Davidson diagonalization with overlap
     ethr =  1.00E-02,  avg # of iterations =  1.0

     negative rho (up, down):  1.373E-02 0.000E+00

     total cpu time spent up to now is        0.7 secs

     total energy              =     -31.60330184 Ry
     Harris-Foulkes estimate   =     -31.97395157 Ry
     estimated scf accuracy    <       0.87689246 Ry

     iteration # 16     ecut=    30.00 Ry     beta=0.70
     Davidson diagonalization with overlap
     ethr =  1.00E-02,  avg # of iterations =  2.0

     negative rho (up, down):  6.826E-03 0.000E+00

     total cpu time spent up to now is        0.8 secs

     total energy              =     -32.38614200 Ry
     Harris-Foulkes estimate   =     -32.52080771 Ry
     estimated scf accuracy    <       2.10843561 Ry

     iteration # 17     ecut=    30.00 Ry     beta=0.70
     Davidson diagonalization with overlap
     ethr =  1.00E-02,  avg # of iterations =  1.0

     negative rho (up, down):  9.451E-03 0.000E+00

     total cpu time spent up to now is        0.8 secs

     total energy              =     -32.06126247 Ry
     Harris-Foulkes estimate   =     -32.38883305 Ry
     estimated scf accuracy    <       1.89985292 Ry

     iteration # 18     ecut=    30.00 Ry     beta=0.70
     Davidson diagonalization with overlap
     ethr =  1.00E-02,  avg # of iterations =  1.0

     negative rho (up, down):  8.808E-03 0.000E+00

     total cpu time spent up to now is        0.8 secs

     total energy              =     -32.09882694 Ry
     Harris-Foulkes estimate   =     -32.07021300 Ry
     estimated scf accuracy    <       1.35776515 Ry

     iteration # 19     ecut=    30.00 Ry     beta=0.70
     Davidson diagonalization with overlap
     ethr =  1.00E-02,  avg # of iterations =  1.0

     negative rho (up, down):  6.197E-03 0.000E+00

     total cpu time spent up to now is        0.9 secs

     total energy              =     -32.17675530 Ry
     Harris-Foulkes estimate   =     -32.09914669 Ry
     estimated scf accuracy    <       1.40776032 Ry

     iteration # 20     ecut=    30.00 Ry     beta=0.70
     Davidson diagonalization with overlap
     ethr =  1.00E-02,  avg # of iterations =  1.0

     negative rho (up, down):  6.506E-03 0.000E+00

     total cpu time spent up to now is        0.9 secs

     total energy              =     -32.08735009 Ry
     Harris-Foulkes estimate   =     -32.17746417 Ry
     estimated scf accuracy    <       1.55099838 Ry

     iteration # 21     ecut=    30.00 Ry     beta=0.70
     Davidson diagonalization with overlap
     ethr =  1.00E-02,  avg # of iterations =  1.0

     negative rho (up, down):  5.907E-03 0.000E+00

     total cpu time spent up to now is        0.9 secs

     total energy              =     -32.07992284 Ry
     Harris-Foulkes estimate   =     -32.08814941 Ry
     estimated scf accuracy    <       1.39495859 Ry

     iteration # 22     ecut=    30.00 Ry     beta=0.70
     Davidson diagonalization with overlap
     ethr =  1.00E-02,  avg # of iterations =  1.0

     negative rho (up, down):  5.819E-03 0.000E+00

     total cpu time spent up to now is        1.0 secs

     total energy              =     -32.05739789 Ry
     Harris-Foulkes estimate   =     -32.07999857 Ry
     estimated scf accuracy    <       1.37800547 Ry

     iteration # 23     ecut=    30.00 Ry     beta=0.70
     Davidson diagonalization with overlap
     ethr =  1.00E-02,  avg # of iterations =  1.0

     negative rho (up, down):  4.574E-03 0.000E+00

     total cpu time spent up to now is        1.0 secs

     total energy              =     -32.01754399 Ry
     Harris-Foulkes estimate   =     -32.05752472 Ry
     estimated scf accuracy    <       1.33271625 Ry

     iteration # 24     ecut=    30.00 Ry     beta=0.70
     Davidson diagonalization with overlap
     ethr =  1.00E-02,  avg # of iterations =  1.0

     negative rho (up, down):  1.001E-01 0.000E+00

     total cpu time spent up to now is        1.0 secs

     total energy              =     -31.01049495 Ry
     Harris-Foulkes estimate   =     -32.01765388 Ry
     estimated scf accuracy    <       1.29020578 Ry

     iteration # 25     ecut=    30.00 Ry     beta=0.70
     Davidson diagonalization with overlap
     ethr =  1.00E-02,  avg # of iterations =  4.0

     negative rho (up, down):  6.466E-03 0.000E+00

     total cpu time spent up to now is        1.1 secs

     total energy              =     -32.38271871 Ry
     Harris-Foulkes estimate   =     -34.07428315 Ry
     estimated scf accuracy    <       3.87392418 Ry

     iteration # 26     ecut=    30.00 Ry     beta=0.70
     Davidson diagonalization with overlap
     ethr =  1.00E-02,  avg # of iterations =  4.0

     negative rho (up, down):  7.502E-04 0.000E+00

     total cpu time spent up to now is        1.1 secs

     total energy              =     -32.05884695 Ry
     Harris-Foulkes estimate   =     -32.42742125 Ry
     estimated scf accuracy    <       1.57111427 Ry

     iteration # 27     ecut=    30.00 Ry     beta=0.70
     Davidson diagonalization with overlap
     ethr =  1.00E-02,  avg # of iterations =  1.0

     negative rho (up, down):  5.439E-04 0.000E+00

     total cpu time spent up to now is        1.1 secs

     total energy              =     -31.99448060 Ry
     Harris-Foulkes estimate   =     -32.05761379 Ry
     estimated scf accuracy    <       1.01657195 Ry

     iteration # 28     ecut=    30.00 Ry     beta=0.70
     Davidson diagonalization with overlap
     ethr =  1.00E-02,  avg # of iterations =  1.0

     negative rho (up, down):  5.552E-04 0.000E+00

     total cpu time spent up to now is        1.2 secs

     total energy              =     -31.96511156 Ry
     Harris-Foulkes estimate   =     -31.99492707 Ry
     estimated scf accuracy    <       0.91508902 Ry

     iteration # 29     ecut=    30.00 Ry     beta=0.70
     Davidson diagonalization with overlap
     ethr =  1.00E-02,  avg # of iterations =  1.0

     negative rho (up, down):  5.740E-04 0.000E+00

     total cpu time spent up to now is        1.2 secs

     total energy              =     -32.00205289 Ry
     Harris-Foulkes estimate   =     -31.96568664 Ry
     estimated scf accuracy    <       0.74863029 Ry

     iteration # 30     ecut=    30.00 Ry     beta=0.70
     Davidson diagonalization with overlap
     ethr =  9.36E-03,  avg # of iterations =  1.0

     negative rho (up, down):  8.299E-04 0.000E+00

     total cpu time spent up to now is        1.2 secs

     total energy              =     -32.06409199 Ry
     Harris-Foulkes estimate   =     -32.00440282 Ry
     estimated scf accuracy    <       0.92552501 Ry

     iteration # 31     ecut=    30.00 Ry     beta=0.70
     Davidson diagonalization with overlap
     ethr =  9.36E-03,  avg # of iterations =  1.0

     negative rho (up, down):  7.104E-04 0.000E+00

     total cpu time spent up to now is        1.3 secs

     total energy              =     -32.04199156 Ry
     Harris-Foulkes estimate   =     -32.06434731 Ry
     estimated scf accuracy    <       1.01902187 Ry

     iteration # 32     ecut=    30.00 Ry     beta=0.70
     Davidson diagonalization with overlap
     ethr =  9.36E-03,  avg # of iterations =  1.0

     negative rho (up, down):  3.360E-04 0.000E+00

     total cpu time spent up to now is        1.3 secs

     total energy              =     -31.92700267 Ry
     Harris-Foulkes estimate   =     -32.04200573 Ry
     estimated scf accuracy    <       0.99008275 Ry

     iteration # 33     ecut=    30.00 Ry     beta=0.70
     Davidson diagonalization with overlap
     ethr =  9.36E-03,  avg # of iterations =  1.0

     negative rho (up, down):  1.719E-05 0.000E+00

     total cpu time spent up to now is        1.3 secs

     total energy              =     -31.95968239 Ry
     Harris-Foulkes estimate   =     -31.94695959 Ry
     estimated scf accuracy    <       0.02951908 Ry

     iteration # 34     ecut=    30.00 Ry     beta=0.70
     Davidson diagonalization with overlap
     ethr =  3.69E-04,  avg # of iterations =  9.0

     negative rho (up, down):  1.430E-05 0.000E+00

     total cpu time spent up to now is        1.4 secs

     total energy              =     -31.99849040 Ry
     Harris-Foulkes estimate   =     -32.01167160 Ry
     estimated scf accuracy    <       1.30096777 Ry

     iteration # 35     ecut=    30.00 Ry     beta=0.70
     Davidson diagonalization with overlap
     ethr =  3.69E-04,  avg # of iterations =  1.0

     negative rho (up, down):  1.031E-05 0.000E+00

     total cpu time spent up to now is        1.4 secs

     total energy              =     -31.97204515 Ry
     Harris-Foulkes estimate   =     -31.99823815 Ry
     estimated scf accuracy    <       1.41119810 Ry

     iteration # 36     ecut=    30.00 Ry     beta=0.70
     Davidson diagonalization with overlap
     ethr =  3.69E-04,  avg # of iterations =  1.0

     negative rho (up, down):  9.853E-06 0.000E+00

     total cpu time spent up to now is        1.4 secs

     total energy              =     -31.93728776 Ry
     Harris-Foulkes estimate   =     -31.97091323 Ry
     estimated scf accuracy    <       1.43415172 Ry

     iteration # 37     ecut=    30.00 Ry     beta=0.70
     Davidson diagonalization with overlap
     ethr =  3.69E-04,  avg # of iterations =  1.0

     negative rho (up, down):  4.238E-08 0.000E+00

     total cpu time spent up to now is        1.5 secs

     total energy              =     -31.95058611 Ry
     Harris-Foulkes estimate   =     -31.94788836 Ry
     estimated scf accuracy    <       0.09902326 Ry

     iteration # 38     ecut=    30.00 Ry     beta=0.70
     Davidson diagonalization with overlap
     ethr =  3.69E-04,  avg # of iterations =  1.0

     negative rho (up, down):  1.391E-08 0.000E+00

     total cpu time spent up to now is        1.5 secs

     total energy              =     -31.95503652 Ry
     Harris-Foulkes estimate   =     -31.95203155 Ry
     estimated scf accuracy    <       0.42020436 Ry

     iteration # 39     ecut=    30.00 Ry     beta=0.70
     Davidson diagonalization with overlap
     ethr =  3.69E-04,  avg # of iterations =  1.0

     total cpu time spent up to now is        1.5 secs

     total energy              =     -31.95259072 Ry
     Harris-Foulkes estimate   =     -31.95542130 Ry
     estimated scf accuracy    <       0.66250014 Ry

     iteration # 40     ecut=    30.00 Ry     beta=0.70
     Davidson diagonalization with overlap
     ethr =  3.69E-04,  avg # of iterations =  1.0

     total cpu time spent up to now is        1.6 secs

     total energy              =     -31.94572440 Ry
     Harris-Foulkes estimate   =     -31.95280095 Ry
     estimated scf accuracy    <       0.47658155 Ry

     iteration # 41     ecut=    30.00 Ry     beta=0.70
     Davidson diagonalization with overlap
     ethr =  3.69E-04,  avg # of iterations =  1.0

     total cpu time spent up to now is        1.6 secs

     total energy              =     -31.94601257 Ry
     Harris-Foulkes estimate   =     -31.94771816 Ry
     estimated scf accuracy    <       0.08559459 Ry

     iteration # 42     ecut=    30.00 Ry     beta=0.70
     Davidson diagonalization with overlap
     ethr =  3.69E-04,  avg # of iterations =  1.0

     total cpu time spent up to now is        1.6 secs

     total energy              =     -31.94643633 Ry
     Harris-Foulkes estimate   =     -31.94666279 Ry
     estimated scf accuracy    <       0.00445503 Ry

     iteration # 43     ecut=    30.00 Ry     beta=0.70
     Davidson diagonalization with overlap
     ethr =  5.57E-05,  avg # of iterations =  1.0

     total cpu time spent up to now is        1.7 secs

     total energy              =     -31.94652193 Ry
     Harris-Foulkes estimate   =     -31.94665945 Ry
     estimated scf accuracy    <       0.00400286 Ry

     iteration # 44     ecut=    30.00 Ry     beta=0.70
     Davidson diagonalization with overlap
     ethr =  5.00E-05,  avg # of iterations =  1.0

     total cpu time spent up to now is        1.7 secs

     total energy              =     -31.94658685 Ry
     Harris-Foulkes estimate   =     -31.94661067 Ry
     estimated scf accuracy    <       0.00035574 Ry

     iteration # 45     ecut=    30.00 Ry     beta=0.70
     Davidson diagonalization with overlap
     ethr =  4.45E-06,  avg # of iterations =  8.0

     total cpu time spent up to now is        1.7 secs

     total energy              =     -31.94659817 Ry
     Harris-Foulkes estimate   =     -31.94661243 Ry
     estimated scf accuracy    <       0.00062174 Ry

     iteration # 46     ecut=    30.00 Ry     beta=0.70
     Davidson diagonalization with overlap
     ethr =  4.45E-06,  avg # of iterations =  1.0

     total cpu time spent up to now is        1.8 secs

     total energy              =     -31.94660430 Ry
     Harris-Foulkes estimate   =     -31.94660435 Ry
     estimated scf accuracy    <       0.00001124 Ry

     iteration # 47     ecut=    30.00 Ry     beta=0.70
     Davidson diagonalization with overlap
     ethr =  1.40E-07,  avg # of iterations =  1.0

     total cpu time spent up to now is        1.8 secs

     total energy              =     -31.94660438 Ry
     Harris-Foulkes estimate   =     -31.94660431 Ry
     estimated scf accuracy    <       0.00000713 Ry

     iteration # 48     ecut=    30.00 Ry     beta=0.70
     Davidson diagonalization with overlap
     ethr =  8.92E-08,  avg # of iterations =  1.0

     total cpu time spent up to now is        1.8 secs

     total energy              =     -31.94660435 Ry
     Harris-Foulkes estimate   =     -31.94660439 Ry
     estimated scf accuracy    <       0.00000757 Ry

     iteration # 49     ecut=    30.00 Ry     beta=0.70
     Davidson diagonalization with overlap
     ethr =  8.92E-08,  avg # of iterations =  1.0

     total cpu time spent up to now is        1.9 secs

     total energy              =     -31.94660447 Ry
     Harris-Foulkes estimate   =     -31.94660440 Ry
     estimated scf accuracy    <       0.00000052 Ry

     iteration # 50     ecut=    30.00 Ry     beta=0.70
     Davidson diagonalization with overlap
     ethr =  6.45E-09,  avg # of iterations =  1.0

     total cpu time spent up to now is        1.9 secs

     total energy              =     -31.94660448 Ry
     Harris-Foulkes estimate   =     -31.94660447 Ry
     estimated scf accuracy    <       0.00000001 Ry

     iteration # 51     ecut=    30.00 Ry     beta=0.70
     Davidson diagonalization with overlap
     ethr =  1.56E-10,  avg # of iterations =  1.0

     total cpu time spent up to now is        1.9 secs

     End of self-consistent calculation

          k = 0.0000 0.0000 0.0000 ( 22119 PWs)   bands (ev):

   -24.7759 -10.6249  -7.0371  -7.0303  -6.8834  -0.6841   0.3232   0.8581

     the Fermi energy is    -6.8596 ev

!    total energy              =     -31.94660444 Ry
     Harris-Foulkes estimate   =     -31.94660448 Ry
     estimated scf accuracy    <          1.3E-10 Ry

     convergence has been achieved in  51 iterations

     Forces acting on atoms (Ry/au):

     atom    1 type  1   force =    -0.00095097   -0.00068548   -0.00038343
     atom    2 type  1   force =    -0.00183165    0.01488803    0.00987282
     atom    3 type  2   force =     0.00278262   -0.01420255   -0.00948940

     Total force =     0.024970     Total SCF correction =     0.000035

     Molecular Dynamics Calculation

     Starting temperature  =  1000.00 K

     temperature is controlled by Andersen thermostat
     Collision frequency = 1.0000/timestep
     mass H                =     1.01
     mass O                =    16.00
     Time step             =   100.00 a.u.,  4.8378 femto-seconds

     Entering Dynamics:    iteration =     1
                           time      =   0.0048 pico-seconds


     Andersen thermostat:    3 collisions

ATOMIC_POSITIONS (bohr)
H       18.424848756   8.117305234  13.451365035
H       11.269189758  12.460099255   8.338231994
O       11.418255264  10.582873855   7.766545090


     kinetic energy (Ekin) =     0.02114315 Ry
     temperature           =  1112.74526534 K 
     Ekin + Etot (const)   =   -31.92546128 Ry

     Linear momentum :   -0.0000000000    0.0000000000   -0.0000000000

     Writing output data file pwscf.save
     Check: negative starting charge=   -0.345384
     NEW-OLD atomic charge density approx. for the potential
     Check: negative starting charge=   -0.345354

     negative rho (up, down):  3.721E-02 0.000E+00

     total cpu time spent up to now is        2.2 secs

     per-process dynamical memory:    20.4 Mb

     Self-consistent Calculation

     iteration #  1     ecut=    30.00 Ry     beta=0.70
     Davidson diagonalization with overlap
     c_bands:  1 eigenvalues not converged
     ethr =  1.00E-06,  avg # of iterations = 20.0

     negative rho (up, down):  8.373E-03 0.000E+00

     total cpu time spent up to now is        2.3 secs

     total energy              =     -31.90834191 Ry
     Harris-Foulkes estimate   =     -31.90954646 Ry
     estimated scf accuracy    <       0.04144880 Ry

     iteration #  2     ecut=    30.00 Ry     beta=0.70
     Davidson diagonalization with overlap
     ethr =  5.18E-04,  avg # of iterations =  2.0

     negative rho (up, down):  7.413E-03 0.000E+00

     total cpu time spent up to now is        2.3 secs

     total energy              =     -31.94815587 Ry
     Harris-Foulkes estimate   =     -32.19919177 Ry
     estimated scf accuracy    <       1.64976330 Ry

     iteration #  3     ecut=    30.00 Ry     beta=0.70
     Davidson diagonalization with overlap
     ethr =  5.18E-04,  avg # of iterations =  2.0

     negative rho (up, down):  7.125E-03 0.000E+00

     total cpu time spent up to now is        2.4 secs

     total energy              =     -31.92671176 Ry
     Harris-Foulkes estimate   =     -31.95290776 Ry
     estimated scf accuracy    <       0.97045284 Ry

     iteration #  4     ecut=    30.00 Ry     beta=0.70
     Davidson diagonalization with overlap
     ethr =  5.18E-04,  avg # of iterations =  1.0

     negative rho (up, down):  9.954E-04 0.000E+00

     total cpu time spent up to now is        2.4 secs

     total energy              =     -31.94612958 Ry
     Harris-Foulkes estimate   =     -31.93974584 Ry
     estimated scf accuracy    <       0.00105575 Ry

     iteration #  5     ecut=    30.00 Ry     beta=0.70
     Davidson diagonalization with overlap
     ethr =  1.32E-05,  avg # of iterations = 15.0

     negative rho (up, down):  5.068E-06 0.000E+00

     total cpu time spent up to now is        2.5 secs

     total energy              =     -31.94592026 Ry
     Harris-Foulkes estimate   =     -31.94999803 Ry
     estimated scf accuracy    <       0.25584529 Ry

     iteration #  6     ecut=    30.00 Ry     beta=0.70
     Davidson diagonalization with overlap
     ethr =  1.32E-05,  avg # of iterations =  3.0

     negative rho (up, down):  1.232E-07 0.000E+00

     total cpu time spent up to now is        2.5 secs

     total energy              =     -31.94376730 Ry
     Harris-Foulkes estimate   =     -31.94689272 Ry
     estimated scf accuracy    <       0.06934177 Ry

     iteration #  7     ecut=    30.00 Ry     beta=0.70
     Davidson diagonalization with overlap
     ethr =  1.32E-05,  avg # of iterations =  1.0

     negative rho (up, down):  2.888E-08 0.000E+00

     total cpu time spent up to now is        2.5 secs

     total energy              =     -31.94580363 Ry
     Harris-Foulkes estimate   =     -31.94633635 Ry
     estimated scf accuracy    <       0.03310230 Ry

     iteration #  8     ecut=    30.00 Ry     beta=0.70
     Davidson diagonalization with overlap
     ethr =  1.32E-05,  avg # of iterations =  1.0

     total cpu time spent up to now is        2.6 secs

     total energy              =     -31.94586209 Ry
     Harris-Foulkes estimate   =     -31.94597094 Ry
     estimated scf accuracy    <       0.00456799 Ry

     iteration #  9     ecut=    30.00 Ry     beta=0.70
     Davidson diagonalization with overlap
     ethr =  1.32E-05,  avg # of iterations =  1.0

     total cpu time spent up to now is        2.6 secs

     total energy              =     -31.94591467 Ry
     Harris-Foulkes estimate   =     -31.94591271 Ry
     estimated scf accuracy    <       0.00002670 Ry

     iteration # 10     ecut=    30.00 Ry     beta=0.70
     Davidson diagonalization with overlap
     ethr =  3.34E-07,  avg # of iterations =  1.0

     total cpu time spent up to now is        2.6 secs

     total energy              =     -31.94591434 Ry
     Harris-Foulkes estimate   =     -31.94591768 Ry
     estimated scf accuracy    <       0.00041216 Ry

     iteration # 11     ecut=    30.00 Ry     beta=0.70
     Davidson diagonalization with overlap
     ethr =  3.34E-07,  avg # of iterations =  1.0

     total cpu time spent up to now is        2.7 secs

     total energy              =     -31.94590935 Ry
     Harris-Foulkes estimate   =     -31.94591483 Ry
     estimated scf accuracy    <       0.00020198 Ry

     iteration # 12     ecut=    30.00 Ry     beta=0.70
     Davidson diagonalization with overlap
     ethr =  3.34E-07,  avg # of iterations =  1.0

     total cpu time spent up to now is        2.7 secs

     End of self-consistent calculation

          k = 0.0000 0.0000 0.0000 ( 22119 PWs)   bands (ev):

   -24.8143 -10.6418  -7.0288  -7.0255  -6.8816  -0.6604   0.3435   0.8747

     the Fermi energy is    -6.8547 ev

!    total energy              =     -31.94591192 Ry
     Harris-Foulkes estimate   =     -31.94591199 Ry
     estimated scf accuracy    <          6.9E-09 Ry

     convergence has been achieved in  12 iterations

     Forces acting on atoms (Ry/au):

     atom    1 type  1   force =    -0.00078885   -0.00081195   -0.00016645
     atom    2 type  1   force =    -0.00344068    0.03457495    0.01069876
     atom    3 type  2   force =     0.00422953   -0.03376300   -0.01053231

     Total force =     0.050910     Total SCF correction =     0.000067

     Entering Dynamics:    iteration =     2
                           time      =   0.0097 pico-seconds


     Andersen thermostat:    3 collisions

ATOMIC_POSITIONS (bohr)
H       18.087961484   8.569288117  13.277353181
H       11.556802266  12.851659578   8.082438867
O       11.421365733  10.529625190   7.793676529


     kinetic energy (Ekin) =     0.02995995 Ry
     temperature           =  1576.76562519 K 
     Ekin + Etot (const)   =   -31.91595196 Ry
     Message from routine dynamics:
     Total linear momentum <> 0

     Linear momentum :    0.2003190149    0.1537482191    0.1818645558

     Writing output data file pwscf.save

     first order wave-functions extrapolation
     Check: negative starting charge=   -0.345354
     first order charge density extrapolation
     Check: negative starting charge=   -0.343191

     negative rho (up, down):  1.054E-01 0.000E+00

     total cpu time spent up to now is        3.0 secs

     per-process dynamical memory:    20.4 Mb

     Self-consistent Calculation

     iteration #  1     ecut=    30.00 Ry     beta=0.70
     Davidson diagonalization with overlap
     c_bands:  1 eigenvalues not converged
     ethr =  1.00E-06,  avg # of iterations = 20.0

     negative rho (up, down):  2.688E-02 0.000E+00

     total cpu time spent up to now is        3.1 secs

     total energy              =     -30.61454013 Ry
     Harris-Foulkes estimate   =     -32.18916052 Ry
     estimated scf accuracy    <       1.46605277 Ry

     iteration #  2     ecut=    30.00 Ry     beta=0.70
     Davidson diagonalization with overlap
     ethr =  1.00E-02,  avg # of iterations =  3.0

     negative rho (up, down):  1.999E-02 0.000E+00

     total cpu time spent up to now is        3.2 secs

     total energy              =     -32.24035728 Ry
     Harris-Foulkes estimate   =     -34.09147210 Ry
     estimated scf accuracy    <       4.79456725 Ry

     iteration #  3     ecut=    30.00 Ry     beta=0.70
     Davidson diagonalization with overlap
     ethr =  1.00E-02,  avg # of iterations =  2.0

     negative rho (up, down):  1.686E-02 0.000E+00

     total cpu time spent up to now is        3.2 secs

     total energy              =     -32.16430190 Ry
     Harris-Foulkes estimate   =     -32.44569179 Ry
     estimated scf accuracy    <       1.59801169 Ry

     iteration #  4     ecut=    30.00 Ry     beta=0.70
     Davidson diagonalization with overlap
     ethr =  1.00E-02,  avg # of iterations =  1.0

     negative rho (up, down):  9.826E-03 0.000E+00

     total cpu time spent up to now is        3.2 secs

     total energy              =     -31.64199808 Ry
     Harris-Foulkes estimate   =     -32.16553243 Ry
     estimated scf accuracy    <       1.24377723 Ry

     iteration #  5     ecut=    30.00 Ry     beta=0.70
     Davidson diagonalization with overlap
     ethr =  1.00E-02,  avg # of iterations =  3.0

     negative rho (up, down):  7.773E-03 0.000E+00

     total cpu time spent up to now is        3.2 secs

     total energy              =     -31.85806649 Ry
     Harris-Foulkes estimate   =     -32.23371499 Ry
     estimated scf accuracy    <       1.72153929 Ry

     iteration #  6     ecut=    30.00 Ry     beta=0.70
     Davidson diagonalization with overlap
     ethr =  1.00E-02,  avg # of iterations =  1.0

     negative rho (up, down):  2.785E-03 0.000E+00

     total cpu time spent up to now is        3.3 secs

     total energy              =     -31.84216321 Ry
     Harris-Foulkes estimate   =     -31.91039438 Ry
     estimated scf accuracy    <       0.40497776 Ry

     iteration #  7     ecut=    30.00 Ry     beta=0.70
     Davidson diagonalization with overlap
     ethr =  5.06E-03,  avg # of iterations =  1.0

     negative rho (up, down):  2.508E-03 0.000E+00

     total cpu time spent up to now is        3.3 secs

     total energy              =     -31.92291960 Ry
     Harris-Foulkes estimate   =     -32.00514640 Ry
     estimated scf accuracy    <       1.27962634 Ry

     iteration #  8     ecut=    30.00 Ry     beta=0.70
     Davidson diagonalization with overlap
     ethr =  5.06E-03,  avg # of iterations =  1.0

     negative rho (up, down):  2.152E-03 0.000E+00

     total cpu time spent up to now is        3.3 secs

     total energy              =     -31.84731423 Ry
     Harris-Foulkes estimate   =     -31.91995462 Ry
     estimated scf accuracy    <       0.85636149 Ry

     iteration #  9     ecut=    30.00 Ry     beta=0.70
     Davidson diagonalization with overlap
     ethr =  5.06E-03,  avg # of iterations =  1.0

     negative rho (up, down):  7.775E-08 0.000E+00

     total cpu time spent up to now is        3.4 secs

     total energy              =     -31.80041946 Ry
     Harris-Foulkes estimate   =     -31.94551176 Ry
     estimated scf accuracy    <       0.91474848 Ry

     iteration # 10     ecut=    30.00 Ry     beta=0.70
     Davidson diagonalization with overlap
     ethr =  5.06E-03,  avg # of iterations =  1.0

     negative rho (up, down):  2.291E-08 0.000E+00

     total cpu time spent up to now is        3.4 secs

     total energy              =     -31.98146229 Ry
     Harris-Foulkes estimate   =     -32.01562659 Ry
     estimated scf accuracy    <       1.30260079 Ry

     iteration # 11     ecut=    30.00 Ry     beta=0.70
     Davidson diagonalization with overlap
     ethr =  5.06E-03,  avg # of iterations =  1.0

     negative rho (up, down):  3.413E-07 0.000E+00

     total cpu time spent up to now is        3.4 secs

     total energy              =     -31.89337628 Ry
     Harris-Foulkes estimate   =     -31.98159354 Ry
     estimated scf accuracy    <       1.26794489 Ry

     iteration # 12     ecut=    30.00 Ry     beta=0.70
     Davidson diagonalization with overlap
     ethr =  5.06E-03,  avg # of iterations =  1.0

     negative rho (up, down):  4.710E-08 0.000E+00

     total cpu time spent up to now is        3.5 secs

     total energy              =     -31.91225549 Ry
     Harris-Foulkes estimate   =     -31.90942709 Ry
     estimated scf accuracy    <       0.01344710 Ry

     iteration # 13     ecut=    30.00 Ry     beta=0.70
     Davidson diagonalization with overlap
     ethr =  1.68E-04,  avg # of iterations =  1.0

     negative rho (up, down):  2.790E-08 0.000E+00

     total cpu time spent up to now is        3.5 secs

     total energy              =     -31.91531750 Ry
     Harris-Foulkes estimate   =     -31.92034681 Ry
     estimated scf accuracy    <       0.55850641 Ry

     iteration # 14     ecut=    30.00 Ry     beta=0.70
     Davidson diagonalization with overlap
     ethr =  1.68E-04,  avg # of iterations =  1.0

     total cpu time spent up to now is        3.5 secs

     total energy              =     -31.88117223 Ry
     Harris-Foulkes estimate   =     -31.91573619 Ry
     estimated scf accuracy    <       0.37545440 Ry

     iteration # 15     ecut=    30.00 Ry     beta=0.70
     Davidson diagonalization with overlap
     ethr =  1.68E-04,  avg # of iterations =  1.0

     total cpu time spent up to now is        3.6 secs

     total energy              =     -31.92229895 Ry
     Harris-Foulkes estimate   =     -31.93591005 Ry
     estimated scf accuracy    <       1.47673792 Ry

     iteration # 16     ecut=    30.00 Ry     beta=0.70
     Davidson diagonalization with overlap
     ethr =  1.68E-04,  avg # of iterations =  1.0

     total cpu time spent up to now is        3.6 secs

     total energy              =     -31.89825194 Ry
     Harris-Foulkes estimate   =     -31.92333199 Ry
     estimated scf accuracy    <       0.98799325 Ry

     iteration # 17     ecut=    30.00 Ry     beta=0.70
     Davidson diagonalization with overlap
     ethr =  1.68E-04,  avg # of iterations =  1.0

     total cpu time spent up to now is        3.6 secs

     total energy              =     -31.90966638 Ry
     Harris-Foulkes estimate   =     -31.90929722 Ry
     estimated scf accuracy    <       0.00471782 Ry

     iteration # 18     ecut=    30.00 Ry     beta=0.70
     Davidson diagonalization with overlap
     ethr =  5.90E-05,  avg # of iterations =  1.0

     total cpu time spent up to now is        3.7 secs

     total energy              =     -31.91035283 Ry
     Harris-Foulkes estimate   =     -31.91020591 Ry
     estimated scf accuracy    <       0.07532990 Ry

     iteration # 19     ecut=    30.00 Ry     beta=0.70
     Davidson diagonalization with overlap
     ethr =  5.90E-05,  avg # of iterations =  1.0

     total cpu time spent up to now is        3.7 secs

     total energy              =     -31.91035244 Ry
     Harris-Foulkes estimate   =     -31.91035858 Ry
     estimated scf accuracy    <       0.08727755 Ry

     iteration # 20     ecut=    30.00 Ry     beta=0.70
     Davidson diagonalization with overlap
     ethr =  5.90E-05,  avg # of iterations =  1.0

     negative rho (up, down):  4.863E-08 0.000E+00

     total cpu time spent up to now is        3.7 secs

     total energy              =     -31.90317107 Ry
     Harris-Foulkes estimate   =     -31.91035247 Ry
     estimated scf accuracy    <       0.08681753 Ry

     iteration # 21     ecut=    30.00 Ry     beta=0.70
     Davidson diagonalization with overlap
     ethr =  5.90E-05,  avg # of iterations =  1.0

     total cpu time spent up to now is        3.8 secs

     total energy              =     -31.90748313 Ry
     Harris-Foulkes estimate   =     -31.91443609 Ry
     estimated scf accuracy    <       0.31036067 Ry

     iteration # 22     ecut=    30.00 Ry     beta=0.70
     Davidson diagonalization with overlap
     ethr =  5.90E-05,  avg # of iterations =  1.0

     total cpu time spent up to now is        3.8 secs

     total energy              =     -31.90817063 Ry
     Harris-Foulkes estimate   =     -31.90968258 Ry
     estimated scf accuracy    <       0.03178396 Ry

     iteration # 23     ecut=    30.00 Ry     beta=0.70
     Davidson diagonalization with overlap
     ethr =  5.90E-05,  avg # of iterations =  1.0

     total cpu time spent up to now is        3.8 secs

     total energy              =     -31.90897658 Ry
     Harris-Foulkes estimate   =     -31.90947778 Ry
     estimated scf accuracy    <       0.01908017 Ry

     iteration # 24     ecut=    30.00 Ry     beta=0.70
     Davidson diagonalization with overlap
     ethr =  5.90E-05,  avg # of iterations =  1.0

     total cpu time spent up to now is        3.9 secs

     total energy              =     -31.90923651 Ry
     Harris-Foulkes estimate   =     -31.90923384 Ry
     estimated scf accuracy    <       0.00001051 Ry

     iteration # 25     ecut=    30.00 Ry     beta=0.70
     Davidson diagonalization with overlap
     ethr =  1.31E-07,  avg # of iterations = 13.0

     total cpu time spent up to now is        3.9 secs

     total energy              =     -31.90923675 Ry
     Harris-Foulkes estimate   =     -31.90923709 Ry
     estimated scf accuracy    <       0.00001056 Ry

     iteration # 26     ecut=    30.00 Ry     beta=0.70
     Davidson diagonalization with overlap
     ethr =  1.31E-07,  avg # of iterations =  1.0

     total cpu time spent up to now is        4.0 secs

     total energy              =     -31.90923889 Ry
     Harris-Foulkes estimate   =     -31.90926301 Ry
     estimated scf accuracy    <       0.00172635 Ry

     iteration # 27     ecut=    30.00 Ry     beta=0.70
     Davidson diagonalization with overlap
     ethr =  1.31E-07,  avg # of iterations =  1.0

     total cpu time spent up to now is        4.0 secs

     total energy              =     -31.90923360 Ry
     Harris-Foulkes estimate   =     -31.90924392 Ry
     estimated scf accuracy    <       0.00049436 Ry

     iteration # 28     ecut=    30.00 Ry     beta=0.70
     Davidson diagonalization with overlap
     ethr =  1.31E-07,  avg # of iterations =  1.0

     total cpu time spent up to now is        4.0 secs

     total energy              =     -31.90923379 Ry
     Harris-Foulkes estimate   =     -31.90923787 Ry
     estimated scf accuracy    <       0.00001883 Ry

     iteration # 29     ecut=    30.00 Ry     beta=0.70
     Davidson diagonalization with overlap
     ethr =  1.31E-07,  avg # of iterations =  1.0

     total cpu time spent up to now is        4.1 secs

     total energy              =     -31.90922801 Ry
     Harris-Foulkes estimate   =     -31.90925679 Ry
     estimated scf accuracy    <       0.00139280 Ry

     iteration # 30     ecut=    30.00 Ry     beta=0.70
     Davidson diagonalization with overlap
     ethr =  1.31E-07,  avg # of iterations =  1.0

     total cpu time spent up to now is        4.1 secs

     total energy              =     -31.90923769 Ry
     Harris-Foulkes estimate   =     -31.90923932 Ry
     estimated scf accuracy    <       0.00006691 Ry

     iteration # 31     ecut=    30.00 Ry     beta=0.70
     Davidson diagonalization with overlap
     ethr =  1.31E-07,  avg # of iterations =  1.0

     total cpu time spent up to now is        4.1 secs

     End of self-consistent calculation

          k = 0.0000 0.0000 0.0000 ( 22119 PWs)   bands (ev):

   -24.1015 -10.0336  -6.9583  -6.9490  -6.8023  -1.3872   0.1134   0.8847

     the Fermi energy is    -6.7792 ev

!    total energy              =     -31.90923851 Ry
     Harris-Foulkes estimate   =     -31.90923859 Ry
     estimated scf accuracy    <          2.1E-09 Ry

     convergence has been achieved in  31 iterations

     Forces acting on atoms (Ry/au):

     atom    1 type  1   force =    -0.00118596   -0.00003095   -0.00086188
     atom    2 type  1   force =    -0.01153598   -0.17973270   -0.02319283
     atom    3 type  2   force =     0.01272194    0.17976365    0.02405471

     Total force =     0.256968     Total SCF correction =     0.000226

     Entering Dynamics:    iteration =     3
                           time      =   0.0145 pico-seconds


     Andersen thermostat:    3 collisions

ATOMIC_POSITIONS (bohr)
H       18.288801758   8.383384333  13.604826177
H       11.640064474  10.981585202   7.800602337
O       11.403431764  10.659408811   7.790795728


     kinetic energy (Ekin) =     0.05313719 Ry
     temperature           =  2796.56268954 K 
     Ekin + Etot (const)   =   -31.85610133 Ry
     Message from routine dynamics:
     Total linear momentum <> 0

     Linear momentum :   -0.0890015228    0.1394817587    0.3447388026

     Writing output data file pwscf.save

     second order wave-functions extrapolation
     Check: negative starting charge=   -0.343191
     second order charge density extrapolation
     Check: negative starting charge=   -0.355183

     negative rho (up, down):  2.205E-01 0.000E+00

     total cpu time spent up to now is        4.4 secs

     per-process dynamical memory:    20.4 Mb

     Self-consistent Calculation

     iteration #  1     ecut=    30.00 Ry     beta=0.70
     Davidson diagonalization with overlap
     c_bands:  1 eigenvalues not converged
     ethr =  1.00E-06,  avg # of iterations = 20.0

     negative rho (up, down):  5.002E-02 0.000E+00

     total cpu time spent up to now is        4.6 secs

     total energy              =     -13.40862306 Ry
     Harris-Foulkes estimate   =     -15.53085807 Ry
     estimated scf accuracy    <       2.47351312 Ry

     iteration #  2     ecut=    30.00 Ry     beta=0.70
     Davidson diagonalization with overlap
     ethr =  1.00E-02,  avg # of iterations =  3.0

     negative rho (up, down):  8.605E-03 0.000E+00

     total cpu time spent up to now is        4.6 secs

     total energy              =     -10.72543203 Ry
     Harris-Foulkes estimate   =     -17.37771816 Ry
     estimated scf accuracy    <      23.76522800 Ry

     iteration #  3     ecut=    30.00 Ry     beta=0.70
     Davidson diagonalization with overlap
     ethr =  1.00E-02,  avg # of iterations =  3.0

     negative rho (up, down):  7.644E-03 0.000E+00

     total cpu time spent up to now is        4.6 secs

     total energy              =     -14.24826766 Ry
     Harris-Foulkes estimate   =     -14.50003835 Ry
     estimated scf accuracy    <       1.57741702 Ry

     iteration #  4     ecut=    30.00 Ry     beta=0.70
     Davidson diagonalization with overlap
     ethr =  1.00E-02,  avg # of iterations =  6.0

     negative rho (up, down):  6.060E-04 0.000E+00

     total cpu time spent up to now is        4.7 secs

     total energy              =     -14.75898719 Ry
     Harris-Foulkes estimate   =     -14.95444107 Ry
     estimated scf accuracy    <       1.24347794 Ry

     iteration #  5     ecut=    30.00 Ry     beta=0.70
     Davidson diagonalization with overlap
     ethr =  1.00E-02,  avg # of iterations =  1.0

     negative rho (up, down):  3.503E-05 0.000E+00

     total cpu time spent up to now is        4.7 secs

     total energy              =     -14.57429589 Ry
     Harris-Foulkes estimate   =     -14.76124530 Ry
     estimated scf accuracy    <       0.94424994 Ry

     iteration #  6     ecut=    30.00 Ry     beta=0.70
     Davidson diagonalization with overlap
     ethr =  1.00E-02,  avg # of iterations =  1.0

     negative rho (up, down):  1.858E-05 0.000E+00

     total cpu time spent up to now is        4.7 secs

     total energy              =     -14.80456530 Ry
     Harris-Foulkes estimate   =     -14.76153402 Ry
     estimated scf accuracy    <       1.74994362 Ry

     iteration #  7     ecut=    30.00 Ry     beta=0.70
     Davidson diagonalization with overlap
     ethr =  1.00E-02,  avg # of iterations =  1.0

     negative rho (up, down):  1.905E-05 0.000E+00

     total cpu time spent up to now is        4.8 secs

     total energy              =     -14.78633332 Ry
     Harris-Foulkes estimate   =     -14.80474278 Ry
     estimated scf accuracy    <       1.82819592 Ry

     iteration #  8     ecut=    30.00 Ry     beta=0.70
     Davidson diagonalization with overlap
     ethr =  1.00E-02,  avg # of iterations =  1.0

     negative rho (up, down):  8.125E-02 0.000E+00

     total cpu time spent up to now is        4.8 secs

     total energy              =     -13.99902757 Ry
     Harris-Foulkes estimate   =     -14.78635240 Ry
     estimated scf accuracy    <       1.79744829 Ry

     iteration #  9     ecut=    30.00 Ry     beta=0.70
     Davidson diagonalization with overlap
     ethr =  1.00E-02,  avg # of iterations =  2.0

     negative rho (up, down):  4.715E-02 0.000E+00

     total cpu time spent up to now is        4.8 secs

     total energy              =     -15.19053575 Ry
     Harris-Foulkes estimate   =     -15.27094348 Ry
     estimated scf accuracy    <       1.65391498 Ry

     iteration # 10     ecut=    30.00 Ry     beta=0.70
     Davidson diagonalization with overlap
     ethr =  1.00E-02,  avg # of iterations =  1.0

     negative rho (up, down):  7.261E-02 0.000E+00

     total cpu time spent up to now is        4.9 secs

     total energy              =     -15.16801933 Ry
     Harris-Foulkes estimate   =     -15.19147593 Ry
     estimated scf accuracy    <       1.52522192 Ry

     iteration # 11     ecut=    30.00 Ry     beta=0.70
     Davidson diagonalization with overlap
     ethr =  1.00E-02,  avg # of iterations =  1.0

     negative rho (up, down):  1.679E-05 0.000E+00

     total cpu time spent up to now is        4.9 secs

     total energy              =     -14.92176069 Ry
     Harris-Foulkes estimate   =     -15.16868985 Ry
     estimated scf accuracy    <       1.46802438 Ry

     iteration # 12     ecut=    30.00 Ry     beta=0.70
     Davidson diagonalization with overlap
     ethr =  1.00E-02,  avg # of iterations =  1.0

     negative rho (up, down):  2.908E-04 0.000E+00

     total cpu time spent up to now is        4.9 secs

     total energy              =     -15.04444749 Ry
     Harris-Foulkes estimate   =     -14.91793007 Ry
     estimated scf accuracy    <       1.12370829 Ry

     iteration # 13     ecut=    30.00 Ry     beta=0.70
     Davidson diagonalization with overlap
     ethr =  1.00E-02,  avg # of iterations =  1.0

     negative rho (up, down):  9.185E-04 0.000E+00

     total cpu time spent up to now is        5.0 secs

     total energy              =     -15.46628024 Ry
     Harris-Foulkes estimate   =     -15.05023364 Ry
     estimated scf accuracy    <       1.27798316 Ry

     iteration # 14     ecut=    30.00 Ry     beta=0.70
     Davidson diagonalization with overlap
     ethr =  1.00E-02,  avg # of iterations =  1.0

     negative rho (up, down):  9.144E-07 0.000E+00

     total cpu time spent up to now is        5.0 secs

     total energy              =     -14.46825022 Ry
     Harris-Foulkes estimate   =     -15.47255598 Ry
     estimated scf accuracy    <       1.87515956 Ry

     iteration # 15     ecut=    30.00 Ry     beta=0.70
     Davidson diagonalization with overlap
     ethr =  1.00E-02,  avg # of iterations =  2.0

     negative rho (up, down):  3.148E-06 0.000E+00

     total cpu time spent up to now is        5.0 secs

     total energy              =     -14.50269218 Ry
     Harris-Foulkes estimate   =     -14.87327546 Ry
     estimated scf accuracy    <       1.85934718 Ry

     iteration # 16     ecut=    30.00 Ry     beta=0.70
     Davidson diagonalization with overlap
     ethr =  1.00E-02,  avg # of iterations =  1.0

     negative rho (up, down):  2.740E-06 0.000E+00

     total cpu time spent up to now is        5.1 secs

     total energy              =     -14.53235170 Ry
     Harris-Foulkes estimate   =     -14.72848534 Ry
     estimated scf accuracy    <       0.84198643 Ry

     iteration # 17     ecut=    30.00 Ry     beta=0.70
     Davidson diagonalization with overlap
     ethr =  1.00E-02,  avg # of iterations =  1.0

     negative rho (up, down):  9.025E-08 0.000E+00

     total cpu time spent up to now is        5.1 secs

     total energy              =     -14.67428442 Ry
     Harris-Foulkes estimate   =     -14.79767648 Ry
     estimated scf accuracy    <       1.71100111 Ry

     iteration # 18     ecut=    30.00 Ry     beta=0.70
     Davidson diagonalization with overlap
     ethr =  1.00E-02,  avg # of iterations =  1.0

     negative rho (up, down):  3.070E-08 0.000E+00

     total cpu time spent up to now is        5.1 secs

     total energy              =     -14.64061102 Ry
     Harris-Foulkes estimate   =     -14.67112797 Ry
     estimated scf accuracy    <       1.58273351 Ry

     iteration # 19     ecut=    30.00 Ry     beta=0.70
     Davidson diagonalization with overlap
     ethr =  1.00E-02,  avg # of iterations =  1.0

     total cpu time spent up to now is        5.2 secs

     total energy              =     -14.61742226 Ry
     Harris-Foulkes estimate   =     -14.65072101 Ry
     estimated scf accuracy    <       0.12055151 Ry

     iteration # 20     ecut=    30.00 Ry     beta=0.70
     Davidson diagonalization with overlap
     ethr =  1.51E-03,  avg # of iterations =  1.0

     total cpu time spent up to now is        5.2 secs

     total energy              =     -14.67347367 Ry
     Harris-Foulkes estimate   =     -14.72283452 Ry
     estimated scf accuracy    <       0.84262213 Ry

     iteration # 21     ecut=    30.00 Ry     beta=0.70
     Davidson diagonalization with overlap
     ethr =  1.51E-03,  avg # of iterations =  1.0

     total cpu time spent up to now is        5.2 secs

     total energy              =     -14.64192141 Ry
     Harris-Foulkes estimate   =     -14.67377999 Ry
     estimated scf accuracy    <       0.74289941 Ry

     iteration # 22     ecut=    30.00 Ry     beta=0.70
     Davidson diagonalization with overlap
     ethr =  1.51E-03,  avg # of iterations =  1.0

     total cpu time spent up to now is        5.3 secs

     total energy              =     -14.65205291 Ry
     Harris-Foulkes estimate   =     -14.64989524 Ry
     estimated scf accuracy    <       0.04022639 Ry

     iteration # 23     ecut=    30.00 Ry     beta=0.70
     Davidson diagonalization with overlap
     ethr =  5.03E-04,  avg # of iterations =  1.0

     negative rho (up, down):  3.032E-08 0.000E+00

     total cpu time spent up to now is        5.3 secs

     total energy              =     -14.63482347 Ry
     Harris-Foulkes estimate   =     -14.65384300 Ry
     estimated scf accuracy    <       0.27458391 Ry

     iteration # 24     ecut=    30.00 Ry     beta=0.70
     Davidson diagonalization with overlap
     ethr =  5.03E-04,  avg # of iterations =  1.0

     negative rho (up, down):  2.196E-08 0.000E+00

     total cpu time spent up to now is        5.3 secs

     total energy              =     -14.58769363 Ry
     Harris-Foulkes estimate   =     -14.65849656 Ry
     estimated scf accuracy    <       0.76124715 Ry

     iteration # 25     ecut=    30.00 Ry     beta=0.70
     Davidson diagonalization with overlap
     ethr =  5.03E-04,  avg # of iterations =  1.0

     negative rho (up, down):  2.831E-07 0.000E+00

     total cpu time spent up to now is        5.4 secs

     total energy              =     -14.66707377 Ry
     Harris-Foulkes estimate   =     -14.69121816 Ry
     estimated scf accuracy    <       0.79221681 Ry

     iteration # 26     ecut=    30.00 Ry     beta=0.70
     Davidson diagonalization with overlap
     ethr =  5.03E-04,  avg # of iterations =  1.0

     negative rho (up, down):  1.995E-07 0.000E+00

     total cpu time spent up to now is        5.4 secs

     total energy              =     -14.66727756 Ry
     Harris-Foulkes estimate   =     -14.66740327 Ry
     estimated scf accuracy    <       0.68002030 Ry

     iteration # 27     ecut=    30.00 Ry     beta=0.70
     Davidson diagonalization with overlap
     ethr =  5.03E-04,  avg # of iterations =  1.0

     total cpu time spent up to now is        5.5 secs

     total energy              =     -14.67120042 Ry
     Harris-Foulkes estimate   =     -14.66727912 Ry
     estimated scf accuracy    <       0.67785327 Ry

     iteration # 28     ecut=    30.00 Ry     beta=0.70
     Davidson diagonalization with overlap
     ethr =  5.03E-04,  avg # of iterations =  1.0

     total cpu time spent up to now is        5.5 secs

     total energy              =     -14.66157895 Ry
     Harris-Foulkes estimate   =     -14.67126914 Ry
     estimated scf accuracy    <       0.72449711 Ry

     iteration # 29     ecut=    30.00 Ry     beta=0.70
     Davidson diagonalization with overlap
     ethr =  5.03E-04,  avg # of iterations =  1.0

     total cpu time spent up to now is        5.5 secs

     total energy              =     -14.67316558 Ry
     Harris-Foulkes estimate   =     -14.66197092 Ry
     estimated scf accuracy    <       0.57716275 Ry

     iteration # 30     ecut=    30.00 Ry     beta=0.70
     Davidson diagonalization with overlap
     ethr =  5.03E-04,  avg # of iterations =  1.0

     total cpu time spent up to now is        5.6 secs

     total energy              =     -14.73784934 Ry
     Harris-Foulkes estimate   =     -14.67402165 Ry
     estimated scf accuracy    <       0.74463073 Ry

     iteration # 31     ecut=    30.00 Ry     beta=0.70
     Davidson diagonalization with overlap
     ethr =  5.03E-04,  avg # of iterations =  1.0

     total cpu time spent up to now is        5.6 secs

     total energy              =     -14.73715920 Ry
     Harris-Foulkes estimate   =     -14.73900485 Ry
     estimated scf accuracy    <       0.86399061 Ry

     iteration # 32     ecut=    30.00 Ry     beta=0.70
     Davidson diagonalization with overlap
     ethr =  5.03E-04,  avg # of iterations =  1.0

     total cpu time spent up to now is        5.6 secs

     total energy              =     -14.63407095 Ry
     Harris-Foulkes estimate   =     -14.73716383 Ry
     estimated scf accuracy    <       0.86175976 Ry

     iteration # 33     ecut=    30.00 Ry     beta=0.70
     Davidson diagonalization with overlap
     ethr =  5.03E-04,  avg # of iterations =  1.0

     total cpu time spent up to now is        5.6 secs

     total energy              =     -14.64153359 Ry
     Harris-Foulkes estimate   =     -14.64938861 Ry
     estimated scf accuracy    <       0.01031225 Ry

     iteration # 34     ecut=    30.00 Ry     beta=0.70
     Davidson diagonalization with overlap
     ethr =  1.29E-04,  avg # of iterations =  3.0

     total cpu time spent up to now is        5.7 secs

     total energy              =     -14.75768046 Ry
     Harris-Foulkes estimate   =     -14.80215063 Ry
     estimated scf accuracy    <       0.95833122 Ry

     iteration # 35     ecut=    30.00 Ry     beta=0.70
     Davidson diagonalization with overlap
     ethr =  1.29E-04,  avg # of iterations =  1.0

     total cpu time spent up to now is        5.7 secs

     total energy              =     -14.64826321 Ry
     Harris-Foulkes estimate   =     -14.75778001 Ry
     estimated scf accuracy    <       0.89396903 Ry

     iteration # 36     ecut=    30.00 Ry     beta=0.70
     Davidson diagonalization with overlap
     ethr =  1.29E-04,  avg # of iterations =  3.0

     total cpu time spent up to now is        5.8 secs

     total energy              =     -14.66742148 Ry
     Harris-Foulkes estimate   =     -14.65293434 Ry
     estimated scf accuracy    <       0.23244358 Ry

     iteration # 37     ecut=    30.00 Ry     beta=0.70
     Davidson diagonalization with overlap
     ethr =  1.29E-04,  avg # of iterations =  1.0

     negative rho (up, down):  3.926E-08 0.000E+00

     total cpu time spent up to now is        5.8 secs

     total energy              =     -14.52823783 Ry
     Harris-Foulkes estimate   =     -14.67462262 Ry
     estimated scf accuracy    <       0.74756387 Ry

     iteration # 38     ecut=    30.00 Ry     beta=0.70
     Davidson diagonalization with overlap
     ethr =  1.29E-04,  avg # of iterations =  3.0

     negative rho (up, down):  1.101E-08 0.000E+00

     total cpu time spent up to now is        5.8 secs

     total energy              =     -14.74242140 Ry
     Harris-Foulkes estimate   =     -14.80952265 Ry
     estimated scf accuracy    <       1.74061119 Ry

     iteration # 39     ecut=    30.00 Ry     beta=0.70
     Davidson diagonalization with overlap
     ethr =  1.29E-04,  avg # of iterations =  1.0

     total cpu time spent up to now is        5.9 secs

     total energy              =     -14.70905899 Ry
     Harris-Foulkes estimate   =     -14.74268033 Ry
     estimated scf accuracy    <       1.63480028 Ry

     iteration # 40     ecut=    30.00 Ry     beta=0.70
     Davidson diagonalization with overlap
     ethr =  1.29E-04,  avg # of iterations =  1.0

     total cpu time spent up to now is        5.9 secs

     total energy              =     -14.62142795 Ry
     Harris-Foulkes estimate   =     -14.70860752 Ry
     estimated scf accuracy    <       1.76494104 Ry

     iteration # 41     ecut=    30.00 Ry     beta=0.70
     Davidson diagonalization with overlap
     ethr =  1.29E-04,  avg # of iterations =  3.0

     total cpu time spent up to now is        5.9 secs

     total energy              =     -14.64108697 Ry
     Harris-Foulkes estimate   =     -14.65008425 Ry
     estimated scf accuracy    <       0.05824261 Ry

     iteration # 42     ecut=    30.00 Ry     beta=0.70
     Davidson diagonalization with overlap
     ethr =  1.29E-04,  avg # of iterations =  1.0

     total cpu time spent up to now is        6.0 secs

     total energy              =     -14.67733028 Ry
     Harris-Foulkes estimate   =     -14.67116942 Ry
     estimated scf accuracy    <       1.57706484 Ry

     iteration # 43     ecut=    30.00 Ry     beta=0.70
     Davidson diagonalization with overlap
     ethr =  1.29E-04,  avg # of iterations =  1.0

     total cpu time spent up to now is        6.1 secs

     total energy              =     -14.64287963 Ry
     Harris-Foulkes estimate   =     -14.67758501 Ry
     estimated scf accuracy    <       1.83181344 Ry

     iteration # 44     ecut=    30.00 Ry     beta=0.70
     Davidson diagonalization with overlap
     ethr =  1.29E-04,  avg # of iterations =  1.0

     total cpu time spent up to now is        6.1 secs

     total energy              =     -14.65282736 Ry
     Harris-Foulkes estimate   =     -14.65219737 Ry
     estimated scf accuracy    <       0.24656296 Ry

     iteration # 45     ecut=    30.00 Ry     beta=0.70
     Davidson diagonalization with overlap
     ethr =  1.29E-04,  avg # of iterations =  1.0

     total cpu time spent up to now is        6.2 secs

     total energy              =     -14.64691004 Ry
     Harris-Foulkes estimate   =     -14.65286177 Ry
     estimated scf accuracy    <       0.30290882 Ry

     iteration # 46     ecut=    30.00 Ry     beta=0.70
     Davidson diagonalization with overlap
     ethr =  1.29E-04,  avg # of iterations =  1.0

     total cpu time spent up to now is        6.2 secs

     total energy              =     -14.64773651 Ry
     Harris-Foulkes estimate   =     -14.64938725 Ry
     estimated scf accuracy    <       0.00843040 Ry

     iteration # 47     ecut=    30.00 Ry     beta=0.70
     Davidson diagonalization with overlap
     ethr =  1.05E-04,  avg # of iterations =  1.0

     total cpu time spent up to now is        6.2 secs

     total energy              =     -14.65677443 Ry
     Harris-Foulkes estimate   =     -14.65429893 Ry
     estimated scf accuracy    <       0.30140006 Ry

     iteration # 48     ecut=    30.00 Ry     beta=0.70
     Davidson diagonalization with overlap
     ethr =  1.05E-04,  avg # of iterations =  1.0

     total cpu time spent up to now is        6.3 secs

     total energy              =     -14.64040746 Ry
     Harris-Foulkes estimate   =     -14.65699804 Ry
     estimated scf accuracy    <       0.41920460 Ry

     iteration # 49     ecut=    30.00 Ry     beta=0.70
     Davidson diagonalization with overlap
     ethr =  1.05E-04,  avg # of iterations =  1.0

     total cpu time spent up to now is        6.3 secs

     total energy              =     -14.65008465 Ry
     Harris-Foulkes estimate   =     -14.64969002 Ry
     estimated scf accuracy    <       0.03338228 Ry

     iteration # 50     ecut=    30.00 Ry     beta=0.70
     Davidson diagonalization with overlap
     ethr =  1.05E-04,  avg # of iterations =  1.0

     total cpu time spent up to now is        6.3 secs

     total energy              =     -14.65153321 Ry
     Harris-Foulkes estimate   =     -14.65018122 Ry
     estimated scf accuracy    <       0.07445858 Ry

     iteration # 51     ecut=    30.00 Ry     beta=0.70
     Davidson diagonalization with overlap
     ethr =  1.05E-04,  avg # of iterations =  1.0

     total cpu time spent up to now is        6.4 secs

     total energy              =     -14.65121404 Ry
     Harris-Foulkes estimate   =     -14.65204098 Ry
     estimated scf accuracy    <       0.23292927 Ry

     iteration # 52     ecut=    30.00 Ry     beta=0.70
     Davidson diagonalization with overlap
     ethr =  1.05E-04,  avg # of iterations =  1.0

     total cpu time spent up to now is        6.4 secs

     total energy              =     -14.64706656 Ry
     Harris-Foulkes estimate   =     -14.65127597 Ry
     estimated scf accuracy    <       0.16764606 Ry

     iteration # 53     ecut=    30.00 Ry     beta=0.70
     Davidson diagonalization with overlap
     ethr =  1.05E-04,  avg # of iterations =  1.0

     total cpu time spent up to now is        6.4 secs

     total energy              =     -14.64930502 Ry
     Harris-Foulkes estimate   =     -14.64928648 Ry
     estimated scf accuracy    <       0.00036840 Ry

     iteration # 54     ecut=    30.00 Ry     beta=0.70
     Davidson diagonalization with overlap
     ethr =  4.60E-06,  avg # of iterations =  1.0

     total cpu time spent up to now is        6.5 secs

     total energy              =     -14.64932575 Ry
     Harris-Foulkes estimate   =     -14.64932233 Ry
     estimated scf accuracy    <       0.00311457 Ry

     iteration # 55     ecut=    30.00 Ry     beta=0.70
     Davidson diagonalization with overlap
     ethr =  4.60E-06,  avg # of iterations =  1.0

     total cpu time spent up to now is        6.5 secs

     total energy              =     -14.64912317 Ry
     Harris-Foulkes estimate   =     -14.64932583 Ry
     estimated scf accuracy    <       0.00334193 Ry

     iteration # 56     ecut=    30.00 Ry     beta=0.70
     Davidson diagonalization with overlap
     ethr =  4.60E-06,  avg # of iterations =  1.0

     total cpu time spent up to now is        6.5 secs

     total energy              =     -14.64936358 Ry
     Harris-Foulkes estimate   =     -14.64937233 Ry
     estimated scf accuracy    <       0.00709400 Ry

     iteration # 57     ecut=    30.00 Ry     beta=0.70
     Davidson diagonalization with overlap
     ethr =  4.60E-06,  avg # of iterations =  1.0

     total cpu time spent up to now is        6.6 secs

     total energy              =     -14.64924529 Ry
     Harris-Foulkes estimate   =     -14.64936396 Ry
     estimated scf accuracy    <       0.00628814 Ry

     iteration # 58     ecut=    30.00 Ry     beta=0.70
     Davidson diagonalization with overlap
     ethr =  4.60E-06,  avg # of iterations =  1.0

     total cpu time spent up to now is        6.6 secs

     total energy              =     -14.64928954 Ry
     Harris-Foulkes estimate   =     -14.64928888 Ry
     estimated scf accuracy    <       0.00039430 Ry

     iteration # 59     ecut=    30.00 Ry     beta=0.70
     Davidson diagonalization with overlap
     ethr =  4.60E-06,  avg # of iterations =  1.0

     total cpu time spent up to now is        6.6 secs

     total energy              =     -14.64929073 Ry
     Harris-Foulkes estimate   =     -14.64928962 Ry
     estimated scf accuracy    <       0.00049257 Ry

     iteration # 60     ecut=    30.00 Ry     beta=0.70
     Davidson diagonalization with overlap
     ethr =  4.60E-06,  avg # of iterations =  1.0

     total cpu time spent up to now is        6.7 secs

     total energy              =     -14.64928691 Ry
     Harris-Foulkes estimate   =     -14.64929075 Ry
     estimated scf accuracy    <       0.00054048 Ry

     iteration # 61     ecut=    30.00 Ry     beta=0.70
     Davidson diagonalization with overlap
     ethr =  4.60E-06,  avg # of iterations =  1.0

     total cpu time spent up to now is        6.7 secs

     total energy              =     -14.64927841 Ry
     Harris-Foulkes estimate   =     -14.64928735 Ry
     estimated scf accuracy    <       0.00030018 Ry

     iteration # 62     ecut=    30.00 Ry     beta=0.70
     Davidson diagonalization with overlap
     ethr =  3.75E-06,  avg # of iterations =  1.0

     total cpu time spent up to now is        6.7 secs

     total energy              =     -14.64928204 Ry
     Harris-Foulkes estimate   =     -14.64928294 Ry
     estimated scf accuracy    <       0.00000308 Ry

     iteration # 63     ecut=    30.00 Ry     beta=0.70
     Davidson diagonalization with overlap
     ethr =  3.85E-08,  avg # of iterations =  1.0

     total cpu time spent up to now is        6.8 secs

     total energy              =     -14.64928189 Ry
     Harris-Foulkes estimate   =     -14.64928207 Ry
     estimated scf accuracy    <       0.00000172 Ry

     iteration # 64     ecut=    30.00 Ry     beta=0.70
     Davidson diagonalization with overlap
     ethr =  2.15E-08,  avg # of iterations =  1.0

     total cpu time spent up to now is        6.8 secs

     total energy              =     -14.64928177 Ry
     Harris-Foulkes estimate   =     -14.64928191 Ry
     estimated scf accuracy    <       0.00000012 Ry

     iteration # 65     ecut=    30.00 Ry     beta=0.70
     Davidson diagonalization with overlap
     ethr =  1.56E-09,  avg # of iterations =  1.0

     total cpu time spent up to now is        6.8 secs

     total energy              =     -14.64928174 Ry
     Harris-Foulkes estimate   =     -14.64928178 Ry
     estimated scf accuracy    <       0.00000002 Ry

     iteration # 66     ecut=    30.00 Ry     beta=0.70
     Davidson diagonalization with overlap
     ethr =  2.90E-10,  avg # of iterations =  1.0

     total cpu time spent up to now is        6.9 secs

     End of self-consistent calculation

          k = 0.0000 0.0000 0.0000 ( 22119 PWs)   bands (ev):

   -29.5536 -10.2889  -7.9611  -7.9586  -7.7805  -0.2826   0.5443   0.7337

     the Fermi energy is    -7.7759 ev

!    total energy              =     -14.64928172 Ry
     Harris-Foulkes estimate   =     -14.64928175 Ry
     estimated scf accuracy    <          1.2E-10 Ry

     convergence has been achieved in  66 iterations

     Forces acting on atoms (Ry/au):

     atom    1 type  1   force =    -0.00050046   -0.00177825   -0.00060026
     atom    2 type  1   force =    44.08733799   60.02610491    1.82516535
     atom    3 type  2   force =   -44.08683754  -60.02432667   -1.82456509

     Total force =   105.356803     Total SCF correction =     0.000026

     Entering Dynamics:    iteration =     4
                           time      =   0.0194 pico-seconds


     Andersen thermostat:    3 collisions

ATOMIC_POSITIONS (bohr)
H       18.144550338   8.428002029  13.631901399
H      490.624435250 663.079834459  27.564011272
O      -18.823350770 -30.507109665   6.541521415


     kinetic energy (Ekin) =  8014.67290133 Ry
     temperature           = ************** K 
     Ekin + Etot (const)   =  8000.02361961 Ry
     Message from routine dynamics:
     Total linear momentum <> 0

     Linear momentum :   -0.0726676297   -0.1698944564    0.2392927011

     Writing output data file pwscf.save

     second order wave-functions extrapolation
     Check: negative starting charge=   -0.355183
     second order charge density extrapolation
     Check: negative starting charge=   -0.345565

     negative rho (up, down):  3.383E+02 0.000E+00

     total cpu time spent up to now is        7.2 secs

     per-process dynamical memory:    20.4 Mb

     Self-consistent Calculation

     iteration #  1     ecut=    30.00 Ry     beta=0.70
     Davidson diagonalization with overlap
     c_bands:  4 eigenvalues not converged
     ethr =  1.00E-06,  avg # of iterations = 20.0

     negative rho (up, down):  1.009E+02 0.000E+00

     total cpu time spent up to now is        7.4 secs

     total energy              =   -2775.36781101 Ry
     Harris-Foulkes estimate   = -143757.92851669 Ry
     estimated scf accuracy    <   25583.43241901 Ry

     iteration #  2     ecut=    30.00 Ry     beta=0.70
     Davidson diagonalization with overlap
     c_bands:  3 eigenvalues not converged
     ethr =  1.00E-02,  avg # of iterations = 20.0

     negative rho (up, down):  2.480E-01 0.000E+00

     total cpu time spent up to now is        7.5 secs

     total energy              =     157.94849509 Ry
     Harris-Foulkes estimate   =  -13058.17313566 Ry
     estimated scf accuracy    <    2335.26933631 Ry

     iteration #  3     ecut=    30.00 Ry     beta=0.70
     Davidson diagonalization with overlap
     ethr =  1.00E-02,  avg # of iterations = 14.0

     negative rho (up, down):  1.514E-01 0.000E+00

     total cpu time spent up to now is        7.6 secs

     total energy              =     -20.00713519 Ry
     Harris-Foulkes estimate   =    -104.39310983 Ry
     estimated scf accuracy    <      59.43894431 Ry

     iteration #  4     ecut=    30.00 Ry     beta=0.70
     Davidson diagonalization with overlap
     ethr =  1.00E-02,  avg # of iterations =  8.0

     negative rho (up, down):  1.946E-01 0.000E+00

     total cpu time spent up to now is        7.6 secs

     total energy              =     -43.97008265 Ry
     Harris-Foulkes estimate   =     -60.05649863 Ry
     estimated scf accuracy    <      40.02321688 Ry

     iteration #  5     ecut=    30.00 Ry     beta=0.70
     Davidson diagonalization with overlap
     ethr =  1.00E-02,  avg # of iterations =  7.0

     negative rho (up, down):  3.141E-01 0.000E+00

     total cpu time spent up to now is        7.6 secs

     total energy              =     -16.81845302 Ry
     Harris-Foulkes estimate   =     -47.92917652 Ry
     estimated scf accuracy    <      14.80082074 Ry

     iteration #  6     ecut=    30.00 Ry     beta=0.70
     Davidson diagonalization with overlap
     ethr =  1.00E-02,  avg # of iterations = 17.0

     negative rho (up, down):  2.027E-01 0.000E+00

     total cpu time spent up to now is        7.7 secs

     total energy              =     105.63335992 Ry
     Harris-Foulkes estimate   =     -76.00373326 Ry
     estimated scf accuracy    <      19.97097589 Ry

     iteration #  7     ecut=    30.00 Ry     beta=0.70
     Davidson diagonalization with overlap
     ethr =  1.00E-02,  avg # of iterations = 12.0

     negative rho (up, down):  1.262E-01 0.000E+00

     total cpu time spent up to now is        7.8 secs

     total energy              =    -169.57733484 Ry
     Harris-Foulkes estimate   =     -66.36654869 Ry
     estimated scf accuracy    <      11.51767533 Ry

     iteration #  8     ecut=    30.00 Ry     beta=0.70
     Davidson diagonalization with overlap
     ethr =  1.00E-02,  avg # of iterations =  6.0

     negative rho (up, down):  4.503E-02 0.000E+00

     total cpu time spent up to now is        7.8 secs

     total energy              =      36.57681845 Ry
     Harris-Foulkes estimate   =    -942.54170675 Ry
     estimated scf accuracy    <      15.41393792 Ry

     iteration #  9     ecut=    30.00 Ry     beta=0.70
     Davidson diagonalization with overlap
     ethr =  1.00E-02,  avg # of iterations =  4.0

     negative rho (up, down):  2.988E-02 0.000E+00

     total cpu time spent up to now is        7.9 secs

     total energy              =     -15.61497015 Ry
     Harris-Foulkes estimate   =     -78.14989489 Ry
     estimated scf accuracy    <       6.92780523 Ry

     iteration # 10     ecut=    30.00 Ry     beta=0.70
     Davidson diagonalization with overlap
     ethr =  1.00E-02,  avg # of iterations =  4.0

     negative rho (up, down):  3.513E-02 0.000E+00

     total cpu time spent up to now is        7.9 secs

     total energy              =    -142.74016325 Ry
     Harris-Foulkes estimate   =     -54.28792871 Ry
     estimated scf accuracy    <       5.39785462 Ry

     iteration # 11     ecut=    30.00 Ry     beta=0.70
     Davidson diagonalization with overlap
     ethr =  1.00E-02,  avg # of iterations = 10.0

     negative rho (up, down):  3.318E-02 0.000E+00

     total cpu time spent up to now is        8.0 secs

     total energy              =      34.96082301 Ry
     Harris-Foulkes estimate   =   -1772.45933601 Ry
     estimated scf accuracy    <      53.46621762 Ry

     iteration # 12     ecut=    30.00 Ry     beta=0.70
     Davidson diagonalization with overlap
     ethr =  1.00E-02,  avg # of iterations =  5.0

     negative rho (up, down):  2.401E-01 0.000E+00

     total cpu time spent up to now is        8.0 secs

     total energy              =      14.38701038 Ry
     Harris-Foulkes estimate   =     -91.95129632 Ry
     estimated scf accuracy    <      26.60703059 Ry

     iteration # 13     ecut=    30.00 Ry     beta=0.70
     Davidson diagonalization with overlap
     ethr =  1.00E-02,  avg # of iterations = 11.0

     negative rho (up, down):  6.932E-02 0.000E+00

     total cpu time spent up to now is        8.1 secs

     total energy              =      11.85591190 Ry
     Harris-Foulkes estimate   =    -150.53595910 Ry
[...]
     Harris-Foulkes estimate   =     -38.59436490 Ry
     estimated scf accuracy    <      11.96692262 Ry

     iteration # 59     ecut=    30.00 Ry     beta=0.70
     Davidson diagonalization with overlap
     ethr =  1.00E-02,  avg # of iterations =  1.0

     negative rho (up, down):  1.088E-02 0.000E+00

     total cpu time spent up to now is       10.5 secs

     total energy              =     -36.33330448 Ry
     Harris-Foulkes estimate   =     -36.97399378 Ry
     estimated scf accuracy    <      10.20813325 Ry

     iteration # 60     ecut=    30.00 Ry     beta=0.70
     Davidson diagonalization with overlap
     ethr =  1.00E-02,  avg # of iterations =  8.0

     negative rho (up, down):  1.744E-02 0.000E+00

     total cpu time spent up to now is       10.5 secs

     total energy              =      27.34938460 Ry
     Harris-Foulkes estimate   =    -183.39425153 Ry
     estimated scf accuracy    <       9.22315498 Ry

     iteration # 61     ecut=    30.00 Ry     beta=0.70
     Davidson diagonalization with overlap
     ethr =  1.00E-02,  avg # of iterations =  6.0

     negative rho (up, down):  4.437E-02 0.000E+00

     total cpu time spent up to now is       10.6 secs

     total energy              =     -33.57947706 Ry
     Harris-Foulkes estimate   =     -36.12010132 Ry
     estimated scf accuracy    <       8.92388968 Ry

     iteration # 62     ecut=    30.00 Ry     beta=0.70
     Davidson diagonalization with overlap
     ethr =  1.00E-02,  avg # of iterations =  1.0

     negative rho (up, down):  4.269E-02 0.000E+00

     total cpu time spent up to now is       10.6 secs

     total energy              =     -34.42013371 Ry
     Harris-Foulkes estimate   =     -33.90785657 Ry
     estimated scf accuracy    <       7.84855494 Ry

     iteration # 63     ecut=    30.00 Ry     beta=0.70
     Davidson diagonalization with overlap
     ethr =  1.00E-02,  avg # of iterations =  2.0

     negative rho (up, down):  1.172E-01 0.000E+00

     total cpu time spent up to now is       10.7 secs

     total energy              =     -34.78278165 Ry
     Harris-Foulkes estimate   =     -34.47713250 Ry
     estimated scf accuracy    <       8.41424096 Ry

     iteration # 64     ecut=    30.00 Ry     beta=0.70
     Davidson diagonalization with overlap
     ethr =  1.00E-02,  avg # of iterations =  9.0

     negative rho (up, down):  5.253E-02 0.000E+00

     total cpu time spent up to now is       10.7 secs

     total energy              =      86.56724468 Ry
     Harris-Foulkes estimate   =    -991.80325712 Ry
     estimated scf accuracy    <      60.53943935 Ry

     iteration # 65     ecut=    30.00 Ry     beta=0.70
     Davidson diagonalization with overlap
     ethr =  1.00E-02,  avg # of iterations =  6.0

     negative rho (up, down):  1.091E-01 0.000E+00

     total cpu time spent up to now is       10.8 secs

     total energy              =      -0.35259415 Ry
     Harris-Foulkes estimate   =     -82.43919245 Ry
     estimated scf accuracy    <       9.23556078 Ry

     iteration # 66     ecut=    30.00 Ry     beta=0.70
     Davidson diagonalization with overlap
     ethr =  1.00E-02,  avg # of iterations =  5.0

     negative rho (up, down):  7.027E-02 0.000E+00

     total cpu time spent up to now is       10.8 secs

     total energy              =     -35.82876288 Ry
     Harris-Foulkes estimate   =     -36.37380769 Ry
     estimated scf accuracy    <       9.41110592 Ry

     iteration # 67     ecut=    30.00 Ry     beta=0.70
     Davidson diagonalization with overlap
     ethr =  1.00E-02,  avg # of iterations =  1.0

     negative rho (up, down):  3.811E-02 0.000E+00

     total cpu time spent up to now is       10.8 secs

     total energy              =     -35.31276959 Ry
     Harris-Foulkes estimate   =     -35.83188289 Ry
     estimated scf accuracy    <       8.81381600 Ry

     iteration # 68     ecut=    30.00 Ry     beta=0.70
     Davidson diagonalization with overlap
     ethr =  1.00E-02,  avg # of iterations =  1.0

     negative rho (up, down):  3.572E-02 0.000E+00

     total cpu time spent up to now is       10.9 secs

     total energy              =     -34.90698852 Ry
     Harris-Foulkes estimate   =     -35.31399483 Ry
     estimated scf accuracy    <       8.14117072 Ry

     iteration # 69     ecut=    30.00 Ry     beta=0.70
     Davidson diagonalization with overlap
     ethr =  1.00E-02,  avg # of iterations =  1.0

     negative rho (up, down):  3.306E-01 0.000E+00

     total cpu time spent up to now is       10.9 secs

     total energy              =     -43.03497167 Ry
     Harris-Foulkes estimate   =     -34.89681187 Ry
     estimated scf accuracy    <       7.58447798 Ry

     iteration # 70     ecut=    30.00 Ry     beta=0.70
     Davidson diagonalization with overlap
     ethr =  1.00E-02,  avg # of iterations =  2.0

     negative rho (up, down):  5.798E-02 0.000E+00

     total cpu time spent up to now is       10.9 secs

     total energy              =     -39.83974444 Ry
     Harris-Foulkes estimate   =     -43.18028813 Ry
     estimated scf accuracy    <      17.96658635 Ry

     iteration # 71     ecut=    30.00 Ry     beta=0.70
     Davidson diagonalization with overlap
     ethr =  1.00E-02,  avg # of iterations =  1.0

     negative rho (up, down):  1.074E-02 0.000E+00

     total cpu time spent up to now is       11.0 secs

     total energy              =     -36.04967948 Ry
     Harris-Foulkes estimate   =     -39.86069209 Ry
     estimated scf accuracy    <      13.78263060 Ry

     iteration # 72     ecut=    30.00 Ry     beta=0.70
     Davidson diagonalization with overlap
     ethr =  1.00E-02,  avg # of iterations =  1.0

     negative rho (up, down):  3.907E-02 0.000E+00

     total cpu time spent up to now is       11.0 secs

     total energy              =     -41.79104822 Ry
     Harris-Foulkes estimate   =     -36.08420066 Ry
     estimated scf accuracy    <       8.96108998 Ry

     iteration # 73     ecut=    30.00 Ry     beta=0.70
     Davidson diagonalization with overlap
     ethr =  1.00E-02,  avg # of iterations =  1.0

     negative rho (up, down):  7.909E-02 0.000E+00

     total cpu time spent up to now is       11.1 secs

     total energy              =     -28.97683773 Ry
     Harris-Foulkes estimate   =     -41.83991528 Ry
     estimated scf accuracy    <      15.92412830 Ry

     iteration # 74     ecut=    30.00 Ry     beta=0.70
     Davidson diagonalization with overlap
     ethr =  1.00E-02,  avg # of iterations =  8.0

     negative rho (up, down):  1.542E-02 0.000E+00

     total cpu time spent up to now is       11.1 secs

     total energy              =       6.33996541 Ry
     Harris-Foulkes estimate   =     -98.76322958 Ry
     estimated scf accuracy    <      49.60023202 Ry

     iteration # 75     ecut=    30.00 Ry     beta=0.70
     Davidson diagonalization with overlap
     ethr =  1.00E-02,  avg # of iterations =  5.0

     negative rho (up, down):  1.251E-02 0.000E+00

     total cpu time spent up to now is       11.2 secs

     total energy              =     -35.95945903 Ry
     Harris-Foulkes estimate   =     -36.01493434 Ry
     estimated scf accuracy    <      18.01678707 Ry

     iteration # 76     ecut=    30.00 Ry     beta=0.70
     Davidson diagonalization with overlap
     ethr =  1.00E-02,  avg # of iterations =  6.0

     negative rho (up, down):  1.103E-01 0.000E+00

     total cpu time spent up to now is       11.2 secs

     total energy              =     -56.08742889 Ry
     Harris-Foulkes estimate   =     -57.69752972 Ry
     estimated scf accuracy    <      29.88584996 Ry

     iteration # 77     ecut=    30.00 Ry     beta=0.70
     Davidson diagonalization with overlap
     ethr =  1.00E-02,  avg # of iterations =  5.0

     negative rho (up, down):  1.224E-01 0.000E+00

     total cpu time spent up to now is       11.3 secs

     total energy              =     -70.56029733 Ry
     Harris-Foulkes estimate   =    -223.56214651 Ry
     estimated scf accuracy    <      44.98005041 Ry

     iteration # 78     ecut=    30.00 Ry     beta=0.70
     Davidson diagonalization with overlap
     ethr =  1.00E-02,  avg # of iterations =  7.0

     negative rho (up, down):  1.355E-01 0.000E+00

     total cpu time spent up to now is       11.3 secs

     total energy              =      -1.23625668 Ry
     Harris-Foulkes estimate   =    -645.04585615 Ry
     estimated scf accuracy    <      80.72212216 Ry

     iteration # 79     ecut=    30.00 Ry     beta=0.70
     Davidson diagonalization with overlap
     ethr =  1.00E-02,  avg # of iterations =  5.0

     negative rho (up, down):  2.493E-01 0.000E+00

     total cpu time spent up to now is       11.4 secs

     total energy              =     -22.22840772 Ry
     Harris-Foulkes estimate   =     -84.16236234 Ry
     estimated scf accuracy    <      32.89418815 Ry

     iteration # 80     ecut=    30.00 Ry     beta=0.70
     Davidson diagonalization with overlap
     ethr =  1.00E-02,  avg # of iterations =  5.0

     negative rho (up, down):  2.982E-01 0.000E+00

     total cpu time spent up to now is       11.4 secs

     total energy              =     -59.19008430 Ry
     Harris-Foulkes estimate   =     -64.02357923 Ry
     estimated scf accuracy    <      30.08967216 Ry

     iteration # 81     ecut=    30.00 Ry     beta=0.70
     Davidson diagonalization with overlap
     ethr =  1.00E-02,  avg # of iterations =  6.0

     negative rho (up, down):  3.311E-02 0.000E+00

     total cpu time spent up to now is       11.5 secs

     total energy              =      66.24388501 Ry
     Harris-Foulkes estimate   =    -147.50828357 Ry
     estimated scf accuracy    <      87.65938673 Ry

     iteration # 82     ecut=    30.00 Ry     beta=0.70
     Davidson diagonalization with overlap
     ethr =  1.00E-02,  avg # of iterations =  7.0

     negative rho (up, down):  9.047E-01 0.000E+00

     total cpu time spent up to now is       11.5 secs

     total energy              =     -13.64142347 Ry
     Harris-Foulkes estimate   =     -55.30565537 Ry
     estimated scf accuracy    <       8.31073863 Ry

     iteration # 83     ecut=    30.00 Ry     beta=0.70
     Davidson diagonalization with overlap
     ethr =  1.00E-02,  avg # of iterations =  8.0

     negative rho (up, down):  1.258E+00 0.000E+00

     total cpu time spent up to now is       11.6 secs

     total energy              =      71.39318067 Ry
     Harris-Foulkes estimate   =    -381.30268073 Ry
     estimated scf accuracy    <      51.52971024 Ry

     iteration # 84     ecut=    30.00 Ry     beta=0.70
     Davidson diagonalization with overlap
     ethr =  1.00E-02,  avg # of iterations = 13.0

     negative rho (up, down):  1.293E+00 0.000E+00

     total cpu time spent up to now is       11.6 secs

     total energy              =   -1117.39746217 Ry
     Harris-Foulkes estimate   =    -420.26954015 Ry
     estimated scf accuracy    <      48.76743830 Ry

     iteration # 85     ecut=    30.00 Ry     beta=0.70
     Davidson diagonalization with overlap
     ethr =  1.00E-02,  avg # of iterations =  6.0

     negative rho (up, down):  1.310E+00 0.000E+00

     total cpu time spent up to now is       11.7 secs

     total energy              =      40.15481516 Ry
     Harris-Foulkes estimate   =   -2946.40396455 Ry
     estimated scf accuracy    <      48.16758200 Ry

     iteration # 86     ecut=    30.00 Ry     beta=0.70
     Davidson diagonalization with overlap
     ethr =  1.00E-02,  avg # of iterations =  5.0

     negative rho (up, down):  1.161E+00 0.000E+00

     total cpu time spent up to now is       11.7 secs

     total energy              =    -570.89646734 Ry
     Harris-Foulkes estimate   =   -7113.98665264 Ry
     estimated scf accuracy    <      40.41282485 Ry

     iteration # 87     ecut=    30.00 Ry     beta=0.70
     Davidson diagonalization with overlap
     ethr =  1.00E-02,  avg # of iterations =  8.0

     negative rho (up, down):  1.020E+00 0.000E+00

     total cpu time spent up to now is       11.8 secs

     total energy              =    -450.70960891 Ry
     Harris-Foulkes estimate   =  -13793.65657570 Ry
     estimated scf accuracy    <      40.24202443 Ry

     iteration # 88     ecut=    30.00 Ry     beta=0.70
     Davidson diagonalization with overlap
     ethr =  1.00E-02,  avg # of iterations =  8.0

     negative rho (up, down):  9.404E-01 0.000E+00

     total cpu time spent up to now is       11.9 secs

     total energy              =   -1963.50442845 Ry
     Harris-Foulkes estimate   =  -14033.99604677 Ry
     estimated scf accuracy    <      40.26826423 Ry

     iteration # 89     ecut=    30.00 Ry     beta=0.70
     Davidson diagonalization with overlap
     ethr =  1.00E-02,  avg # of iterations =  8.0

     negative rho (up, down):  1.010E+00 0.000E+00

     total cpu time spent up to now is       11.9 secs

     total energy              =      46.13377312 Ry
     Harris-Foulkes estimate   =   -6800.92872097 Ry
     estimated scf accuracy    <      33.14385764 Ry

     iteration # 90     ecut=    30.00 Ry     beta=0.70
     Davidson diagonalization with overlap
     ethr =  1.00E-02,  avg # of iterations = 11.0

     negative rho (up, down):  7.033E-01 0.000E+00

     total cpu time spent up to now is       12.0 secs

     total energy              =      -9.08385096 Ry
     Harris-Foulkes estimate   =   -3763.82533148 Ry
     estimated scf accuracy    <      40.61151492 Ry

     iteration # 91     ecut=    30.00 Ry     beta=0.70
     Davidson diagonalization with overlap
     ethr =  1.00E-02,  avg # of iterations = 10.0

     negative rho (up, down):  9.168E-01 0.000E+00

     total cpu time spent up to now is       12.0 secs

     total energy              =      42.05264126 Ry
     Harris-Foulkes estimate   =   -4450.20864036 Ry
     estimated scf accuracy    <      40.29970924 Ry

     iteration # 92     ecut=    30.00 Ry     beta=0.70
     Davidson diagonalization with overlap
     ethr =  1.00E-02,  avg # of iterations =  9.0

     negative rho (up, down):  1.090E+00 0.000E+00

     total cpu time spent up to now is       12.1 secs

     total energy              =     116.17536269 Ry
     Harris-Foulkes estimate   =   -6174.47369756 Ry
     estimated scf accuracy    <      24.00554362 Ry

     iteration # 93     ecut=    30.00 Ry     beta=0.70
     Davidson diagonalization with overlap
     ethr =  1.00E-02,  avg # of iterations =  9.0

     negative rho (up, down):  2.357E-01 0.000E+00

     total cpu time spent up to now is       12.2 secs

     total energy              =     -23.75119881 Ry
     Harris-Foulkes estimate   =   -2719.99960810 Ry
     estimated scf accuracy    <      21.20736475 Ry

     iteration # 94     ecut=    30.00 Ry     beta=0.70
     Davidson diagonalization with overlap
     ethr =  1.00E-02,  avg # of iterations = 13.0

     negative rho (up, down):  1.965E-01 0.000E+00

     total cpu time spent up to now is       12.2 secs

     total energy              =     142.79348254 Ry
     Harris-Foulkes estimate   =   -4029.63912411 Ry
     estimated scf accuracy    <      19.84951996 Ry

     iteration # 95     ecut=    30.00 Ry     beta=0.70
     Davidson diagonalization with overlap
     ethr =  1.00E-02,  avg # of iterations = 10.0

     negative rho (up, down):  2.355E-01 0.000E+00

     total cpu time spent up to now is       12.3 secs

     total energy              =    -328.92557771 Ry
     Harris-Foulkes estimate   =    -854.97754458 Ry
     estimated scf accuracy    <      30.67121082 Ry

     iteration # 96     ecut=    30.00 Ry     beta=0.70
     Davidson diagonalization with overlap
     ethr =  1.00E-02,  avg # of iterations =  7.0

     negative rho (up, down):  1.231E-01 0.000E+00

     total cpu time spent up to now is       12.3 secs

     total energy              =      77.30359740 Ry
     Harris-Foulkes estimate   =   -1203.79838411 Ry
     estimated scf accuracy    <      27.96169304 Ry

     iteration # 97     ecut=    30.00 Ry     beta=0.70
     Davidson diagonalization with overlap
     ethr =  1.00E-02,  avg # of iterations =  5.0

     negative rho (up, down):  6.547E-03 0.000E+00

     total cpu time spent up to now is       12.4 secs

     total energy              =     145.81168110 Ry
     Harris-Foulkes estimate   =   -2764.11755720 Ry
     estimated scf accuracy    <      15.70255673 Ry

     iteration # 98     ecut=    30.00 Ry     beta=0.70
     Davidson diagonalization with overlap
     ethr =  1.00E-02,  avg # of iterations =  7.0

     negative rho (up, down):  2.241E-03 0.000E+00

     total cpu time spent up to now is       12.4 secs

     total energy              =     -24.01165859 Ry
     Harris-Foulkes estimate   =    -120.28987117 Ry
     estimated scf accuracy    <      44.85682122 Ry

     iteration # 99     ecut=    30.00 Ry     beta=0.70
     Davidson diagonalization with overlap
     ethr =  1.00E-02,  avg # of iterations =  6.0

     negative rho (up, down):  5.602E-02 0.000E+00

     total cpu time spent up to now is       12.5 secs

     total energy              =     -69.15100329 Ry
     Harris-Foulkes estimate   =     -74.36088047 Ry
     estimated scf accuracy    <      57.68036003 Ry

     iteration #100     ecut=    30.00 Ry     beta=0.70
     Davidson diagonalization with overlap
     ethr =  1.00E-02,  avg # of iterations =  1.0

     negative rho (up, down):  9.041E-02 0.000E+00

     total cpu time spent up to now is       12.5 secs

     total energy              =     -77.20597572 Ry
     Harris-Foulkes estimate   =     -69.16457299 Ry
     estimated scf accuracy    <      51.23802617 Ry

     End of self-consistent calculation

     convergence NOT achieved after 100 iterations: stopping

     Writing output data file pwscf.save
 
     init_run     :      0.09s CPU      0.11s WALL (       1 calls)
     electrons    :      9.09s CPU     11.25s WALL (       5 calls)
     update_pot   :      0.46s CPU      0.67s WALL (       4 calls)
     forces       :      0.10s CPU      0.11s WALL (       4 calls)

     Called by init_run:
     wfcinit      :      0.01s CPU      0.02s WALL (       1 calls)
     potinit      :      0.02s CPU      0.03s WALL (       1 calls)

     Called by electrons:
     c_bands      :      4.32s CPU      4.54s WALL (     260 calls)
     sum_band     :      0.76s CPU      0.81s WALL (     260 calls)
     v_of_rho     :      1.89s CPU      2.04s WALL (     265 calls)
     mix_rho      :      1.83s CPU      3.18s WALL (     260 calls)

     Called by c_bands:
     init_us_2    :      0.02s CPU      0.03s WALL (     521 calls)
     cegterg      :      4.26s CPU      4.40s WALL (     260 calls)

     Called by sum_band:

     Called by *egterg:
     h_psi        :      3.57s CPU      3.67s WALL (    1299 calls)
     g_psi        :      0.04s CPU      0.04s WALL (    1038 calls)
     cdiaghg      :      0.26s CPU      0.27s WALL (    1294 calls)

     Called by h_psi:
     h_psi:pot    :      3.55s CPU      3.65s WALL (    1299 calls)
     h_psi:calbec :      0.04s CPU      0.05s WALL (    1299 calls)
     vloc_psi     :      3.49s CPU      3.58s WALL (    1299 calls)
     add_vuspsi   :      0.01s CPU      0.01s WALL (    1299 calls)

     General routines
     calbec       :      0.06s CPU      0.08s WALL (    1318 calls)
     fft          :      1.34s CPU      1.46s WALL (    2923 calls)
     fftw         :      3.64s CPU      3.75s WALL (   16328 calls)
     davcio       :      0.26s CPU      1.14s WALL (    4768 calls)
 
     Parallel routines
     fft_scatter  :      1.92s CPU      2.07s WALL (   19251 calls)
 
     PWSCF        :     9.92s CPU        12.62s WALL

 
   This run was terminated on:   8:35:15  14Feb2018            

=------------------------------------------------------------------------------=
   JOB DONE.
=------------------------------------------------------------------------------=
