
     Program PWSCF v.6.0 (svn rev. 13079) starts on 14Feb2018 at  8:39:56 

     This program is part of the open-source Quantum ESPRESSO suite
     for quantum simulation of materials; please cite
         "P. Giannozzi et al., J. Phys.:Condens. Matter 21 395502 (2009);
          URL http://www.quantum-espresso.org", 
     in publications or presentations arising from this work. More details at
     http://www.quantum-espresso.org/quote

     Parallel version (MPI), running on    28 processors
     R & G space division:  proc/nbgrp/npool/nimage =      28
     Reading input from inputs/MD-H2O-2/428.in

     Current dimensions of program PWSCF are:
     Max number of different atomic species (ntypx) = 10
     Max number of k-points (npk) =  40000
     Max angular momentum in pseudopotentials (lmaxx) =  3

     Subspace diagonalization in iterative solution of the eigenvalue problem:
     a serial algorithm will be used

 
     Parallelization info
     --------------------
     sticks:   dense  smooth     PW     G-vecs:    dense   smooth      PW
     Min         136     136     33                 6338     6338     787
     Max         137     137     34                 6341     6341     792
     Sum        3809    3809    949               177509   177509   22119
 


     bravais-lattice index     =            1
     lattice parameter (alat)  =      20.0000  a.u.
     unit-cell volume          =    8000.0000 (a.u.)^3
     number of atoms/cell      =            3
     number of atomic types    =            2
     number of electrons       =         8.00
     number of Kohn-Sham states=            8
     kinetic-energy cutoff     =      30.0000  Ry
     charge density cutoff     =     120.0000  Ry
     convergence threshold     =      1.0E-08
     mixing beta               =       0.7000
     number of iterations used =            8  plain     mixing
     Exchange-correlation      = BLYP ( 1  3  1  3 0 0)
     nstep                     =         5000


     celldm(1)=  20.000000  celldm(2)=   0.000000  celldm(3)=   0.000000
     celldm(4)=   0.000000  celldm(5)=   0.000000  celldm(6)=   0.000000

     crystal axes: (cart. coord. in units of alat)
               a(1) = (   1.000000   0.000000   0.000000 )  
               a(2) = (   0.000000   1.000000   0.000000 )  
               a(3) = (   0.000000   0.000000   1.000000 )  

     reciprocal axes: (cart. coord. in units 2 pi/alat)
               b(1) = (  1.000000  0.000000  0.000000 )  
               b(2) = (  0.000000  1.000000  0.000000 )  
               b(3) = (  0.000000  0.000000  1.000000 )  


     PseudoPot. # 1 for  H read from file:
     ./H.blyp-hgh.UPF
     MD5 check sum: c576e69559cde411e611be972c763230
     Pseudo is Norm-conserving, Zval =  1.0
     Generated in analytical, separable form
     Using radial grid of  929 points,  0 beta functions with: 

     PseudoPot. # 2 for  O read from file:
     ./O.blyp-hgh.UPF
     MD5 check sum: d0b7156309aa9befef28faac7bc56342
     Pseudo is Norm-conserving, Zval =  6.0
     Generated in analytical, separable form
     Using radial grid of 1095 points,  1 beta functions with: 
                l(1) =   0

     atomic species   valence    mass     pseudopotential
        H              1.00     1.01000      H( 1.00)
        O              6.00    16.00000      O( 1.00)

     No symmetry found



   Cartesian axes

     site n.     atom                  positions (alat units)
         1           H   tau(   1) = (   0.1649774   0.6033699   0.8372107  )
         2           H   tau(   2) = (   0.9982199   0.5436767   0.4203176  )
         3           O   tau(   3) = (   0.0696877   0.4842691   0.3848500  )

     number of k points=     1  Marzari-Vanderbilt smearing, width (Ry)=  0.0250
                       cart. coord. in units 2pi/alat
        k(    1) = (   0.0000000   0.0000000   0.0000000), wk =   2.0000000

     Dense  grid:   177509 G-vectors     FFT dimensions: (  72,  72,  72)

     Estimated max dynamical RAM per process >       6.09Mb

     Estimated total allocated dynamical RAM >     170.64Mb

     Initial potential from superposition of free atoms
     Check: negative starting charge=   -0.345229

     starting charge    7.99998, renormalised to    8.00000

     negative rho (up, down):  3.452E-01 0.000E+00
     Starting wfc are    6 randomized atomic wfcs +    2 random wfc

     total cpu time spent up to now is        0.2 secs

     per-process dynamical memory:    18.8 Mb

     Self-consistent Calculation

     iteration #  1     ecut=    30.00 Ry     beta=0.70
     Davidson diagonalization with overlap
     ethr =  1.00E-02,  avg # of iterations =  7.0

     negative rho (up, down):  8.993E-02 0.000E+00

     total cpu time spent up to now is        0.3 secs

     total energy              =     -30.38840223 Ry
     Harris-Foulkes estimate   =     -32.23279269 Ry
     estimated scf accuracy    <       2.12874895 Ry

     iteration #  2     ecut=    30.00 Ry     beta=0.70
     Davidson diagonalization with overlap
     ethr =  1.00E-02,  avg # of iterations =  4.0

     negative rho (up, down):  6.542E-02 0.000E+00

     total cpu time spent up to now is        0.3 secs

     total energy              =     -32.27340763 Ry
     Harris-Foulkes estimate   =     -34.51285948 Ry
     estimated scf accuracy    <       5.46241486 Ry

     iteration #  3     ecut=    30.00 Ry     beta=0.70
     Davidson diagonalization with overlap
     ethr =  1.00E-02,  avg # of iterations =  2.0

     negative rho (up, down):  6.276E-02 0.000E+00

     total cpu time spent up to now is        0.3 secs

     total energy              =     -32.41935351 Ry
     Harris-Foulkes estimate   =     -32.50750604 Ry
     estimated scf accuracy    <       1.75607455 Ry

     iteration #  4     ecut=    30.00 Ry     beta=0.70
     Davidson diagonalization with overlap
     ethr =  1.00E-02,  avg # of iterations =  1.0

     negative rho (up, down):  1.173E-02 0.000E+00

     total cpu time spent up to now is        0.4 secs

     total energy              =     -31.32640637 Ry
     Harris-Foulkes estimate   =     -32.41969852 Ry
     estimated scf accuracy    <       1.63274056 Ry

     iteration #  5     ecut=    30.00 Ry     beta=0.70
     Davidson diagonalization with overlap
     ethr =  1.00E-02,  avg # of iterations =  4.0

     negative rho (up, down):  1.282E-02 0.000E+00

     total cpu time spent up to now is        0.4 secs

     total energy              =     -33.14992791 Ry
     Harris-Foulkes estimate   =     -33.13227305 Ry
     estimated scf accuracy    <       5.08875827 Ry

     iteration #  6     ecut=    30.00 Ry     beta=0.70
     Davidson diagonalization with overlap
     ethr =  1.00E-02,  avg # of iterations =  1.0

     negative rho (up, down):  1.542E-02 0.000E+00

     total cpu time spent up to now is        0.4 secs

     total energy              =     -32.96646515 Ry
     Harris-Foulkes estimate   =     -33.15597506 Ry
     estimated scf accuracy    <       5.73695051 Ry

     iteration #  7     ecut=    30.00 Ry     beta=0.70
     Davidson diagonalization with overlap
     ethr =  1.00E-02,  avg # of iterations =  1.0

     negative rho (up, down):  1.070E-02 0.000E+00

     total cpu time spent up to now is        0.5 secs

     total energy              =     -32.75999863 Ry
     Harris-Foulkes estimate   =     -33.00057394 Ry
     estimated scf accuracy    <       3.22301823 Ry

     iteration #  8     ecut=    30.00 Ry     beta=0.70
     Davidson diagonalization with overlap
     ethr =  1.00E-02,  avg # of iterations =  1.0

     negative rho (up, down):  1.206E-02 0.000E+00

     total cpu time spent up to now is        0.5 secs

     total energy              =     -32.29340312 Ry
     Harris-Foulkes estimate   =     -32.76515000 Ry
     estimated scf accuracy    <       2.69287407 Ry

     iteration #  9     ecut=    30.00 Ry     beta=0.70
     Davidson diagonalization with overlap
     ethr =  1.00E-02,  avg # of iterations =  1.0

     negative rho (up, down):  1.108E-02 0.000E+00

     total cpu time spent up to now is        0.5 secs

     total energy              =     -31.95879183 Ry
     Harris-Foulkes estimate   =     -32.30900675 Ry
     estimated scf accuracy    <       1.79979799 Ry

     iteration # 10     ecut=    30.00 Ry     beta=0.70
     Davidson diagonalization with overlap
     ethr =  1.00E-02,  avg # of iterations =  1.0

     negative rho (up, down):  1.258E-02 0.000E+00

     total cpu time spent up to now is        0.6 secs

     total energy              =     -32.30125016 Ry
     Harris-Foulkes estimate   =     -31.96599296 Ry
     estimated scf accuracy    <       1.29464148 Ry

     iteration # 11     ecut=    30.00 Ry     beta=0.70
     Davidson diagonalization with overlap
     ethr =  1.00E-02,  avg # of iterations =  1.0

     negative rho (up, down):  7.785E-03 0.000E+00

     total cpu time spent up to now is        0.6 secs

     total energy              =     -32.06803332 Ry
     Harris-Foulkes estimate   =     -32.30093621 Ry
     estimated scf accuracy    <       1.75393142 Ry

     iteration # 12     ecut=    30.00 Ry     beta=0.70
     Davidson diagonalization with overlap
     ethr =  1.00E-02,  avg # of iterations =  1.0

     negative rho (up, down):  8.350E-02 0.000E+00

     total cpu time spent up to now is        0.6 secs

     total energy              =     -31.89754816 Ry
     Harris-Foulkes estimate   =     -32.07197527 Ry
     estimated scf accuracy    <       1.37552646 Ry

     iteration # 13     ecut=    30.00 Ry     beta=0.70
     Davidson diagonalization with overlap
     ethr =  1.00E-02,  avg # of iterations =  1.0

     negative rho (up, down):  1.249E-01 0.000E+00

     total cpu time spent up to now is        0.7 secs

     total energy              =     -31.83752811 Ry
     Harris-Foulkes estimate   =     -31.94480322 Ry
     estimated scf accuracy    <       0.39685831 Ry

     iteration # 14     ecut=    30.00 Ry     beta=0.70
     Davidson diagonalization with overlap
     ethr =  4.96E-03,  avg # of iterations =  1.0

     negative rho (up, down):  7.461E-03 0.000E+00

     total cpu time spent up to now is        0.7 secs

     total energy              =     -31.81751531 Ry
     Harris-Foulkes estimate   =     -32.11237700 Ry
     estimated scf accuracy    <       1.49046418 Ry

     iteration # 15     ecut=    30.00 Ry     beta=0.70
     Davidson diagonalization with overlap
     ethr =  4.96E-03,  avg # of iterations =  1.0

     negative rho (up, down):  1.472E-06 0.000E+00

     total cpu time spent up to now is        0.7 secs

     total energy              =     -32.06893266 Ry
     Harris-Foulkes estimate   =     -32.02695340 Ry
     estimated scf accuracy    <       0.94380746 Ry

     iteration # 16     ecut=    30.00 Ry     beta=0.70
     Davidson diagonalization with overlap
     ethr =  4.96E-03,  avg # of iterations =  1.0

     negative rho (up, down):  9.829E-07 0.000E+00

     total cpu time spent up to now is        0.8 secs

     total energy              =     -31.98635156 Ry
     Harris-Foulkes estimate   =     -32.07198587 Ry
     estimated scf accuracy    <       1.05253506 Ry

     iteration # 17     ecut=    30.00 Ry     beta=0.70
     Davidson diagonalization with overlap
     ethr =  4.96E-03,  avg # of iterations =  1.0

     negative rho (up, down):  6.860E-07 0.000E+00

     total cpu time spent up to now is        0.8 secs

     total energy              =     -32.03884834 Ry
     Harris-Foulkes estimate   =     -31.98687933 Ry
     estimated scf accuracy    <       0.92620919 Ry

     iteration # 18     ecut=    30.00 Ry     beta=0.70
     Davidson diagonalization with overlap
     ethr =  4.96E-03,  avg # of iterations =  1.0

     negative rho (up, down):  1.776E-05 0.000E+00

     total cpu time spent up to now is        0.8 secs

     total energy              =     -32.27874140 Ry
     Harris-Foulkes estimate   =     -32.03900854 Ry
     estimated scf accuracy    <       0.99857907 Ry

     iteration # 19     ecut=    30.00 Ry     beta=0.70
     Davidson diagonalization with overlap
     ethr =  4.96E-03,  avg # of iterations =  1.0

     negative rho (up, down):  2.924E-05 0.000E+00

     total cpu time spent up to now is        0.9 secs

     total energy              =     -32.32457905 Ry
     Harris-Foulkes estimate   =     -32.28261611 Ry
     estimated scf accuracy    <       1.37924904 Ry

     iteration # 20     ecut=    30.00 Ry     beta=0.70
     Davidson diagonalization with overlap
     ethr =  4.96E-03,  avg # of iterations =  1.0

     negative rho (up, down):  1.341E-04 0.000E+00

     total cpu time spent up to now is        0.9 secs

     total energy              =     -31.70457643 Ry
     Harris-Foulkes estimate   =     -32.33296278 Ry
     estimated scf accuracy    <       1.44490056 Ry

     iteration # 21     ecut=    30.00 Ry     beta=0.70
     Davidson diagonalization with overlap
     ethr =  4.96E-03,  avg # of iterations =  2.0

     negative rho (up, down):  2.787E-06 0.000E+00

     total cpu time spent up to now is        0.9 secs

     total energy              =     -32.33808375 Ry
     Harris-Foulkes estimate   =     -32.24226698 Ry
     estimated scf accuracy    <       1.62690935 Ry

     iteration # 22     ecut=    30.00 Ry     beta=0.70
     Davidson diagonalization with overlap
     ethr =  4.96E-03,  avg # of iterations =  1.0

     negative rho (up, down):  3.243E-04 0.000E+00

     total cpu time spent up to now is        1.0 secs

     total energy              =     -32.42897737 Ry
     Harris-Foulkes estimate   =     -32.33955104 Ry
     estimated scf accuracy    <       1.79646457 Ry

     iteration # 23     ecut=    30.00 Ry     beta=0.70
     Davidson diagonalization with overlap
     ethr =  4.96E-03,  avg # of iterations =  1.0

     negative rho (up, down):  1.429E-04 0.000E+00

     total cpu time spent up to now is        1.0 secs

     total energy              =     -32.66862655 Ry
     Harris-Foulkes estimate   =     -32.42994629 Ry
     estimated scf accuracy    <       1.96716259 Ry

     iteration # 24     ecut=    30.00 Ry     beta=0.70
     Davidson diagonalization with overlap
     ethr =  4.96E-03,  avg # of iterations =  1.0

     negative rho (up, down):  7.124E-04 0.000E+00

     total cpu time spent up to now is        1.0 secs

     total energy              =     -32.57799939 Ry
     Harris-Foulkes estimate   =     -32.67320564 Ry
     estimated scf accuracy    <       2.43656913 Ry

     iteration # 25     ecut=    30.00 Ry     beta=0.70
     Davidson diagonalization with overlap
     ethr =  4.96E-03,  avg # of iterations =  1.0

     negative rho (up, down):  1.403E-03 0.000E+00

     total cpu time spent up to now is        1.1 secs

     total energy              =     -32.03364550 Ry
     Harris-Foulkes estimate   =     -32.57864336 Ry
     estimated scf accuracy    <       2.27120266 Ry

     iteration # 26     ecut=    30.00 Ry     beta=0.70
     Davidson diagonalization with overlap
     ethr =  4.96E-03,  avg # of iterations =  1.0

     negative rho (up, down):  3.158E-03 0.000E+00

     total cpu time spent up to now is        1.1 secs

     total energy              =     -31.81341103 Ry
     Harris-Foulkes estimate   =     -32.05428688 Ry
     estimated scf accuracy    <       1.33231136 Ry

     iteration # 27     ecut=    30.00 Ry     beta=0.70
     Davidson diagonalization with overlap
     ethr =  4.96E-03,  avg # of iterations =  1.0

     negative rho (up, down):  3.746E-02 0.000E+00

     total cpu time spent up to now is        1.1 secs

     total energy              =     -32.48533264 Ry
     Harris-Foulkes estimate   =     -32.03895331 Ry
     estimated scf accuracy    <       1.00117118 Ry

     iteration # 28     ecut=    30.00 Ry     beta=0.70
     Davidson diagonalization with overlap
     ethr =  4.96E-03,  avg # of iterations =  1.0

     negative rho (up, down):  9.859E-04 0.000E+00

     total cpu time spent up to now is        1.2 secs

     total energy              =     -31.49021437 Ry
     Harris-Foulkes estimate   =     -32.50572657 Ry
     estimated scf accuracy    <       1.71103638 Ry

     iteration # 29     ecut=    30.00 Ry     beta=0.70
     Davidson diagonalization with overlap
     ethr =  4.96E-03,  avg # of iterations =  2.0

     negative rho (up, down):  4.088E-04 0.000E+00

     total cpu time spent up to now is        1.2 secs

     total energy              =     -32.55408435 Ry
     Harris-Foulkes estimate   =     -32.62560457 Ry
     estimated scf accuracy    <       2.33808700 Ry

     iteration # 30     ecut=    30.00 Ry     beta=0.70
     Davidson diagonalization with overlap
     ethr =  4.96E-03,  avg # of iterations =  1.0

     negative rho (up, down):  1.095E-04 0.000E+00

     total cpu time spent up to now is        1.2 secs

     total energy              =     -32.44231881 Ry
     Harris-Foulkes estimate   =     -32.55552415 Ry
     estimated scf accuracy    <       2.22092991 Ry

     iteration # 31     ecut=    30.00 Ry     beta=0.70
     Davidson diagonalization with overlap
     ethr =  4.96E-03,  avg # of iterations =  1.0

     negative rho (up, down):  1.879E-04 0.000E+00

     total cpu time spent up to now is        1.3 secs

     total energy              =     -32.34940583 Ry
     Harris-Foulkes estimate   =     -32.44318711 Ry
     estimated scf accuracy    <       2.02437170 Ry

     iteration # 32     ecut=    30.00 Ry     beta=0.70
     Davidson diagonalization with overlap
     ethr =  4.96E-03,  avg # of iterations =  1.0

     negative rho (up, down):  7.331E-05 0.000E+00

     total cpu time spent up to now is        1.3 secs

     total energy              =     -32.26737782 Ry
     Harris-Foulkes estimate   =     -32.35010316 Ry
     estimated scf accuracy    <       1.85371248 Ry

     iteration # 33     ecut=    30.00 Ry     beta=0.70
     Davidson diagonalization with overlap
     ethr =  4.96E-03,  avg # of iterations =  1.0

     negative rho (up, down):  5.695E-05 0.000E+00

     total cpu time spent up to now is        1.3 secs

     total energy              =     -32.26280618 Ry
     Harris-Foulkes estimate   =     -32.26793180 Ry
     estimated scf accuracy    <       1.70589520 Ry

     iteration # 34     ecut=    30.00 Ry     beta=0.70
     Davidson diagonalization with overlap
     ethr =  4.96E-03,  avg # of iterations =  1.0

     negative rho (up, down):  6.114E-05 0.000E+00

     total cpu time spent up to now is        1.3 secs

     total energy              =     -32.26346344 Ry
     Harris-Foulkes estimate   =     -32.26284601 Ry
     estimated scf accuracy    <       1.69630964 Ry

     iteration # 35     ecut=    30.00 Ry     beta=0.70
     Davidson diagonalization with overlap
     ethr =  4.96E-03,  avg # of iterations =  1.0

     negative rho (up, down):  1.602E-03 0.000E+00

     total cpu time spent up to now is        1.4 secs

     total energy              =     -32.72313963 Ry
     Harris-Foulkes estimate   =     -32.26347017 Ry
     estimated scf accuracy    <       1.69431170 Ry

     iteration # 36     ecut=    30.00 Ry     beta=0.70
     Davidson diagonalization with overlap
     ethr =  4.96E-03,  avg # of iterations =  1.0

     negative rho (up, down):  2.896E-04 0.000E+00

     total cpu time spent up to now is        1.4 secs

     total energy              =     -31.46839340 Ry
     Harris-Foulkes estimate   =     -32.73643630 Ry
     estimated scf accuracy    <       2.55204736 Ry

     iteration # 37     ecut=    30.00 Ry     beta=0.70
     Davidson diagonalization with overlap
     ethr =  4.96E-03,  avg # of iterations =  2.0

     negative rho (up, down):  1.310E-06 0.000E+00

     total cpu time spent up to now is        1.4 secs

     total energy              =     -32.10216759 Ry
     Harris-Foulkes estimate   =     -32.34940716 Ry
     estimated scf accuracy    <       1.44034819 Ry

     iteration # 38     ecut=    30.00 Ry     beta=0.70
     Davidson diagonalization with overlap
     ethr =  4.96E-03,  avg # of iterations =  1.0

     negative rho (up, down):  3.345E-06 0.000E+00

     total cpu time spent up to now is        1.5 secs

     total energy              =     -31.99793593 Ry
     Harris-Foulkes estimate   =     -32.09713087 Ry
     estimated scf accuracy    <       1.07808034 Ry

     iteration # 39     ecut=    30.00 Ry     beta=0.70
     Davidson diagonalization with overlap
     ethr =  4.96E-03,  avg # of iterations =  1.0

     negative rho (up, down):  5.341E-08 0.000E+00

     total cpu time spent up to now is        1.5 secs

     total energy              =     -31.89954690 Ry
     Harris-Foulkes estimate   =     -31.99885770 Ry
     estimated scf accuracy    <       0.92102327 Ry

     iteration # 40     ecut=    30.00 Ry     beta=0.70
     Davidson diagonalization with overlap
     ethr =  4.96E-03,  avg # of iterations =  1.0

     negative rho (up, down):  3.924E-08 0.000E+00

     total cpu time spent up to now is        1.5 secs

     total energy              =     -31.92955934 Ry
     Harris-Foulkes estimate   =     -31.96912695 Ry
     estimated scf accuracy    <       1.37265006 Ry

     iteration # 41     ecut=    30.00 Ry     beta=0.70
     Davidson diagonalization with overlap
     ethr =  4.96E-03,  avg # of iterations =  1.0

     negative rho (up, down):  1.503E-08 0.000E+00

     total cpu time spent up to now is        1.6 secs

     total energy              =     -31.94724158 Ry
     Harris-Foulkes estimate   =     -31.94656194 Ry
     estimated scf accuracy    <       0.00225209 Ry

     iteration # 42     ecut=    30.00 Ry     beta=0.70
     Davidson diagonalization with overlap
     ethr =  2.82E-05,  avg # of iterations =  4.0

     negative rho (up, down):  1.516E-08 0.000E+00

     total cpu time spent up to now is        1.6 secs

     total energy              =     -31.95114537 Ry
     Harris-Foulkes estimate   =     -31.95156235 Ry
     estimated scf accuracy    <       0.38794256 Ry

     iteration # 43     ecut=    30.00 Ry     beta=0.70
     Davidson diagonalization with overlap
     ethr =  2.82E-05,  avg # of iterations =  1.0

     negative rho (up, down):  1.064E-08 0.000E+00

     total cpu time spent up to now is        1.7 secs

     total energy              =     -31.95584627 Ry
     Harris-Foulkes estimate   =     -31.95115430 Ry
     estimated scf accuracy    <       0.35821626 Ry

     iteration # 44     ecut=    30.00 Ry     beta=0.70
     Davidson diagonalization with overlap
     ethr =  2.82E-05,  avg # of iterations =  1.0

     total cpu time spent up to now is        1.7 secs

     total energy              =     -31.86260830 Ry
     Harris-Foulkes estimate   =     -31.95694112 Ry
     estimated scf accuracy    <       0.76635918 Ry

     iteration # 45     ecut=    30.00 Ry     beta=0.70
     Davidson diagonalization with overlap
     ethr =  2.82E-05,  avg # of iterations =  4.0

     total cpu time spent up to now is        1.7 secs

     total energy              =     -32.00475758 Ry
     Harris-Foulkes estimate   =     -32.01558384 Ry
     estimated scf accuracy    <       0.94592015 Ry

     iteration # 46     ecut=    30.00 Ry     beta=0.70
     Davidson diagonalization with overlap
     ethr =  2.82E-05,  avg # of iterations =  1.0

     negative rho (up, down):  2.638E-08 0.000E+00

     total cpu time spent up to now is        1.8 secs

     total energy              =     -31.97320111 Ry
     Harris-Foulkes estimate   =     -32.00476380 Ry
     estimated scf accuracy    <       0.93076876 Ry

     iteration # 47     ecut=    30.00 Ry     beta=0.70
     Davidson diagonalization with overlap
     ethr =  2.82E-05,  avg # of iterations =  1.0

     total cpu time spent up to now is        1.8 secs

     total energy              =     -32.00686197 Ry
     Harris-Foulkes estimate   =     -31.97338972 Ry
     estimated scf accuracy    <       0.84393445 Ry

     iteration # 48     ecut=    30.00 Ry     beta=0.70
     Davidson diagonalization with overlap
     ethr =  2.82E-05,  avg # of iterations =  2.0

     negative rho (up, down):  1.427E-08 0.000E+00

     total cpu time spent up to now is        1.8 secs

     total energy              =     -31.98961484 Ry
     Harris-Foulkes estimate   =     -32.00753913 Ry
     estimated scf accuracy    <       0.93237591 Ry

     iteration # 49     ecut=    30.00 Ry     beta=0.70
     Davidson diagonalization with overlap
     ethr =  2.82E-05,  avg # of iterations =  1.0

     total cpu time spent up to now is        1.9 secs

     total energy              =     -31.99967566 Ry
     Harris-Foulkes estimate   =     -31.98963606 Ry
     estimated scf accuracy    <       0.90481893 Ry

     iteration # 50     ecut=    30.00 Ry     beta=0.70
     Davidson diagonalization with overlap
     ethr =  2.82E-05,  avg # of iterations =  1.0

     total cpu time spent up to now is        1.9 secs

     total energy              =     -31.97302874 Ry
     Harris-Foulkes estimate   =     -31.99968997 Ry
     estimated scf accuracy    <       0.92150380 Ry

     iteration # 51     ecut=    30.00 Ry     beta=0.70
     Davidson diagonalization with overlap
     ethr =  2.82E-05,  avg # of iterations =  1.0

     total cpu time spent up to now is        1.9 secs

     total energy              =     -31.98515506 Ry
     Harris-Foulkes estimate   =     -31.97319365 Ry
     estimated scf accuracy    <       0.84209487 Ry

     iteration # 52     ecut=    30.00 Ry     beta=0.70
     Davidson diagonalization with overlap
     ethr =  2.82E-05,  avg # of iterations =  1.0

     negative rho (up, down):  1.260E-07 0.000E+00

     total cpu time spent up to now is        2.0 secs

     total energy              =     -32.18379111 Ry
     Harris-Foulkes estimate   =     -31.98532393 Ry
     estimated scf accuracy    <       0.89480722 Ry

     iteration # 53     ecut=    30.00 Ry     beta=0.70
     Davidson diagonalization with overlap
     ethr =  2.82E-05,  avg # of iterations =  5.0

     negative rho (up, down):  2.771E-06 0.000E+00

     total cpu time spent up to now is        2.0 secs

     total energy              =     -31.49246371 Ry
     Harris-Foulkes estimate   =     -32.18637116 Ry
     estimated scf accuracy    <       1.20363696 Ry

     iteration # 54     ecut=    30.00 Ry     beta=0.70
     Davidson diagonalization with overlap
     ethr =  2.82E-05,  avg # of iterations = 13.0

     negative rho (up, down):  2.112E-06 0.000E+00

     total cpu time spent up to now is        2.1 secs

     total energy              =     -32.62417076 Ry
     Harris-Foulkes estimate   =     -32.72770046 Ry
     estimated scf accuracy    <       2.52988750 Ry

     iteration # 55     ecut=    30.00 Ry     beta=0.70
     Davidson diagonalization with overlap
     ethr =  2.82E-05,  avg # of iterations =  3.0

     negative rho (up, down):  2.110E-07 0.000E+00

     total cpu time spent up to now is        2.1 secs

     total energy              =     -32.28678048 Ry
     Harris-Foulkes estimate   =     -32.62455087 Ry
     estimated scf accuracy    <       2.33615463 Ry

     iteration # 56     ecut=    30.00 Ry     beta=0.70
     Davidson diagonalization with overlap
     ethr =  2.82E-05,  avg # of iterations = 11.0

     total cpu time spent up to now is        2.2 secs

     total energy              =     -32.02331374 Ry
     Harris-Foulkes estimate   =     -32.29280642 Ry
     estimated scf accuracy    <       1.73696692 Ry

     iteration # 57     ecut=    30.00 Ry     beta=0.70
     Davidson diagonalization with overlap
     ethr =  2.82E-05,  avg # of iterations =  7.0

     total cpu time spent up to now is        2.2 secs

     total energy              =     -31.96006917 Ry
     Harris-Foulkes estimate   =     -32.02877781 Ry
     estimated scf accuracy    <       1.27985973 Ry

     iteration # 58     ecut=    30.00 Ry     beta=0.70
     Davidson diagonalization with overlap
     ethr =  2.82E-05,  avg # of iterations =  3.0

     total cpu time spent up to now is        2.2 secs

     total energy              =     -31.97735301 Ry
     Harris-Foulkes estimate   =     -31.95723768 Ry
     estimated scf accuracy    <       0.78880993 Ry

     iteration # 59     ecut=    30.00 Ry     beta=0.70
     Davidson diagonalization with overlap
     ethr =  2.82E-05,  avg # of iterations =  1.0

     total cpu time spent up to now is        2.3 secs

     total energy              =     -31.97091834 Ry
     Harris-Foulkes estimate   =     -31.98282294 Ry
     estimated scf accuracy    <       1.57584711 Ry

     iteration # 60     ecut=    30.00 Ry     beta=0.70
     Davidson diagonalization with overlap
     ethr =  2.82E-05,  avg # of iterations =  1.0

     total cpu time spent up to now is        2.3 secs

     total energy              =     -31.96218699 Ry
     Harris-Foulkes estimate   =     -31.97104090 Ry
     estimated scf accuracy    <       1.43872368 Ry

     iteration # 61     ecut=    30.00 Ry     beta=0.70
     Davidson diagonalization with overlap
     ethr =  2.82E-05,  avg # of iterations =  1.0

     total cpu time spent up to now is        2.4 secs

     total energy              =     -31.93834360 Ry
     Harris-Foulkes estimate   =     -31.96266834 Ry
     estimated scf accuracy    <       1.10442095 Ry

     iteration # 62     ecut=    30.00 Ry     beta=0.70
     Davidson diagonalization with overlap
     ethr =  2.82E-05,  avg # of iterations =  1.0

     total cpu time spent up to now is        2.4 secs

     total energy              =     -31.94151577 Ry
     Harris-Foulkes estimate   =     -31.94713166 Ry
     estimated scf accuracy    <       0.05318719 Ry

     iteration # 63     ecut=    30.00 Ry     beta=0.70
     Davidson diagonalization with overlap
     ethr =  2.82E-05,  avg # of iterations =  1.0

     total cpu time spent up to now is        2.4 secs

     total energy              =     -31.93761269 Ry
     Harris-Foulkes estimate   =     -31.95267050 Ry
     estimated scf accuracy    <       0.36106773 Ry

     iteration # 64     ecut=    30.00 Ry     beta=0.70
     Davidson diagonalization with overlap
     ethr =  2.82E-05,  avg # of iterations =  1.0

     total cpu time spent up to now is        2.5 secs

     total energy              =     -31.95024419 Ry
     Harris-Foulkes estimate   =     -31.94721486 Ry
     estimated scf accuracy    <       0.05694132 Ry

     iteration # 65     ecut=    30.00 Ry     beta=0.70
     Davidson diagonalization with overlap
     ethr =  2.82E-05,  avg # of iterations =  1.0

     total cpu time spent up to now is        2.5 secs

     total energy              =     -31.93311647 Ry
     Harris-Foulkes estimate   =     -31.95319236 Ry
     estimated scf accuracy    <       0.51156862 Ry

     iteration # 66     ecut=    30.00 Ry     beta=0.70
     Davidson diagonalization with overlap
     ethr =  2.82E-05,  avg # of iterations =  1.0

     total cpu time spent up to now is        2.5 secs

     total energy              =     -31.94483689 Ry
     Harris-Foulkes estimate   =     -31.94843334 Ry
     estimated scf accuracy    <       0.12178113 Ry

     iteration # 67     ecut=    30.00 Ry     beta=0.70
     Davidson diagonalization with overlap
     ethr =  2.82E-05,  avg # of iterations =  1.0

     total cpu time spent up to now is        2.6 secs

     total energy              =     -31.94621796 Ry
     Harris-Foulkes estimate   =     -31.94644601 Ry
     estimated scf accuracy    <       0.00038186 Ry

     iteration # 68     ecut=    30.00 Ry     beta=0.70
     Davidson diagonalization with overlap
     ethr =  4.77E-06,  avg # of iterations =  2.0

     total cpu time spent up to now is        2.6 secs

     total energy              =     -31.94548720 Ry
     Harris-Foulkes estimate   =     -31.95567227 Ry
     estimated scf accuracy    <       0.68377579 Ry

     iteration # 69     ecut=    30.00 Ry     beta=0.70
     Davidson diagonalization with overlap
     ethr =  4.77E-06,  avg # of iterations =  2.0

     total cpu time spent up to now is        2.6 secs

     total energy              =     -31.94386331 Ry
     Harris-Foulkes estimate   =     -31.94819837 Ry
     estimated scf accuracy    <       0.13630253 Ry

     iteration # 70     ecut=    30.00 Ry     beta=0.70
     Davidson diagonalization with overlap
     ethr =  4.77E-06,  avg # of iterations =  2.0

     total cpu time spent up to now is        2.7 secs

     total energy              =     -31.94650467 Ry
     Harris-Foulkes estimate   =     -31.94653467 Ry
     estimated scf accuracy    <       0.00698483 Ry

     iteration # 71     ecut=    30.00 Ry     beta=0.70
     Davidson diagonalization with overlap
     ethr =  4.77E-06,  avg # of iterations =  1.0

     total cpu time spent up to now is        2.7 secs

     total energy              =     -31.94649198 Ry
     Harris-Foulkes estimate   =     -31.94650747 Ry
     estimated scf accuracy    <       0.00497816 Ry

     iteration # 72     ecut=    30.00 Ry     beta=0.70
     Davidson diagonalization with overlap
     ethr =  4.77E-06,  avg # of iterations =  1.0

     total cpu time spent up to now is        2.7 secs

     total energy              =     -31.94640994 Ry
     Harris-Foulkes estimate   =     -31.94649294 Ry
     estimated scf accuracy    <       0.00389705 Ry

     iteration # 73     ecut=    30.00 Ry     beta=0.70
     Davidson diagonalization with overlap
     ethr =  4.77E-06,  avg # of iterations =  1.0

     total cpu time spent up to now is        2.8 secs

     total energy              =     -31.94644436 Ry
     Harris-Foulkes estimate   =     -31.94644489 Ry
     estimated scf accuracy    <       0.00013307 Ry

     iteration # 74     ecut=    30.00 Ry     beta=0.70
     Davidson diagonalization with overlap
     ethr =  1.66E-06,  avg # of iterations =  1.0

     total cpu time spent up to now is        2.8 secs

     total energy              =     -31.94644355 Ry
     Harris-Foulkes estimate   =     -31.94644439 Ry
     estimated scf accuracy    <       0.00014899 Ry

     iteration # 75     ecut=    30.00 Ry     beta=0.70
     Davidson diagonalization with overlap
     ethr =  1.66E-06,  avg # of iterations =  1.0

     total cpu time spent up to now is        2.8 secs

     total energy              =     -31.94644261 Ry
     Harris-Foulkes estimate   =     -31.94644361 Ry
     estimated scf accuracy    <       0.00010730 Ry

     iteration # 76     ecut=    30.00 Ry     beta=0.70
     Davidson diagonalization with overlap
     ethr =  1.34E-06,  avg # of iterations =  1.0

     total cpu time spent up to now is        2.9 secs

     total energy              =     -31.94644191 Ry
     Harris-Foulkes estimate   =     -31.94644382 Ry
     estimated scf accuracy    <       0.00000319 Ry

     iteration # 77     ecut=    30.00 Ry     beta=0.70
     Davidson diagonalization with overlap
     ethr =  3.99E-08,  avg # of iterations =  1.0

     total cpu time spent up to now is        2.9 secs

     total energy              =     -31.94644239 Ry
     Harris-Foulkes estimate   =     -31.94644203 Ry
     estimated scf accuracy    <       0.00000215 Ry

     iteration # 78     ecut=    30.00 Ry     beta=0.70
     Davidson diagonalization with overlap
     ethr =  2.69E-08,  avg # of iterations =  1.0

     total cpu time spent up to now is        2.9 secs

     total energy              =     -31.94644126 Ry
     Harris-Foulkes estimate   =     -31.94644243 Ry
     estimated scf accuracy    <       0.00000638 Ry

     iteration # 79     ecut=    30.00 Ry     beta=0.70
     Davidson diagonalization with overlap
     ethr =  2.69E-08,  avg # of iterations =  1.0

     total cpu time spent up to now is        3.0 secs

     total energy              =     -31.94643919 Ry
     Harris-Foulkes estimate   =     -31.94644136 Ry
     estimated scf accuracy    <       0.00000101 Ry

     iteration # 80     ecut=    30.00 Ry     beta=0.70
     Davidson diagonalization with overlap
     ethr =  1.26E-08,  avg # of iterations =  2.0

     total cpu time spent up to now is        3.0 secs

     total energy              =     -31.94643983 Ry
     Harris-Foulkes estimate   =     -31.94643939 Ry
     estimated scf accuracy    <       0.00000015 Ry

     iteration # 81     ecut=    30.00 Ry     beta=0.70
     Davidson diagonalization with overlap
     ethr =  1.81E-09,  avg # of iterations =  2.0

     total cpu time spent up to now is        3.0 secs

     End of self-consistent calculation

          k = 0.0000 0.0000 0.0000 ( 22119 PWs)   bands (ev):

   -24.7782 -10.6283  -7.0411  -7.0384  -6.8963  -0.6934   0.3382   0.8199

     the Fermi energy is    -6.8680 ev

!    total energy              =     -31.94643995 Ry
     Harris-Foulkes estimate   =     -31.94643984 Ry
     estimated scf accuracy    <          5.7E-09 Ry

     convergence has been achieved in  81 iterations

     Forces acting on atoms (Ry/au):

     atom    1 type  1   force =     0.00031338    0.00016063    0.00087162
     atom    2 type  1   force =    -0.01173072    0.01029829    0.00575443
     atom    3 type  2   force =     0.01141733   -0.01045892   -0.00662605

     Total force =     0.023692     Total SCF correction =     0.000073

     Molecular Dynamics Calculation

     Starting temperature  =  1000.00 K

     temperature is controlled by Andersen thermostat
     Collision frequency = 1.0000/timestep
     mass H                =     1.01
     mass O                =    16.00
     Time step             =   100.00 a.u.,  4.8378 femto-seconds

     Entering Dynamics:    iteration =     1
                           time      =   0.0048 pico-seconds


     Andersen thermostat:    3 collisions

ATOMIC_POSITIONS (bohr)
H        3.188399429  12.050673670  16.947070050
H       19.905088695  11.139149824   8.511160572
O        1.404514090   9.669671724   7.677578671


     kinetic energy (Ekin) =     0.00503653 Ry
     temperature           =   265.06801485 K 
     Ekin + Etot (const)   =   -31.94140343 Ry

     Linear momentum :   -0.0000000000   -0.0000000000   -0.0000000000

     Writing output data file pwscf.save
     Check: negative starting charge=   -0.345229
     NEW-OLD atomic charge density approx. for the potential
     Check: negative starting charge=   -0.344870

     negative rho (up, down):  5.127E-02 0.000E+00

     total cpu time spent up to now is        3.3 secs

     per-process dynamical memory:    20.4 Mb

     Self-consistent Calculation

     iteration #  1     ecut=    30.00 Ry     beta=0.70
     Davidson diagonalization with overlap
     c_bands:  1 eigenvalues not converged
     ethr =  1.00E-06,  avg # of iterations = 20.0

     negative rho (up, down):  1.208E-02 0.000E+00

     total cpu time spent up to now is        3.4 secs

     total energy              =     -31.20336849 Ry
     Harris-Foulkes estimate   =     -31.89157430 Ry
     estimated scf accuracy    <       0.89934731 Ry

     iteration #  2     ecut=    30.00 Ry     beta=0.70
     Davidson diagonalization with overlap
     ethr =  1.00E-02,  avg # of iterations =  3.0

     negative rho (up, down):  9.174E-03 0.000E+00

     total cpu time spent up to now is        3.4 secs

     total energy              =     -32.16754889 Ry
     Harris-Foulkes estimate   =     -33.55055495 Ry
     estimated scf accuracy    <       3.85810268 Ry

     iteration #  3     ecut=    30.00 Ry     beta=0.70
     Davidson diagonalization with overlap
     ethr =  1.00E-02,  avg # of iterations =  2.0

     negative rho (up, down):  7.988E-03 0.000E+00

     total cpu time spent up to now is        3.5 secs

     total energy              =     -32.10889375 Ry
     Harris-Foulkes estimate   =     -32.30988779 Ry
     estimated scf accuracy    <       1.41492071 Ry

     iteration #  4     ecut=    30.00 Ry     beta=0.70
     Davidson diagonalization with overlap
     ethr =  1.00E-02,  avg # of iterations =  1.0

     negative rho (up, down):  6.387E-03 0.000E+00

     total cpu time spent up to now is        3.5 secs

     total energy              =     -31.85381726 Ry
     Harris-Foulkes estimate   =     -32.10183776 Ry
     estimated scf accuracy    <       1.14913839 Ry

     iteration #  5     ecut=    30.00 Ry     beta=0.70
     Davidson diagonalization with overlap
     ethr =  1.00E-02,  avg # of iterations =  1.0

     negative rho (up, down):  5.257E-04 0.000E+00

     total cpu time spent up to now is        3.5 secs

     total energy              =     -31.84150634 Ry
     Harris-Foulkes estimate   =     -31.95812420 Ry
     estimated scf accuracy    <       1.50538782 Ry

     iteration #  6     ecut=    30.00 Ry     beta=0.70
     Davidson diagonalization with overlap
     ethr =  1.00E-02,  avg # of iterations =  1.0

     negative rho (up, down):  4.798E-05 0.000E+00

     total cpu time spent up to now is        3.6 secs

     total energy              =     -31.94340251 Ry
     Harris-Foulkes estimate   =     -31.95659662 Ry
     estimated scf accuracy    <       0.88441044 Ry

     iteration #  7     ecut=    30.00 Ry     beta=0.70
     Davidson diagonalization with overlap
     ethr =  1.00E-02,  avg # of iterations =  1.0

     negative rho (up, down):  1.113E-06 0.000E+00

     total cpu time spent up to now is        3.6 secs

     total energy              =     -31.87572675 Ry
     Harris-Foulkes estimate   =     -31.94371864 Ry
     estimated scf accuracy    <       0.78058223 Ry

     iteration #  8     ecut=    30.00 Ry     beta=0.70
     Davidson diagonalization with overlap
     ethr =  9.76E-03,  avg # of iterations =  1.0

     negative rho (up, down):  1.460E-06 0.000E+00

     total cpu time spent up to now is        3.6 secs

     total energy              =     -31.92377532 Ry
     Harris-Foulkes estimate   =     -31.95440145 Ry
     estimated scf accuracy    <       1.54747566 Ry

     iteration #  9     ecut=    30.00 Ry     beta=0.70
     Davidson diagonalization with overlap
     ethr =  9.76E-03,  avg # of iterations =  1.0

     negative rho (up, down):  2.849E-06 0.000E+00

     total cpu time spent up to now is        3.7 secs

     total energy              =     -31.92104919 Ry
     Harris-Foulkes estimate   =     -31.92914035 Ry
     estimated scf accuracy    <       0.43702180 Ry

     iteration # 10     ecut=    30.00 Ry     beta=0.70
     Davidson diagonalization with overlap
     ethr =  5.46E-03,  avg # of iterations =  1.0

     negative rho (up, down):  1.554E-06 0.000E+00

     total cpu time spent up to now is        3.7 secs

     total energy              =     -31.92784729 Ry
     Harris-Foulkes estimate   =     -31.92392240 Ry
     estimated scf accuracy    <       0.03382694 Ry

     iteration # 11     ecut=    30.00 Ry     beta=0.70
     Davidson diagonalization with overlap
     ethr =  4.23E-04,  avg # of iterations =  1.0

     negative rho (up, down):  8.662E-08 0.000E+00

     total cpu time spent up to now is        3.7 secs

     total energy              =     -31.91939315 Ry
     Harris-Foulkes estimate   =     -31.93581833 Ry
     estimated scf accuracy    <       0.88605579 Ry

     iteration # 12     ecut=    30.00 Ry     beta=0.70
     Davidson diagonalization with overlap
     ethr =  4.23E-04,  avg # of iterations =  1.0

     total cpu time spent up to now is        3.8 secs

     total energy              =     -31.92323885 Ry
     Harris-Foulkes estimate   =     -31.92466257 Ry
     estimated scf accuracy    <       0.09214232 Ry

     iteration # 13     ecut=    30.00 Ry     beta=0.70
     Davidson diagonalization with overlap
     ethr =  4.23E-04,  avg # of iterations =  1.0

     negative rho (up, down):  1.229E-08 0.000E+00

     total cpu time spent up to now is        3.8 secs

     total energy              =     -31.92332104 Ry
     Harris-Foulkes estimate   =     -31.92366840 Ry
     estimated scf accuracy    <       0.01428365 Ry

     iteration # 14     ecut=    30.00 Ry     beta=0.70
     Davidson diagonalization with overlap
     ethr =  1.79E-04,  avg # of iterations =  1.0

     total cpu time spent up to now is        3.8 secs

     total energy              =     -31.92347749 Ry
     Harris-Foulkes estimate   =     -31.92348196 Ry
     estimated scf accuracy    <       0.00007146 Ry

     iteration # 15     ecut=    30.00 Ry     beta=0.70
     Davidson diagonalization with overlap
     ethr =  8.93E-07,  avg # of iterations =  9.0

     total cpu time spent up to now is        3.9 secs

     total energy              =     -31.92348360 Ry
     Harris-Foulkes estimate   =     -31.92348371 Ry
     estimated scf accuracy    <       0.00017388 Ry

     iteration # 16     ecut=    30.00 Ry     beta=0.70
     Davidson diagonalization with overlap
     ethr =  8.93E-07,  avg # of iterations =  1.0

     negative rho (up, down):  1.080E-08 0.000E+00

     total cpu time spent up to now is        3.9 secs

     total energy              =     -31.92348788 Ry
     Harris-Foulkes estimate   =     -31.92348364 Ry
     estimated scf accuracy    <       0.00016903 Ry

     iteration # 17     ecut=    30.00 Ry     beta=0.70
     Davidson diagonalization with overlap
     ethr =  8.93E-07,  avg # of iterations =  1.0

     negative rho (up, down):  1.174E-07 0.000E+00

     total cpu time spent up to now is        3.9 secs

     total energy              =     -31.92346116 Ry
     Harris-Foulkes estimate   =     -31.92349125 Ry
     estimated scf accuracy    <       0.00082231 Ry

     iteration # 18     ecut=    30.00 Ry     beta=0.70
     Davidson diagonalization with overlap
     ethr =  8.93E-07,  avg # of iterations =  1.0

     negative rho (up, down):  5.956E-08 0.000E+00

     total cpu time spent up to now is        4.0 secs

     total energy              =     -31.92347732 Ry
     Harris-Foulkes estimate   =     -31.92348044 Ry
     estimated scf accuracy    <       0.00009175 Ry

     iteration # 19     ecut=    30.00 Ry     beta=0.70
     Davidson diagonalization with overlap
     ethr =  8.93E-07,  avg # of iterations =  1.0

     total cpu time spent up to now is        4.0 secs

     total energy              =     -31.92347828 Ry
     Harris-Foulkes estimate   =     -31.92347850 Ry
     estimated scf accuracy    <       0.00000054 Ry

     iteration # 20     ecut=    30.00 Ry     beta=0.70
     Davidson diagonalization with overlap
     ethr =  6.78E-09,  avg # of iterations =  1.0

     total cpu time spent up to now is        4.0 secs

     total energy              =     -31.92347829 Ry
     Harris-Foulkes estimate   =     -31.92347831 Ry
     estimated scf accuracy    <       0.00000210 Ry

     iteration # 21     ecut=    30.00 Ry     beta=0.70
     Davidson diagonalization with overlap
     ethr =  6.78E-09,  avg # of iterations =  1.0

     total cpu time spent up to now is        4.1 secs

     total energy              =     -31.92347839 Ry
     Harris-Foulkes estimate   =     -31.92347831 Ry
     estimated scf accuracy    <       0.00000044 Ry

     iteration # 22     ecut=    30.00 Ry     beta=0.70
     Davidson diagonalization with overlap
     ethr =  5.45E-09,  avg # of iterations =  1.0

     total cpu time spent up to now is        4.1 secs

     total energy              =     -31.92347823 Ry
     Harris-Foulkes estimate   =     -31.92347839 Ry
     estimated scf accuracy    <       0.00000007 Ry

     iteration # 23     ecut=    30.00 Ry     beta=0.70
     Davidson diagonalization with overlap
     ethr =  8.92E-10,  avg # of iterations =  2.0

     total cpu time spent up to now is        4.1 secs

     End of self-consistent calculation

          k = 0.0000 0.0000 0.0000 ( 22119 PWs)   bands (ev):

   -24.2429 -10.1973  -6.9854  -6.9832  -6.8439  -1.1756   0.1680   0.8105

     the Fermi energy is    -6.8136 ev

!    total energy              =     -31.92347827 Ry
     Harris-Foulkes estimate   =     -31.92347823 Ry
     estimated scf accuracy    <          9.5E-10 Ry

     convergence has been achieved in  23 iterations

     Forces acting on atoms (Ry/au):

     atom    1 type  1   force =     0.00015403    0.00018565    0.00074242
     atom    2 type  1   force =     0.10531454   -0.10296759   -0.05848877
     atom    3 type  2   force =    -0.10546856    0.10278195    0.05774635

     Total force =     0.223914     Total SCF correction =     0.000110

     Entering Dynamics:    iteration =     2
                           time      =   0.0097 pico-seconds


     Andersen thermostat:    3 collisions

ATOMIC_POSITIONS (bohr)
H        3.071076850  12.182894053  16.714485812
H       20.775454369  10.044164762   7.900378779
O        1.356978245   9.730446245   7.730816151


     kinetic energy (Ekin) =     0.02759575 Ry
     temperature           =  1452.33965547 K 
     Ekin + Etot (const)   =   -31.89588252 Ry
     Message from routine dynamics:
     Total linear momentum <> 0

     Linear momentum :    0.0119445593    0.2713293556    0.0568888218

     Writing output data file pwscf.save

     first order wave-functions extrapolation
     Check: negative starting charge=   -0.344870
     first order charge density extrapolation
     Check: negative starting charge=   -0.347172

     negative rho (up, down):  3.345E-01 0.000E+00

     total cpu time spent up to now is        4.5 secs

     per-process dynamical memory:    20.4 Mb

     Self-consistent Calculation

     iteration #  1     ecut=    30.00 Ry     beta=0.70
     Davidson diagonalization with overlap
     c_bands:  1 eigenvalues not converged
     ethr =  1.00E-06,  avg # of iterations = 20.0

     negative rho (up, down):  9.196E-02 0.000E+00

     total cpu time spent up to now is        4.6 secs

     total energy              =     -25.18032281 Ry
     Harris-Foulkes estimate   =     -27.31803248 Ry
     estimated scf accuracy    <       2.48841462 Ry

     iteration #  2     ecut=    30.00 Ry     beta=0.70
     Davidson diagonalization with overlap
     ethr =  1.00E-02,  avg # of iterations =  4.0

     negative rho (up, down):  2.330E-02 0.000E+00

     total cpu time spent up to now is        4.6 secs

     total energy              =     -23.48057821 Ry
     Harris-Foulkes estimate   =     -29.18471733 Ry
     estimated scf accuracy    <      18.60482135 Ry

     iteration #  3     ecut=    30.00 Ry     beta=0.70
     Davidson diagonalization with overlap
     ethr =  1.00E-02,  avg # of iterations =  5.0

     negative rho (up, down):  2.105E-02 0.000E+00

     total cpu time spent up to now is        4.7 secs

     total energy              =     -26.14540626 Ry
     Harris-Foulkes estimate   =     -26.38976982 Ry
     estimated scf accuracy    <       1.55774752 Ry

     iteration #  4     ecut=    30.00 Ry     beta=0.70
     Davidson diagonalization with overlap
     ethr =  1.00E-02,  avg # of iterations =  1.0

     negative rho (up, down):  3.019E-01 0.000E+00

     total cpu time spent up to now is        4.7 secs

     total energy              =     -25.61709936 Ry
     Harris-Foulkes estimate   =     -26.15776328 Ry
     estimated scf accuracy    <       1.08811389 Ry

     iteration #  5     ecut=    30.00 Ry     beta=0.70
     Davidson diagonalization with overlap
     ethr =  1.00E-02,  avg # of iterations =  5.0

     negative rho (up, down):  1.192E-02 0.000E+00

     total cpu time spent up to now is        4.7 secs

     total energy              =     -27.00807467 Ry
     Harris-Foulkes estimate   =     -27.48981820 Ry
     estimated scf accuracy    <       2.37978209 Ry

     iteration #  6     ecut=    30.00 Ry     beta=0.70
     Davidson diagonalization with overlap
     ethr =  1.00E-02,  avg # of iterations =  1.0

     negative rho (up, down):  2.007E-01 0.000E+00

     total cpu time spent up to now is        4.8 secs

     total energy              =     -27.47883397 Ry
     Harris-Foulkes estimate   =     -27.01174362 Ry
     estimated scf accuracy    <       1.63577433 Ry

     iteration #  7     ecut=    30.00 Ry     beta=0.70
     Davidson diagonalization with overlap
     ethr =  1.00E-02,  avg # of iterations =  1.0

     negative rho (up, down):  2.717E-01 0.000E+00

     total cpu time spent up to now is        4.8 secs

     total energy              =     -27.90692612 Ry
     Harris-Foulkes estimate   =     -27.48169673 Ry
     estimated scf accuracy    <       2.32499008 Ry

     iteration #  8     ecut=    30.00 Ry     beta=0.70
     Davidson diagonalization with overlap
     ethr =  1.00E-02,  avg # of iterations =  1.0

     negative rho (up, down):  3.020E-01 0.000E+00

     total cpu time spent up to now is        4.8 secs

     total energy              =     -28.38502147 Ry
     Harris-Foulkes estimate   =     -27.90943483 Ry
     estimated scf accuracy    <       2.94388042 Ry

     iteration #  9     ecut=    30.00 Ry     beta=0.70
     Davidson diagonalization with overlap
     ethr =  1.00E-02,  avg # of iterations =  1.0

     negative rho (up, down):  8.891E-02 0.000E+00

     total cpu time spent up to now is        4.9 secs

     total energy              =     -25.66555057 Ry
     Harris-Foulkes estimate   =     -28.38713654 Ry
     estimated scf accuracy    <       3.60716982 Ry

     iteration # 10     ecut=    30.00 Ry     beta=0.70
     Davidson diagonalization with overlap
     ethr =  1.00E-02,  avg # of iterations =  4.0

     negative rho (up, down):  1.469E-01 0.000E+00

     total cpu time spent up to now is        4.9 secs

     total energy              =     -28.74679568 Ry
     Harris-Foulkes estimate   =     -28.38590531 Ry
     estimated scf accuracy    <      11.90848960 Ry

     iteration # 11     ecut=    30.00 Ry     beta=0.70
     Davidson diagonalization with overlap
     ethr =  1.00E-02,  avg # of iterations =  1.0

     negative rho (up, down):  1.608E-04 0.000E+00

     total cpu time spent up to now is        4.9 secs

     total energy              =     -27.29250016 Ry
     Harris-Foulkes estimate   =     -28.75837509 Ry
     estimated scf accuracy    <      12.46307859 Ry

     iteration # 12     ecut=    30.00 Ry     beta=0.70
     Davidson diagonalization with overlap
     ethr =  1.00E-02,  avg # of iterations =  2.0

     negative rho (up, down):  1.828E-02 0.000E+00

     total cpu time spent up to now is        5.0 secs

     total energy              =     -26.52052633 Ry
     Harris-Foulkes estimate   =     -27.56517409 Ry
     estimated scf accuracy    <       3.52023240 Ry

     iteration # 13     ecut=    30.00 Ry     beta=0.70
     Davidson diagonalization with overlap
     ethr =  1.00E-02,  avg # of iterations =  2.0

     negative rho (up, down):  6.040E-04 0.000E+00

     total cpu time spent up to now is        5.0 secs

     total energy              =     -27.54826369 Ry
     Harris-Foulkes estimate   =     -26.59975257 Ry
     estimated scf accuracy    <       1.76619305 Ry

     iteration # 14     ecut=    30.00 Ry     beta=0.70
     Davidson diagonalization with overlap
     ethr =  1.00E-02,  avg # of iterations =  1.0

     negative rho (up, down):  8.141E-03 0.000E+00

     total cpu time spent up to now is        5.0 secs

     total energy              =     -26.68820381 Ry
     Harris-Foulkes estimate   =     -27.61483631 Ry
     estimated scf accuracy    <       3.44843166 Ry

     iteration # 15     ecut=    30.00 Ry     beta=0.70
     Davidson diagonalization with overlap
     ethr =  1.00E-02,  avg # of iterations =  1.0

     negative rho (up, down):  2.985E-02 0.000E+00

     total cpu time spent up to now is        5.1 secs

     total energy              =     -26.74237817 Ry
     Harris-Foulkes estimate   =     -26.73098372 Ry
     estimated scf accuracy    <       2.01720695 Ry

     iteration # 16     ecut=    30.00 Ry     beta=0.70
     Davidson diagonalization with overlap
     ethr =  1.00E-02,  avg # of iterations =  1.0

     negative rho (up, down):  4.676E-02 0.000E+00

     total cpu time spent up to now is        5.1 secs

     total energy              =     -26.52626194 Ry
     Harris-Foulkes estimate   =     -26.74436250 Ry
     estimated scf accuracy    <       2.02719467 Ry

     iteration # 17     ecut=    30.00 Ry     beta=0.70
     Davidson diagonalization with overlap
     ethr =  1.00E-02,  avg # of iterations =  1.0

     negative rho (up, down):  7.878E-02 0.000E+00

     total cpu time spent up to now is        5.1 secs

     total energy              =     -26.28953576 Ry
     Harris-Foulkes estimate   =     -26.53088422 Ry
     estimated scf accuracy    <       1.87393106 Ry

     iteration # 18     ecut=    30.00 Ry     beta=0.70
     Davidson diagonalization with overlap
     ethr =  1.00E-02,  avg # of iterations =  1.0

     negative rho (up, down):  7.568E-02 0.000E+00

     total cpu time spent up to now is        5.2 secs

     total energy              =     -26.09839751 Ry
     Harris-Foulkes estimate   =     -26.56066293 Ry
     estimated scf accuracy    <       0.95648829 Ry

     iteration # 19     ecut=    30.00 Ry     beta=0.70
     Davidson diagonalization with overlap
     ethr =  1.00E-02,  avg # of iterations =  2.0

     negative rho (up, down):  5.313E-03 0.000E+00

     total cpu time spent up to now is        5.2 secs

     total energy              =     -26.97205633 Ry
     Harris-Foulkes estimate   =     -27.03624900 Ry
     estimated scf accuracy    <       2.47660685 Ry

     iteration # 20     ecut=    30.00 Ry     beta=0.70
     Davidson diagonalization with overlap
     ethr =  1.00E-02,  avg # of iterations =  1.0

     negative rho (up, down):  2.032E-03 0.000E+00

     total cpu time spent up to now is        5.2 secs

     total energy              =     -26.84468482 Ry
     Harris-Foulkes estimate   =     -26.97412504 Ry
     estimated scf accuracy    <       2.35455632 Ry

     iteration # 21     ecut=    30.00 Ry     beta=0.70
     Davidson diagonalization with overlap
     ethr =  1.00E-02,  avg # of iterations =  1.0

     negative rho (up, down):  3.203E-03 0.000E+00

     total cpu time spent up to now is        5.3 secs

     total energy              =     -26.90898207 Ry
     Harris-Foulkes estimate   =     -26.84806770 Ry
     estimated scf accuracy    <       2.10349036 Ry

     iteration # 22     ecut=    30.00 Ry     beta=0.70
     Davidson diagonalization with overlap
     ethr =  1.00E-02,  avg # of iterations =  1.0

     negative rho (up, down):  5.724E-03 0.000E+00

     total cpu time spent up to now is        5.3 secs

     total energy              =     -26.94657135 Ry
     Harris-Foulkes estimate   =     -26.90943913 Ry
     estimated scf accuracy    <       2.18109268 Ry

     iteration # 23     ecut=    30.00 Ry     beta=0.70
     Davidson diagonalization with overlap
     ethr =  1.00E-02,  avg # of iterations =  1.0

     negative rho (up, down):  2.763E-02 0.000E+00

     total cpu time spent up to now is        5.3 secs

     total energy              =     -26.97375486 Ry
     Harris-Foulkes estimate   =     -26.94696706 Ry
     estimated scf accuracy    <       2.23699095 Ry

     iteration # 24     ecut=    30.00 Ry     beta=0.70
     Davidson diagonalization with overlap
     ethr =  1.00E-02,  avg # of iterations =  1.0

     negative rho (up, down):  2.261E-02 0.000E+00

     total cpu time spent up to now is        5.4 secs

     total energy              =     -26.95348183 Ry
     Harris-Foulkes estimate   =     -26.97431170 Ry
     estimated scf accuracy    <       2.28320640 Ry

     iteration # 25     ecut=    30.00 Ry     beta=0.70
     Davidson diagonalization with overlap
     ethr =  1.00E-02,  avg # of iterations =  1.0

     negative rho (up, down):  1.378E-02 0.000E+00

     total cpu time spent up to now is        5.4 secs

     total energy              =     -26.84842131 Ry
     Harris-Foulkes estimate   =     -26.95353994 Ry
     estimated scf accuracy    <       2.25180249 Ry

     iteration # 26     ecut=    30.00 Ry     beta=0.70
     Davidson diagonalization with overlap
     ethr =  1.00E-02,  avg # of iterations =  1.0

     negative rho (up, down):  1.890E-02 0.000E+00

     total cpu time spent up to now is        5.5 secs

     total energy              =     -26.92248825 Ry
     Harris-Foulkes estimate   =     -26.84917104 Ry
     estimated scf accuracy    <       2.07646286 Ry

     iteration # 27     ecut=    30.00 Ry     beta=0.70
     Davidson diagonalization with overlap
     ethr =  1.00E-02,  avg # of iterations =  1.0

     negative rho (up, down):  1.157E-01 0.000E+00

     total cpu time spent up to now is        5.5 secs

     total energy              =     -25.17591978 Ry
     Harris-Foulkes estimate   =     -26.92327621 Ry
     estimated scf accuracy    <       2.21616653 Ry

     iteration # 28     ecut=    30.00 Ry     beta=0.70
     Davidson diagonalization with overlap
     ethr =  1.00E-02,  avg # of iterations =  3.0

     negative rho (up, down):  4.075E-03 0.000E+00

     total cpu time spent up to now is        5.6 secs

     total energy              =     -26.86737402 Ry
     Harris-Foulkes estimate   =     -28.76732153 Ry
     estimated scf accuracy    <       4.02644860 Ry

     iteration # 29     ecut=    30.00 Ry     beta=0.70
     Davidson diagonalization with overlap
     ethr =  1.00E-02,  avg # of iterations =  4.0

     negative rho (up, down):  2.794E-03 0.000E+00

     total cpu time spent up to now is        5.6 secs

     total energy              =     -26.36373889 Ry
     Harris-Foulkes estimate   =     -26.92881373 Ry
     estimated scf accuracy    <       1.45788590 Ry

     iteration # 30     ecut=    30.00 Ry     beta=0.70
     Davidson diagonalization with overlap
     ethr =  1.00E-02,  avg # of iterations =  2.0

     negative rho (up, down):  2.257E-04 0.000E+00

     total cpu time spent up to now is        5.6 secs

     total energy              =     -26.41372954 Ry
     Harris-Foulkes estimate   =     -26.52271496 Ry
     estimated scf accuracy    <       1.48518016 Ry

     iteration # 31     ecut=    30.00 Ry     beta=0.70
     Davidson diagonalization with overlap
     ethr =  1.00E-02,  avg # of iterations =  1.0

     negative rho (up, down):  8.163E-05 0.000E+00

     total cpu time spent up to now is        5.7 secs

     total energy              =     -26.40992604 Ry
     Harris-Foulkes estimate   =     -26.45457694 Ry
     estimated scf accuracy    <       0.30728429 Ry

     iteration # 32     ecut=    30.00 Ry     beta=0.70
     Davidson diagonalization with overlap
     ethr =  3.84E-03,  avg # of iterations =  1.0

     total cpu time spent up to now is        5.7 secs

     total energy              =     -26.48148849 Ry
     Harris-Foulkes estimate   =     -26.51189155 Ry
     estimated scf accuracy    <       1.52819297 Ry

     iteration # 33     ecut=    30.00 Ry     beta=0.70
     Davidson diagonalization with overlap
     ethr =  3.84E-03,  avg # of iterations =  1.0

     total cpu time spent up to now is        5.7 secs

     total energy              =     -26.34937312 Ry
     Harris-Foulkes estimate   =     -26.47970697 Ry
     estimated scf accuracy    <       1.75102151 Ry

     iteration # 34     ecut=    30.00 Ry     beta=0.70
     Davidson diagonalization with overlap
     ethr =  3.84E-03,  avg # of iterations =  1.0

     negative rho (up, down):  8.965E-07 0.000E+00

     total cpu time spent up to now is        5.8 secs

     total energy              =     -26.47292912 Ry
     Harris-Foulkes estimate   =     -26.48889968 Ry
     estimated scf accuracy    <       0.82926502 Ry

     iteration # 35     ecut=    30.00 Ry     beta=0.70
     Davidson diagonalization with overlap
     ethr =  3.84E-03,  avg # of iterations =  1.0

     total cpu time spent up to now is        5.8 secs

     total energy              =     -26.46221081 Ry
     Harris-Foulkes estimate   =     -26.47306145 Ry
     estimated scf accuracy    <       0.77101184 Ry

     iteration # 36     ecut=    30.00 Ry     beta=0.70
     Davidson diagonalization with overlap
     ethr =  3.84E-03,  avg # of iterations =  1.0

     total cpu time spent up to now is        5.8 secs

     total energy              =     -26.46580933 Ry
     Harris-Foulkes estimate   =     -26.46263925 Ry
     estimated scf accuracy    <       0.61507811 Ry

     iteration # 37     ecut=    30.00 Ry     beta=0.70
     Davidson diagonalization with overlap
     ethr =  3.84E-03,  avg # of iterations =  1.0

     total cpu time spent up to now is        5.9 secs

     total energy              =     -26.45768995 Ry
     Harris-Foulkes estimate   =     -26.46589386 Ry
     estimated scf accuracy    <       0.68276496 Ry

     iteration # 38     ecut=    30.00 Ry     beta=0.70
     Davidson diagonalization with overlap
     ethr =  3.84E-03,  avg # of iterations =  1.0

     negative rho (up, down):  4.969E-08 0.000E+00

     total cpu time spent up to now is        5.9 secs

     total energy              =     -26.43176006 Ry
     Harris-Foulkes estimate   =     -26.45823504 Ry
     estimated scf accuracy    <       0.48462779 Ry

     iteration # 39     ecut=    30.00 Ry     beta=0.70
     Davidson diagonalization with overlap
     ethr =  3.84E-03,  avg # of iterations =  1.0

     negative rho (up, down):  2.604E-08 0.000E+00

     total cpu time spent up to now is        5.9 secs

     total energy              =     -26.45599850 Ry
     Harris-Foulkes estimate   =     -26.45309550 Ry
     estimated scf accuracy    <       0.34721329 Ry

     iteration # 40     ecut=    30.00 Ry     beta=0.70
     Davidson diagonalization with overlap
     ethr =  3.84E-03,  avg # of iterations =  1.0

     negative rho (up, down):  6.321E-08 0.000E+00

     total cpu time spent up to now is        6.0 secs

     total energy              =     -26.45437010 Ry
     Harris-Foulkes estimate   =     -26.45647446 Ry
     estimated scf accuracy    <       0.61192820 Ry

     iteration # 41     ecut=    30.00 Ry     beta=0.70
     Davidson diagonalization with overlap
     ethr =  3.84E-03,  avg # of iterations =  1.0

     negative rho (up, down):  4.301E-08 0.000E+00

     total cpu time spent up to now is        6.0 secs

     total energy              =     -26.43363404 Ry
     Harris-Foulkes estimate   =     -26.45450962 Ry
     estimated scf accuracy    <       0.46062388 Ry

     iteration # 42     ecut=    30.00 Ry     beta=0.70
     Davidson diagonalization with overlap
     ethr =  3.84E-03,  avg # of iterations =  1.0

     total cpu time spent up to now is        6.0 secs

     total energy              =     -26.44695791 Ry
     Harris-Foulkes estimate   =     -26.45242721 Ry
     estimated scf accuracy    <       0.22630119 Ry

     iteration # 43     ecut=    30.00 Ry     beta=0.70
     Davidson diagonalization with overlap
     ethr =  2.83E-03,  avg # of iterations =  1.0

     total cpu time spent up to now is        6.1 secs

     total energy              =     -26.44833465 Ry
     Harris-Foulkes estimate   =     -26.44896342 Ry
     estimated scf accuracy    <       0.01080867 Ry

     iteration # 44     ecut=    30.00 Ry     beta=0.70
     Davidson diagonalization with overlap
     ethr =  1.35E-04,  avg # of iterations =  1.0

     total cpu time spent up to now is        6.1 secs

     total energy              =     -26.44871679 Ry
     Harris-Foulkes estimate   =     -26.44904537 Ry
     estimated scf accuracy    <       0.01769916 Ry

     iteration # 45     ecut=    30.00 Ry     beta=0.70
     Davidson diagonalization with overlap
     ethr =  1.35E-04,  avg # of iterations =  1.0

     total cpu time spent up to now is        6.1 secs

     total energy              =     -26.44880625 Ry
     Harris-Foulkes estimate   =     -26.44883672 Ry
     estimated scf accuracy    <       0.00126225 Ry

     iteration # 46     ecut=    30.00 Ry     beta=0.70
     Davidson diagonalization with overlap
     ethr =  1.58E-05,  avg # of iterations =  7.0

     total cpu time spent up to now is        6.2 secs

     total energy              =     -26.44882024 Ry
     Harris-Foulkes estimate   =     -26.44882020 Ry
     estimated scf accuracy    <       0.00000648 Ry

     iteration # 47     ecut=    30.00 Ry     beta=0.70
     Davidson diagonalization with overlap
     ethr =  8.10E-08,  avg # of iterations =  7.0

     total cpu time spent up to now is        6.2 secs

     total energy              =     -26.44881993 Ry
     Harris-Foulkes estimate   =     -26.44882026 Ry
     estimated scf accuracy    <       0.00001096 Ry

     iteration # 48     ecut=    30.00 Ry     beta=0.70
     Davidson diagonalization with overlap
     ethr =  8.10E-08,  avg # of iterations =  1.0

     total cpu time spent up to now is        6.2 secs

     End of self-consistent calculation

          k = 0.0000 0.0000 0.0000 ( 22119 PWs)   bands (ev):

   -31.2370 -11.7207  -7.5849  -7.5817  -7.4182  -0.3008   0.6006   0.7759

     the Fermi energy is    -7.4042 ev

!    total energy              =     -26.44882007 Ry
     Harris-Foulkes estimate   =     -26.44882008 Ry
     estimated scf accuracy    <          6.7E-09 Ry

     convergence has been achieved in  48 iterations

     Forces acting on atoms (Ry/au):

     atom    1 type  1   force =    -0.00071675    0.00034747    0.00092817
     atom    2 type  1   force =   -18.65409974   10.06394678    5.44069301
     atom    3 type  2   force =    18.65481649  -10.06429426   -5.44162118

     Total force =    30.947747     Total SCF correction =     0.000014

     Entering Dynamics:    iteration =     3
                           time      =   0.0145 pico-seconds


     Andersen thermostat:    3 collisions

ATOMIC_POSITIONS (bohr)
H        3.500532926  12.091372756  16.430612329
H     -181.857120829 119.429181974  67.065159970
O       14.121050139   2.831294315   4.013958852


     kinetic energy (Ekin) =   691.39824846 Ry
     temperature           = ************** K 
     Ekin + Etot (const)   =   664.94942840 Ry
     Message from routine dynamics:
     Total linear momentum <> 0

     Linear momentum :   -0.0316492214    0.0562235454    0.0730918799

     Writing output data file pwscf.save

     second order wave-functions extrapolation
     Check: negative starting charge=   -0.347172
     second order charge density extrapolation
     Check: negative starting charge=   -0.345538

     negative rho (up, down):  1.255E+02 0.000E+00

     total cpu time spent up to now is        6.5 secs

     per-process dynamical memory:    20.4 Mb

     Self-consistent Calculation

     iteration #  1     ecut=    30.00 Ry     beta=0.70
     Davidson diagonalization with overlap
     c_bands:  2 eigenvalues not converged
     ethr =  1.00E-06,  avg # of iterations = 20.0

     negative rho (up, down):  3.722E+01 0.000E+00

     total cpu time spent up to now is        6.7 secs

     total energy              =    -533.20285534 Ry
     Harris-Foulkes estimate   =  -42196.93208343 Ry
     estimated scf accuracy    <    5737.56998303 Ry

     iteration #  2     ecut=    30.00 Ry     beta=0.70
     Davidson diagonalization with overlap
     ethr =  1.00E-02,  avg # of iterations = 15.0

     negative rho (up, down):  6.988E-04 0.000E+00

     total cpu time spent up to now is        6.8 secs

     total energy              =     168.03384599 Ry
     Harris-Foulkes estimate   =   -6436.63086284 Ry
     estimated scf accuracy    <     581.20184284 Ry

     iteration #  3     ecut=    30.00 Ry     beta=0.70
     Davidson diagonalization with overlap
     ethr =  1.00E-02,  avg # of iterations = 11.0

     negative rho (up, down):  2.525E-01 0.000E+00

     total cpu time spent up to now is        6.8 secs

     total energy              =     -64.40651096 Ry
     Harris-Foulkes estimate   =    -104.38248471 Ry
     estimated scf accuracy    <      98.20292927 Ry

     iteration #  4     ecut=    30.00 Ry     beta=0.70
     Davidson diagonalization with overlap
     ethr =  1.00E-02,  avg # of iterations =  9.0

     negative rho (up, down):  1.656E-01 0.000E+00

     total cpu time spent up to now is        6.9 secs

     total energy              =     158.50676688 Ry
     Harris-Foulkes estimate   =    -899.62961664 Ry
     estimated scf accuracy    <      53.36493072 Ry

     iteration #  5     ecut=    30.00 Ry     beta=0.70
     Davidson diagonalization with overlap
     ethr =  1.00E-02,  avg # of iterations =  8.0

     negative rho (up, down):  5.829E-03 0.000E+00

     total cpu time spent up to now is        6.9 secs

     total energy              =      37.83740774 Ry
     Harris-Foulkes estimate   =    -261.11768770 Ry
     estimated scf accuracy    <      21.78126556 Ry

     iteration #  6     ecut=    30.00 Ry     beta=0.70
     Davidson diagonalization with overlap
     ethr =  1.00E-02,  avg # of iterations =  6.0

     negative rho (up, down):  9.252E-05 0.000E+00

     total cpu time spent up to now is        7.0 secs

     total energy              =     -48.80632916 Ry
     Harris-Foulkes estimate   =     -67.28754716 Ry
     estimated scf accuracy    <      48.87246761 Ry

     iteration #  7     ecut=    30.00 Ry     beta=0.70
     Davidson diagonalization with overlap
     ethr =  1.00E-02,  avg # of iterations =  4.0

     negative rho (up, down):  1.919E-02 0.000E+00

     total cpu time spent up to now is        7.0 secs

     total energy              =     -53.13552890 Ry
     Harris-Foulkes estimate   =     -49.22724884 Ry
     estimated scf accuracy    <      25.61551611 Ry

     iteration #  8     ecut=    30.00 Ry     beta=0.70
     Davidson diagonalization with overlap
     ethr =  1.00E-02,  avg # of iterations =  1.0

     negative rho (up, down):  1.063E-02 0.000E+00

     total cpu time spent up to now is        7.1 secs

     total energy              =     -40.43502864 Ry
     Harris-Foulkes estimate   =     -53.14782145 Ry
     estimated scf accuracy    <      30.36991118 Ry

     iteration #  9     ecut=    30.00 Ry     beta=0.70
     Davidson diagonalization with overlap
     ethr =  1.00E-02,  avg # of iterations =  2.0

     negative rho (up, down):  1.302E-02 0.000E+00

     total cpu time spent up to now is        7.1 secs

     total energy              =     -42.06679156 Ry
     Harris-Foulkes estimate   =     -40.64272734 Ry
     estimated scf accuracy    <      14.45394770 Ry

     iteration # 10     ecut=    30.00 Ry     beta=0.70
     Davidson diagonalization with overlap
     ethr =  1.00E-02,  avg # of iterations =  1.0

     negative rho (up, down):  1.440E-02 0.000E+00

     total cpu time spent up to now is        7.1 secs

     total energy              =     -31.77859514 Ry
     Harris-Foulkes estimate   =     -42.07090525 Ry
     estimated scf accuracy    <      16.23234510 Ry

     iteration # 11     ecut=    30.00 Ry     beta=0.70
     Davidson diagonalization with overlap
     ethr =  1.00E-02,  avg # of iterations =  3.0

     negative rho (up, down):  1.467E-03 0.000E+00

     total cpu time spent up to now is        7.2 secs

     total energy              =     -32.76499973 Ry
     Harris-Foulkes estimate   =     -33.00374326 Ry
     estimated scf accuracy    <       4.20077970 Ry

     iteration # 12     ecut=    30.00 Ry     beta=0.70
     Davidson diagonalization with overlap
     ethr =  1.00E-02,  avg # of iterations =  1.0

     negative rho (up, down):  1.637E+00 0.000E+00

     total cpu time spent up to now is        7.2 secs

     total energy              =     -39.27714726 Ry
     Harris-Foulkes estimate   =     -32.78418994 Ry
     estimated scf accuracy    <       3.85227993 Ry

     iteration # 13     ecut=    30.00 Ry     beta=0.70
     Davidson diagonalization with overlap
     ethr =  1.00E-02,  avg # of iterations = 11.0

     negative rho (up, down):  8.091E-01 0.000E+00

     total cpu time spent up to now is        7.3 secs

     total energy              =     -57.93296948 Ry
     Harris-Foulkes estimate   =     -61.19048899 Ry
     estimated scf accuracy    <      72.61124959 Ry

     iteration # 14     ecut=    30.00 Ry     beta=0.70
     Davidson diagonalization with overlap
     ethr =  1.00E-02,  avg # of iterations =  6.0

     negative rho (up, down):  1.394E-02 0.000E+00

     total cpu time spent up to now is        7.3 secs

     total energy              =      62.17193079 Ry
     Harris-Foulkes estimate   =    -232.46104777 Ry
     estimated scf accuracy    <      94.31248549 Ry

     iteration # 15     ecut=    30.00 Ry     beta=0.70
     Davidson diagonalization with overlap
     ethr =  1.00E-02,  avg # of iterations =  9.0

     negative rho (up, down):  3.301E-02 0.000E+00

     total cpu time spent up to now is        7.4 secs

     total energy              =     -38.15583623 Ry
     Harris-Foulkes estimate   =     -38.81817019 Ry
     estimated scf accuracy    <      40.06241313 Ry

     iteration # 16     ecut=    30.00 Ry     beta=0.70
     Davidson diagonalization with overlap
     ethr =  1.00E-02,  avg # of iterations =  3.0

     negative rho (up, down):  3.939E-02 0.000E+00

     total cpu time spent up to now is        7.4 secs

     total energy              =     -38.58209193 Ry
     Harris-Foulkes estimate   =     -38.28601501 Ry
     estimated scf accuracy    <      38.44665568 Ry

     iteration # 17     ecut=    30.00 Ry     beta=0.70
     Davidson diagonalization with overlap
     ethr =  1.00E-02,  avg # of iterations =  1.0

     negative rho (up, down):  1.158E-01 0.000E+00

     total cpu time spent up to now is        7.4 secs

     total energy              =     -38.20080920 Ry
     Harris-Foulkes estimate   =     -38.61957021 Ry
     estimated scf accuracy    <      38.78230990 Ry

     iteration # 18     ecut=    30.00 Ry     beta=0.70
     Davidson diagonalization with overlap
     ethr =  1.00E-02,  avg # of iterations =  4.0

     negative rho (up, down):  3.658E-01 0.000E+00

     total cpu time spent up to now is        7.5 secs

     total energy              =     -33.53185974 Ry
     Harris-Foulkes estimate   =     -38.74292172 Ry
     estimated scf accuracy    <      22.59480992 Ry

     iteration # 19     ecut=    30.00 Ry     beta=0.70
     Davidson diagonalization with overlap
     ethr =  1.00E-02,  avg # of iterations =  2.0

     negative rho (up, down):  1.374E+00 0.000E+00

     total cpu time spent up to now is        7.5 secs

     total energy              =     -25.36400748 Ry
     Harris-Foulkes estimate   =     -33.91018055 Ry
     estimated scf accuracy    <      16.26605737 Ry

     iteration # 20     ecut=    30.00 Ry     beta=0.70
     Davidson diagonalization with overlap
     ethr =  1.00E-02,  avg # of iterations = 12.0

     negative rho (up, down):  1.327E+00 0.000E+00

     total cpu time spent up to now is        7.6 secs

     total energy              =     -12.41169675 Ry
     Harris-Foulkes estimate   =    -110.74011359 Ry
     estimated scf accuracy    <       9.73250146 Ry

     iteration # 21     ecut=    30.00 Ry     beta=0.70
     Davidson diagonalization with overlap
     ethr =  1.00E-02,  avg # of iterations =  5.0

     negative rho (up, down):  1.951E+00 0.000E+00

     total cpu time spent up to now is        7.6 secs

     total energy              =     175.79642410 Ry
     Harris-Foulkes estimate   =    -155.65702693 Ry
     estimated scf accuracy    <      19.67022320 Ry

     iteration # 22     ecut=    30.00 Ry     beta=0.70
     Davidson diagonalization with overlap
     ethr =  1.00E-02,  avg # of iterations =  5.0

     negative rho (up, down):  1.257E+00 0.000E+00

     total cpu time spent up to now is        7.7 secs

     total energy              =     -19.67052578 Ry
     Harris-Foulkes estimate   =     -47.09461790 Ry
     estimated scf accuracy    <      11.12606406 Ry

[...]
     Harris-Foulkes estimate   =     -37.38710791 Ry
     estimated scf accuracy    <      10.70221113 Ry

     iteration # 59     ecut=    30.00 Ry     beta=0.70
     Davidson diagonalization with overlap
     ethr =  1.00E-02,  avg # of iterations =  8.0

     negative rho (up, down):  1.352E-02 0.000E+00

     total cpu time spent up to now is        9.7 secs

     total energy              =      -9.83894319 Ry
     Harris-Foulkes estimate   =     -83.23760958 Ry
     estimated scf accuracy    <      23.54552948 Ry

     iteration # 60     ecut=    30.00 Ry     beta=0.70
     Davidson diagonalization with overlap
     ethr =  1.00E-02,  avg # of iterations =  5.0

     negative rho (up, down):  1.951E-02 0.000E+00

     total cpu time spent up to now is        9.7 secs

     total energy              =     -29.67272991 Ry
     Harris-Foulkes estimate   =     -62.09418288 Ry
     estimated scf accuracy    <      10.34224674 Ry

     iteration # 61     ecut=    30.00 Ry     beta=0.70
     Davidson diagonalization with overlap
     ethr =  1.00E-02,  avg # of iterations =  4.0

     negative rho (up, down):  2.088E-02 0.000E+00

     total cpu time spent up to now is        9.8 secs

     total energy              =     -15.05680248 Ry
     Harris-Foulkes estimate   =     -39.43789604 Ry
     estimated scf accuracy    <       8.95071658 Ry

     iteration # 62     ecut=    30.00 Ry     beta=0.70
     Davidson diagonalization with overlap
     ethr =  1.00E-02,  avg # of iterations =  5.0

     negative rho (up, down):  8.244E-02 0.000E+00

     total cpu time spent up to now is        9.8 secs

     total energy              =     -34.38681058 Ry
     Harris-Foulkes estimate   =     -34.50780815 Ry
     estimated scf accuracy    <       5.45316974 Ry

     iteration # 63     ecut=    30.00 Ry     beta=0.70
     Davidson diagonalization with overlap
     ethr =  1.00E-02,  avg # of iterations = 10.0

     negative rho (up, down):  2.451E-01 0.000E+00

     total cpu time spent up to now is        9.9 secs

     total energy              =     416.86656944 Ry
     Harris-Foulkes estimate   =     -94.25707263 Ry
     estimated scf accuracy    <      65.04520111 Ry

     iteration # 64     ecut=    30.00 Ry     beta=0.70
     Davidson diagonalization with overlap
     ethr =  1.00E-02,  avg # of iterations =  7.0

     negative rho (up, down):  2.589E-01 0.000E+00

     total cpu time spent up to now is        9.9 secs

     total energy              =   -1014.20487108 Ry
     Harris-Foulkes estimate   =    -167.20279563 Ry
     estimated scf accuracy    <      63.62682207 Ry

     iteration # 65     ecut=    30.00 Ry     beta=0.70
     Davidson diagonalization with overlap
     ethr =  1.00E-02,  avg # of iterations = 12.0

     negative rho (up, down):  4.552E-01 0.000E+00

     total cpu time spent up to now is       10.0 secs

     total energy              =      48.24154371 Ry
     Harris-Foulkes estimate   =   -3414.01947407 Ry
     estimated scf accuracy    <      68.96999546 Ry

     iteration # 66     ecut=    30.00 Ry     beta=0.70
     Davidson diagonalization with overlap
     ethr =  1.00E-02,  avg # of iterations =  7.0

     negative rho (up, down):  2.895E-01 0.000E+00

     total cpu time spent up to now is       10.0 secs

     total energy              =      31.13869042 Ry
     Harris-Foulkes estimate   =    -677.71126319 Ry
     estimated scf accuracy    <      64.91118546 Ry

     iteration # 67     ecut=    30.00 Ry     beta=0.70
     Davidson diagonalization with overlap
     ethr =  1.00E-02,  avg # of iterations =  8.0

     negative rho (up, down):  5.972E-01 0.000E+00

     total cpu time spent up to now is       10.1 secs

     total energy              =       3.38898156 Ry
     Harris-Foulkes estimate   =    -670.59355345 Ry
     estimated scf accuracy    <      61.28210495 Ry

     iteration # 68     ecut=    30.00 Ry     beta=0.70
     Davidson diagonalization with overlap
     ethr =  1.00E-02,  avg # of iterations = 10.0

     negative rho (up, down):  5.408E-01 0.000E+00

     total cpu time spent up to now is       10.1 secs

     total energy              =      55.10409853 Ry
     Harris-Foulkes estimate   =    -445.50108101 Ry
     estimated scf accuracy    <      32.82397043 Ry

     iteration # 69     ecut=    30.00 Ry     beta=0.70
     Davidson diagonalization with overlap
     ethr =  1.00E-02,  avg # of iterations =  6.0

     negative rho (up, down):  5.151E-01 0.000E+00

     total cpu time spent up to now is       10.2 secs

     total energy              =      56.68427584 Ry
     Harris-Foulkes estimate   =    -401.18172988 Ry
     estimated scf accuracy    <      49.97682527 Ry

     iteration # 70     ecut=    30.00 Ry     beta=0.70
     Davidson diagonalization with overlap
     ethr =  1.00E-02,  avg # of iterations =  7.0

     negative rho (up, down):  3.019E-01 0.000E+00

     total cpu time spent up to now is       10.2 secs

     total energy              =     -21.15695150 Ry
     Harris-Foulkes estimate   =    -461.15988136 Ry
     estimated scf accuracy    <      34.82880996 Ry

     iteration # 71     ecut=    30.00 Ry     beta=0.70
     Davidson diagonalization with overlap
     ethr =  1.00E-02,  avg # of iterations =  7.0

     negative rho (up, down):  1.601E+00 0.000E+00

     total cpu time spent up to now is       10.3 secs

     total energy              =      29.62696879 Ry
     Harris-Foulkes estimate   =    -788.00544512 Ry
     estimated scf accuracy    <      48.47499472 Ry

     iteration # 72     ecut=    30.00 Ry     beta=0.70
     Davidson diagonalization with overlap
     ethr =  1.00E-02,  avg # of iterations = 10.0

     negative rho (up, down):  1.604E+00 0.000E+00

     total cpu time spent up to now is       10.4 secs

     total energy              =     252.90581916 Ry
     Harris-Foulkes estimate   =   -5856.27254331 Ry
     estimated scf accuracy    <      35.85735767 Ry

     iteration # 73     ecut=    30.00 Ry     beta=0.70
     Davidson diagonalization with overlap
     ethr =  1.00E-02,  avg # of iterations =  8.0

     negative rho (up, down):  1.627E+00 0.000E+00

     total cpu time spent up to now is       10.4 secs

     total energy              =      49.29240628 Ry
     Harris-Foulkes estimate   =   -2732.63306952 Ry
     estimated scf accuracy    <      27.14820071 Ry

     iteration # 74     ecut=    30.00 Ry     beta=0.70
     Davidson diagonalization with overlap
     ethr =  1.00E-02,  avg # of iterations =  8.0

     negative rho (up, down):  1.104E+00 0.000E+00

     total cpu time spent up to now is       10.5 secs

     total energy              =     114.93216275 Ry
     Harris-Foulkes estimate   =   -2306.31595360 Ry
     estimated scf accuracy    <      19.83093254 Ry

     iteration # 75     ecut=    30.00 Ry     beta=0.70
     Davidson diagonalization with overlap
     ethr =  1.00E-02,  avg # of iterations =  9.0

     negative rho (up, down):  1.253E+00 0.000E+00

     total cpu time spent up to now is       10.6 secs

     total energy              =     108.85033368 Ry
     Harris-Foulkes estimate   =   -3444.24810233 Ry
     estimated scf accuracy    <      21.94000170 Ry

     iteration # 76     ecut=    30.00 Ry     beta=0.70
     Davidson diagonalization with overlap
     ethr =  1.00E-02,  avg # of iterations =  6.0

     negative rho (up, down):  1.407E+00 0.000E+00

     total cpu time spent up to now is       10.6 secs

     total energy              =      92.38606055 Ry
     Harris-Foulkes estimate   =   -3554.82406809 Ry
     estimated scf accuracy    <      45.32414604 Ry

     iteration # 77     ecut=    30.00 Ry     beta=0.70
     Davidson diagonalization with overlap
     ethr =  1.00E-02,  avg # of iterations = 12.0

     negative rho (up, down):  1.144E+00 0.000E+00

     total cpu time spent up to now is       10.7 secs

     total energy              =     118.57738707 Ry
     Harris-Foulkes estimate   =  -11970.38623916 Ry
     estimated scf accuracy    <      23.24436253 Ry

     iteration # 78     ecut=    30.00 Ry     beta=0.70
     Davidson diagonalization with overlap
     ethr =  1.00E-02,  avg # of iterations = 10.0

     negative rho (up, down):  7.215E-01 0.000E+00

     total cpu time spent up to now is       10.8 secs

     total energy              =    -600.52967279 Ry
     Harris-Foulkes estimate   =    -223.97623811 Ry
     estimated scf accuracy    <      19.23674909 Ry

     iteration # 79     ecut=    30.00 Ry     beta=0.70
     Davidson diagonalization with overlap
     ethr =  1.00E-02,  avg # of iterations =  4.0

     negative rho (up, down):  3.235E-01 0.000E+00

     total cpu time spent up to now is       10.8 secs

     total energy              =     -47.71563149 Ry
     Harris-Foulkes estimate   =   -4148.40485382 Ry
     estimated scf accuracy    <      27.44474567 Ry

     iteration # 80     ecut=    30.00 Ry     beta=0.70
     Davidson diagonalization with overlap
     ethr =  1.00E-02,  avg # of iterations =  8.0

     negative rho (up, down):  4.251E-02 0.000E+00

     total cpu time spent up to now is       10.9 secs

     total energy              =      81.59926689 Ry
     Harris-Foulkes estimate   =   -4147.30531732 Ry
     estimated scf accuracy    <      21.03064107 Ry

     iteration # 81     ecut=    30.00 Ry     beta=0.70
     Davidson diagonalization with overlap
     ethr =  1.00E-02,  avg # of iterations =  7.0

     negative rho (up, down):  9.222E-03 0.000E+00

     total cpu time spent up to now is       10.9 secs

     total energy              =     121.45975628 Ry
     Harris-Foulkes estimate   =   -5155.34765453 Ry
     estimated scf accuracy    <      27.59609815 Ry

     iteration # 82     ecut=    30.00 Ry     beta=0.70
     Davidson diagonalization with overlap
     ethr =  1.00E-02,  avg # of iterations = 12.0

     negative rho (up, down):  1.837E-02 0.000E+00

     total cpu time spent up to now is       11.0 secs

     total energy              =     -69.54706423 Ry
     Harris-Foulkes estimate   =     -83.11722183 Ry
     estimated scf accuracy    <      70.94553689 Ry

     iteration # 83     ecut=    30.00 Ry     beta=0.70
     Davidson diagonalization with overlap
     ethr =  1.00E-02,  avg # of iterations =  7.0

     negative rho (up, down):  5.260E-02 0.000E+00

     total cpu time spent up to now is       11.0 secs

     total energy              =      15.34106020 Ry
     Harris-Foulkes estimate   =    -239.61381109 Ry
     estimated scf accuracy    <      30.75266871 Ry

     iteration # 84     ecut=    30.00 Ry     beta=0.70
     Davidson diagonalization with overlap
     ethr =  1.00E-02,  avg # of iterations =  5.0

     negative rho (up, down):  1.219E-01 0.000E+00

     total cpu time spent up to now is       11.1 secs

     total energy              =     -30.39449751 Ry
     Harris-Foulkes estimate   =    -183.02468912 Ry
     estimated scf accuracy    <      31.08213365 Ry

     iteration # 85     ecut=    30.00 Ry     beta=0.70
     Davidson diagonalization with overlap
     ethr =  1.00E-02,  avg # of iterations =  9.0

     negative rho (up, down):  3.414E-01 0.000E+00

     total cpu time spent up to now is       11.1 secs

     total energy              =     108.54564592 Ry
     Harris-Foulkes estimate   =   -1242.98949963 Ry
     estimated scf accuracy    <      27.20369900 Ry

     iteration # 86     ecut=    30.00 Ry     beta=0.70
     Davidson diagonalization with overlap
     ethr =  1.00E-02,  avg # of iterations =  5.0

     negative rho (up, down):  4.377E-01 0.000E+00

     total cpu time spent up to now is       11.2 secs

     total energy              =      -0.84415159 Ry
     Harris-Foulkes estimate   =    -600.68263966 Ry
     estimated scf accuracy    <      29.92731704 Ry

     iteration # 87     ecut=    30.00 Ry     beta=0.70
     Davidson diagonalization with overlap
     ethr =  1.00E-02,  avg # of iterations =  6.0

     negative rho (up, down):  5.775E-01 0.000E+00

     total cpu time spent up to now is       11.2 secs

     total energy              =    -476.66490142 Ry
     Harris-Foulkes estimate   =   -1256.72980383 Ry
     estimated scf accuracy    <      32.23523811 Ry

     iteration # 88     ecut=    30.00 Ry     beta=0.70
     Davidson diagonalization with overlap
     ethr =  1.00E-02,  avg # of iterations = 10.0

     negative rho (up, down):  2.661E-02 0.000E+00

     total cpu time spent up to now is       11.3 secs

     total energy              =      96.52816426 Ry
     Harris-Foulkes estimate   =   -1114.70197287 Ry
     estimated scf accuracy    <      26.14447614 Ry

     iteration # 89     ecut=    30.00 Ry     beta=0.70
     Davidson diagonalization with overlap
     ethr =  1.00E-02,  avg # of iterations =  7.0

     negative rho (up, down):  1.404E-01 0.000E+00

     total cpu time spent up to now is       11.3 secs

     total energy              =     -21.83373301 Ry
     Harris-Foulkes estimate   =     -81.88259091 Ry
     estimated scf accuracy    <      35.26710780 Ry

     iteration # 90     ecut=    30.00 Ry     beta=0.70
     Davidson diagonalization with overlap
     ethr =  1.00E-02,  avg # of iterations = 10.0

     negative rho (up, down):  3.848E-02 0.000E+00

     total cpu time spent up to now is       11.4 secs

     total energy              =     100.97367915 Ry
     Harris-Foulkes estimate   =    -214.13833324 Ry
     estimated scf accuracy    <      22.67691648 Ry

     iteration # 91     ecut=    30.00 Ry     beta=0.70
     Davidson diagonalization with overlap
     ethr =  1.00E-02,  avg # of iterations =  7.0

     negative rho (up, down):  9.505E-02 0.000E+00

     total cpu time spent up to now is       11.5 secs

     total energy              =      24.65266446 Ry
     Harris-Foulkes estimate   =    -218.17063454 Ry
     estimated scf accuracy    <      16.77676919 Ry

     iteration # 92     ecut=    30.00 Ry     beta=0.70
     Davidson diagonalization with overlap
     ethr =  1.00E-02,  avg # of iterations =  7.0

     negative rho (up, down):  1.672E-01 0.000E+00

     total cpu time spent up to now is       11.5 secs

     total energy              =     -10.03051555 Ry
     Harris-Foulkes estimate   =    -117.70047801 Ry
     estimated scf accuracy    <      25.52970834 Ry

     iteration # 93     ecut=    30.00 Ry     beta=0.70
     Davidson diagonalization with overlap
     ethr =  1.00E-02,  avg # of iterations = 12.0

     negative rho (up, down):  1.524E-01 0.000E+00

     total cpu time spent up to now is       11.6 secs

     total energy              =      74.67346504 Ry
     Harris-Foulkes estimate   =    -416.95172691 Ry
     estimated scf accuracy    <      16.70870029 Ry

     iteration # 94     ecut=    30.00 Ry     beta=0.70
     Davidson diagonalization with overlap
     ethr =  1.00E-02,  avg # of iterations = 11.0

     negative rho (up, down):  1.654E-01 0.000E+00

     total cpu time spent up to now is       11.6 secs

     total energy              =      51.11034814 Ry
     Harris-Foulkes estimate   =    -273.87112963 Ry
     estimated scf accuracy    <      14.34464176 Ry

     iteration # 95     ecut=    30.00 Ry     beta=0.70
     Davidson diagonalization with overlap
     ethr =  1.00E-02,  avg # of iterations =  6.0

     negative rho (up, down):  8.810E-02 0.000E+00

     total cpu time spent up to now is       11.7 secs

     total energy              =     -40.40310256 Ry
     Harris-Foulkes estimate   =   -2603.35352674 Ry
     estimated scf accuracy    <      28.26814080 Ry

     iteration # 96     ecut=    30.00 Ry     beta=0.70
     Davidson diagonalization with overlap
     ethr =  1.00E-02,  avg # of iterations = 12.0

     negative rho (up, down):  7.375E-02 0.000E+00

     total cpu time spent up to now is       11.7 secs

     total energy              =      29.26924779 Ry
     Harris-Foulkes estimate   =    -368.46071050 Ry
     estimated scf accuracy    <      13.00206832 Ry

     iteration # 97     ecut=    30.00 Ry     beta=0.70
     Davidson diagonalization with overlap
     ethr =  1.00E-02,  avg # of iterations =  5.0

     negative rho (up, down):  1.779E-01 0.000E+00

     total cpu time spent up to now is       11.8 secs

     total energy              =     -38.31853360 Ry
     Harris-Foulkes estimate   =    -109.07966565 Ry
     estimated scf accuracy    <      38.31097097 Ry

     iteration # 98     ecut=    30.00 Ry     beta=0.70
     Davidson diagonalization with overlap
     ethr =  1.00E-02,  avg # of iterations =  5.0

     negative rho (up, down):  3.614E-02 0.000E+00

     total cpu time spent up to now is       11.8 secs

     total energy              =     -23.24583713 Ry
     Harris-Foulkes estimate   =    -141.37891919 Ry
     estimated scf accuracy    <      31.09732743 Ry

     iteration # 99     ecut=    30.00 Ry     beta=0.70
     Davidson diagonalization with overlap
     ethr =  1.00E-02,  avg # of iterations =  5.0

     negative rho (up, down):  1.224E-01 0.000E+00

     total cpu time spent up to now is       11.9 secs

     total energy              =    -410.96717371 Ry
     Harris-Foulkes estimate   =    -156.95012685 Ry
     estimated scf accuracy    <      17.40622614 Ry

     iteration #100     ecut=    30.00 Ry     beta=0.70
     Davidson diagonalization with overlap
     ethr =  1.00E-02,  avg # of iterations =  6.0

     negative rho (up, down):  1.003E-01 0.000E+00

     total cpu time spent up to now is       11.9 secs

     total energy              =      37.68802537 Ry
     Harris-Foulkes estimate   =   -1042.75566380 Ry
     estimated scf accuracy    <      19.36402020 Ry

     End of self-consistent calculation

     convergence NOT achieved after 100 iterations: stopping

     Writing output data file pwscf.save
 
     init_run     :      0.09s CPU      0.11s WALL (       1 calls)
     electrons    :      9.05s CPU     11.08s WALL (       4 calls)
     update_pot   :      0.31s CPU      0.43s WALL (       3 calls)
     forces       :      0.08s CPU      0.08s WALL (       3 calls)

     Called by init_run:
     wfcinit      :      0.01s CPU      0.02s WALL (       1 calls)
     potinit      :      0.02s CPU      0.03s WALL (       1 calls)

     Called by electrons:
     c_bands      :      4.39s CPU      4.62s WALL (     252 calls)
     sum_band     :      0.74s CPU      0.79s WALL (     252 calls)
     v_of_rho     :      1.81s CPU      1.92s WALL (     256 calls)
     mix_rho      :      1.90s CPU      3.14s WALL (     252 calls)

     Called by c_bands:
     init_us_2    :      0.02s CPU      0.03s WALL (     505 calls)
     cegterg      :      4.35s CPU      4.50s WALL (     252 calls)

     Called by sum_band:

     Called by *egterg:
     h_psi        :      3.63s CPU      3.75s WALL (    1293 calls)
     g_psi        :      0.04s CPU      0.04s WALL (    1040 calls)
     cdiaghg      :      0.26s CPU      0.27s WALL (    1289 calls)

     Called by h_psi:
     h_psi:pot    :      3.61s CPU      3.73s WALL (    1293 calls)
     h_psi:calbec :      0.04s CPU      0.05s WALL (    1293 calls)
     vloc_psi     :      3.56s CPU      3.67s WALL (    1293 calls)
     add_vuspsi   :      0.01s CPU      0.01s WALL (    1293 calls)

     General routines
     calbec       :      0.05s CPU      0.07s WALL (    1307 calls)
     fft          :      1.16s CPU      1.23s WALL (    2822 calls)
     fftw         :      3.68s CPU      3.81s WALL (   16452 calls)
     davcio       :      0.29s CPU      1.08s WALL (    4697 calls)
 
     Parallel routines
     fft_scatter  :      1.77s CPU      1.90s WALL (   19274 calls)
 
     PWSCF        :     9.70s CPU        12.03s WALL

 
   This run was terminated on:   8:40: 8  14Feb2018            

=------------------------------------------------------------------------------=
   JOB DONE.
=------------------------------------------------------------------------------=
