
     Program PWSCF v.6.0 (svn rev. 13079) starts on 14Feb2018 at  8:40:33 

     This program is part of the open-source Quantum ESPRESSO suite
     for quantum simulation of materials; please cite
         "P. Giannozzi et al., J. Phys.:Condens. Matter 21 395502 (2009);
          URL http://www.quantum-espresso.org", 
     in publications or presentations arising from this work. More details at
     http://www.quantum-espresso.org/quote

     Parallel version (MPI), running on    28 processors
     R & G space division:  proc/nbgrp/npool/nimage =      28
     Reading input from inputs/MD-H2O-2/431.in

     Current dimensions of program PWSCF are:
     Max number of different atomic species (ntypx) = 10
     Max number of k-points (npk) =  40000
     Max angular momentum in pseudopotentials (lmaxx) =  3

     Subspace diagonalization in iterative solution of the eigenvalue problem:
     a serial algorithm will be used

 
     Parallelization info
     --------------------
     sticks:   dense  smooth     PW     G-vecs:    dense   smooth      PW
     Min         136     136     33                 6338     6338     787
     Max         137     137     34                 6341     6341     792
     Sum        3809    3809    949               177509   177509   22119
 


     bravais-lattice index     =            1
     lattice parameter (alat)  =      20.0000  a.u.
     unit-cell volume          =    8000.0000 (a.u.)^3
     number of atoms/cell      =            3
     number of atomic types    =            2
     number of electrons       =         8.00
     number of Kohn-Sham states=            8
     kinetic-energy cutoff     =      30.0000  Ry
     charge density cutoff     =     120.0000  Ry
     convergence threshold     =      1.0E-08
     mixing beta               =       0.7000
     number of iterations used =            8  plain     mixing
     Exchange-correlation      = BLYP ( 1  3  1  3 0 0)
     nstep                     =         5000


     celldm(1)=  20.000000  celldm(2)=   0.000000  celldm(3)=   0.000000
     celldm(4)=   0.000000  celldm(5)=   0.000000  celldm(6)=   0.000000

     crystal axes: (cart. coord. in units of alat)
               a(1) = (   1.000000   0.000000   0.000000 )  
               a(2) = (   0.000000   1.000000   0.000000 )  
               a(3) = (   0.000000   0.000000   1.000000 )  

     reciprocal axes: (cart. coord. in units 2 pi/alat)
               b(1) = (  1.000000  0.000000  0.000000 )  
               b(2) = (  0.000000  1.000000  0.000000 )  
               b(3) = (  0.000000  0.000000  1.000000 )  


     PseudoPot. # 1 for  H read from file:
     ./H.blyp-hgh.UPF
     MD5 check sum: c576e69559cde411e611be972c763230
     Pseudo is Norm-conserving, Zval =  1.0
     Generated in analytical, separable form
     Using radial grid of  929 points,  0 beta functions with: 

     PseudoPot. # 2 for  O read from file:
     ./O.blyp-hgh.UPF
     MD5 check sum: d0b7156309aa9befef28faac7bc56342
     Pseudo is Norm-conserving, Zval =  6.0
     Generated in analytical, separable form
     Using radial grid of 1095 points,  1 beta functions with: 
                l(1) =   0

     atomic species   valence    mass     pseudopotential
        H              1.00     1.01000      H( 1.00)
        O              6.00    16.00000      O( 1.00)

     No symmetry found



   Cartesian axes

     site n.     atom                  positions (alat units)
         1           H   tau(   1) = (   0.3865129   0.4900727   0.6551179  )
         2           H   tau(   2) = (   0.8141694   0.3983026   0.0188827  )
         3           O   tau(   3) = (   0.8926000   0.3590724   0.9717124  )

     number of k points=     1  Marzari-Vanderbilt smearing, width (Ry)=  0.0250
                       cart. coord. in units 2pi/alat
        k(    1) = (   0.0000000   0.0000000   0.0000000), wk =   2.0000000

     Dense  grid:   177509 G-vectors     FFT dimensions: (  72,  72,  72)

     Estimated max dynamical RAM per process >       6.09Mb

     Estimated total allocated dynamical RAM >     170.64Mb

     Initial potential from superposition of free atoms
     Check: negative starting charge=   -0.347918

     starting charge    7.99998, renormalised to    8.00000

     negative rho (up, down):  3.479E-01 0.000E+00
     Starting wfc are    6 randomized atomic wfcs +    2 random wfc

     total cpu time spent up to now is        0.3 secs

     per-process dynamical memory:    18.8 Mb

     Self-consistent Calculation

     iteration #  1     ecut=    30.00 Ry     beta=0.70
     Davidson diagonalization with overlap
     ethr =  1.00E-02,  avg # of iterations =  8.0

     negative rho (up, down):  9.104E-02 0.000E+00

     total cpu time spent up to now is        0.3 secs

     total energy              =     -30.34570183 Ry
     Harris-Foulkes estimate   =     -32.24207680 Ry
     estimated scf accuracy    <       2.17613773 Ry

     iteration #  2     ecut=    30.00 Ry     beta=0.70
     Davidson diagonalization with overlap
     ethr =  1.00E-02,  avg # of iterations =  4.0

     negative rho (up, down):  6.621E-02 0.000E+00

     total cpu time spent up to now is        0.3 secs

     total energy              =     -32.29593438 Ry
     Harris-Foulkes estimate   =     -34.58835051 Ry
     estimated scf accuracy    <       5.57554304 Ry

     iteration #  3     ecut=    30.00 Ry     beta=0.70
     Davidson diagonalization with overlap
     ethr =  1.00E-02,  avg # of iterations =  2.0

     negative rho (up, down):  6.361E-02 0.000E+00

     total cpu time spent up to now is        0.4 secs

     total energy              =     -32.44223886 Ry
     Harris-Foulkes estimate   =     -32.53053828 Ry
     estimated scf accuracy    <       1.81335149 Ry

     iteration #  4     ecut=    30.00 Ry     beta=0.70
     Davidson diagonalization with overlap
     ethr =  1.00E-02,  avg # of iterations =  1.0

     negative rho (up, down):  1.189E-02 0.000E+00

     total cpu time spent up to now is        0.4 secs

     total energy              =     -31.29712715 Ry
     Harris-Foulkes estimate   =     -32.44256986 Ry
     estimated scf accuracy    <       1.69183737 Ry

     iteration #  5     ecut=    30.00 Ry     beta=0.70
     Davidson diagonalization with overlap
     ethr =  1.00E-02,  avg # of iterations =  4.0

     negative rho (up, down):  2.310E-02 0.000E+00

     total cpu time spent up to now is        0.4 secs

     total energy              =     -33.37603739 Ry
     Harris-Foulkes estimate   =     -33.22901484 Ry
     estimated scf accuracy    <       8.39948685 Ry

     iteration #  6     ecut=    30.00 Ry     beta=0.70
     Davidson diagonalization with overlap
     ethr =  1.00E-02,  avg # of iterations =  1.0

     negative rho (up, down):  1.331E-02 0.000E+00

     total cpu time spent up to now is        0.5 secs

     total energy              =     -33.00509629 Ry
     Harris-Foulkes estimate   =     -33.38341881 Ry
     estimated scf accuracy    <       9.35491112 Ry

     iteration #  7     ecut=    30.00 Ry     beta=0.70
     Davidson diagonalization with overlap
     ethr =  1.00E-02,  avg # of iterations =  1.0

     negative rho (up, down):  1.955E-02 0.000E+00

     total cpu time spent up to now is        0.5 secs

     total energy              =     -32.84526344 Ry
     Harris-Foulkes estimate   =     -33.05517689 Ry
     estimated scf accuracy    <       3.85376885 Ry

     iteration #  8     ecut=    30.00 Ry     beta=0.70
     Davidson diagonalization with overlap
     ethr =  1.00E-02,  avg # of iterations =  1.0

     negative rho (up, down):  7.953E-02 0.000E+00

     total cpu time spent up to now is        0.5 secs

     total energy              =     -32.52417268 Ry
     Harris-Foulkes estimate   =     -32.86412139 Ry
     estimated scf accuracy    <       2.87836233 Ry

     iteration #  9     ecut=    30.00 Ry     beta=0.70
     Davidson diagonalization with overlap
     ethr =  1.00E-02,  avg # of iterations =  1.0

     negative rho (up, down):  1.101E-01 0.000E+00

     total cpu time spent up to now is        0.6 secs

     total energy              =     -32.02035520 Ry
     Harris-Foulkes estimate   =     -32.53077142 Ry
     estimated scf accuracy    <       2.24792398 Ry

     iteration # 10     ecut=    30.00 Ry     beta=0.70
     Davidson diagonalization with overlap
     ethr =  1.00E-02,  avg # of iterations =  1.0

     negative rho (up, down):  8.922E-02 0.000E+00

     total cpu time spent up to now is        0.6 secs

     total energy              =     -32.32995159 Ry
     Harris-Foulkes estimate   =     -32.04002772 Ry
     estimated scf accuracy    <       1.35780975 Ry

     iteration # 11     ecut=    30.00 Ry     beta=0.70
     Davidson diagonalization with overlap
     ethr =  1.00E-02,  avg # of iterations =  1.0

     negative rho (up, down):  5.560E-02 0.000E+00

     total cpu time spent up to now is        0.6 secs

     total energy              =     -32.12396414 Ry
     Harris-Foulkes estimate   =     -32.33706139 Ry
     estimated scf accuracy    <       1.84637173 Ry

     iteration # 12     ecut=    30.00 Ry     beta=0.70
     Davidson diagonalization with overlap
     ethr =  1.00E-02,  avg # of iterations =  1.0

     negative rho (up, down):  4.392E-01 0.000E+00

     total cpu time spent up to now is        0.7 secs

     total energy              =     -32.20805810 Ry
     Harris-Foulkes estimate   =     -32.12695263 Ry
     estimated scf accuracy    <       1.50192373 Ry

     iteration # 13     ecut=    30.00 Ry     beta=0.70
     Davidson diagonalization with overlap
     ethr =  1.00E-02,  avg # of iterations =  1.0

     negative rho (up, down):  1.825E-01 0.000E+00

     total cpu time spent up to now is        0.7 secs

     total energy              =     -30.87778066 Ry
     Harris-Foulkes estimate   =     -32.22754732 Ry
     estimated scf accuracy    <       1.76420431 Ry

     iteration # 14     ecut=    30.00 Ry     beta=0.70
     Davidson diagonalization with overlap
     ethr =  1.00E-02,  avg # of iterations =  4.0

     negative rho (up, down):  1.043E-01 0.000E+00

     total cpu time spent up to now is        0.8 secs

     total energy              =     -32.46433771 Ry
     Harris-Foulkes estimate   =     -33.77471626 Ry
     estimated scf accuracy    <       3.70436513 Ry

     iteration # 15     ecut=    30.00 Ry     beta=0.70
     Davidson diagonalization with overlap
     ethr =  1.00E-02,  avg # of iterations =  3.0

     negative rho (up, down):  3.007E-02 0.000E+00

     total cpu time spent up to now is        0.8 secs

     total energy              =     -32.20880277 Ry
     Harris-Foulkes estimate   =     -32.52154767 Ry
     estimated scf accuracy    <       1.72083551 Ry

     iteration # 16     ecut=    30.00 Ry     beta=0.70
     Davidson diagonalization with overlap
     ethr =  1.00E-02,  avg # of iterations =  1.0

     negative rho (up, down):  1.249E-04 0.000E+00

     total cpu time spent up to now is        0.8 secs

     total energy              =     -32.03744414 Ry
     Harris-Foulkes estimate   =     -32.20389388 Ry
     estimated scf accuracy    <       1.28429938 Ry

     iteration # 17     ecut=    30.00 Ry     beta=0.70
     Davidson diagonalization with overlap
     ethr =  1.00E-02,  avg # of iterations =  1.0

     negative rho (up, down):  1.044E-03 0.000E+00

     total cpu time spent up to now is        0.9 secs

     total energy              =     -32.02417755 Ry
     Harris-Foulkes estimate   =     -32.03853875 Ry
     estimated scf accuracy    <       1.04516281 Ry

     iteration # 18     ecut=    30.00 Ry     beta=0.70
     Davidson diagonalization with overlap
     ethr =  1.00E-02,  avg # of iterations =  1.0

     negative rho (up, down):  2.126E-03 0.000E+00

     total cpu time spent up to now is        0.9 secs

     total energy              =     -31.95529743 Ry
     Harris-Foulkes estimate   =     -32.02432203 Ry
     estimated scf accuracy    <       1.01762395 Ry

     iteration # 19     ecut=    30.00 Ry     beta=0.70
     Davidson diagonalization with overlap
     ethr =  1.00E-02,  avg # of iterations =  1.0

     negative rho (up, down):  4.437E-04 0.000E+00

     total cpu time spent up to now is        0.9 secs

     total energy              =     -31.94690337 Ry
     Harris-Foulkes estimate   =     -31.95764638 Ry
     estimated scf accuracy    <       0.59114972 Ry

     iteration # 20     ecut=    30.00 Ry     beta=0.70
     Davidson diagonalization with overlap
     ethr =  7.39E-03,  avg # of iterations =  1.0

     negative rho (up, down):  4.280E-04 0.000E+00

     total cpu time spent up to now is        1.0 secs

     total energy              =     -31.89553603 Ry
     Harris-Foulkes estimate   =     -31.94904985 Ry
     estimated scf accuracy    <       0.19356790 Ry

     iteration # 21     ecut=    30.00 Ry     beta=0.70
     Davidson diagonalization with overlap
     ethr =  2.42E-03,  avg # of iterations =  1.0

     negative rho (up, down):  6.712E-04 0.000E+00

     total cpu time spent up to now is        1.0 secs

     total energy              =     -32.06461932 Ry
     Harris-Foulkes estimate   =     -32.07430776 Ry
     estimated scf accuracy    <       1.37398585 Ry

     iteration # 22     ecut=    30.00 Ry     beta=0.70
     Davidson diagonalization with overlap
     ethr =  2.42E-03,  avg # of iterations =  1.0

     negative rho (up, down):  9.478E-04 0.000E+00

     total cpu time spent up to now is        1.0 secs

     total energy              =     -31.93211322 Ry
     Harris-Foulkes estimate   =     -32.06470599 Ry
     estimated scf accuracy    <       1.36053834 Ry

     iteration # 23     ecut=    30.00 Ry     beta=0.70
     Davidson diagonalization with overlap
     ethr =  2.42E-03,  avg # of iterations =  1.0

     negative rho (up, down):  2.883E-04 0.000E+00

     total cpu time spent up to now is        1.1 secs

     total energy              =     -31.94558877 Ry
     Harris-Foulkes estimate   =     -31.94618377 Ry
     estimated scf accuracy    <       0.00322025 Ry

     iteration # 24     ecut=    30.00 Ry     beta=0.70
     Davidson diagonalization with overlap
     ethr =  4.03E-05,  avg # of iterations =  5.0

     negative rho (up, down):  4.868E-04 0.000E+00

     total cpu time spent up to now is        1.1 secs

     total energy              =     -31.94587309 Ry
     Harris-Foulkes estimate   =     -31.94757951 Ry
     estimated scf accuracy    <       0.11773087 Ry

     iteration # 25     ecut=    30.00 Ry     beta=0.70
     Davidson diagonalization with overlap
     ethr =  4.03E-05,  avg # of iterations =  1.0

     negative rho (up, down):  3.756E-04 0.000E+00

     total cpu time spent up to now is        1.1 secs

     total energy              =     -31.95138930 Ry
     Harris-Foulkes estimate   =     -31.94639163 Ry
     estimated scf accuracy    <       0.01927670 Ry

     iteration # 26     ecut=    30.00 Ry     beta=0.70
     Davidson diagonalization with overlap
     ethr =  4.03E-05,  avg # of iterations =  1.0

     negative rho (up, down):  6.083E-05 0.000E+00

     total cpu time spent up to now is        1.1 secs

     total energy              =     -31.95067334 Ry
     Harris-Foulkes estimate   =     -31.97210892 Ry
     estimated scf accuracy    <       1.51390234 Ry

     iteration # 27     ecut=    30.00 Ry     beta=0.70
     Davidson diagonalization with overlap
     ethr =  4.03E-05,  avg # of iterations =  1.0

     negative rho (up, down):  5.737E-06 0.000E+00

     total cpu time spent up to now is        1.2 secs

     total energy              =     -31.94623284 Ry
     Harris-Foulkes estimate   =     -31.95390512 Ry
     estimated scf accuracy    <       0.60883978 Ry

     iteration # 28     ecut=    30.00 Ry     beta=0.70
     Davidson diagonalization with overlap
     ethr =  4.03E-05,  avg # of iterations =  1.0

     negative rho (up, down):  2.618E-06 0.000E+00

     total cpu time spent up to now is        1.2 secs

     total energy              =     -31.94571343 Ry
     Harris-Foulkes estimate   =     -31.94806825 Ry
     estimated scf accuracy    <       0.15698268 Ry

     iteration # 29     ecut=    30.00 Ry     beta=0.70
     Davidson diagonalization with overlap
     ethr =  4.03E-05,  avg # of iterations =  1.0

     negative rho (up, down):  3.756E-06 0.000E+00

     total cpu time spent up to now is        1.2 secs

     total energy              =     -31.94627663 Ry
     Harris-Foulkes estimate   =     -31.94642442 Ry
     estimated scf accuracy    <       0.02405612 Ry

     iteration # 30     ecut=    30.00 Ry     beta=0.70
     Davidson diagonalization with overlap
     ethr =  4.03E-05,  avg # of iterations =  1.0

     total cpu time spent up to now is        1.3 secs

     total energy              =     -31.94578184 Ry
     Harris-Foulkes estimate   =     -31.94629446 Ry
     estimated scf accuracy    <       0.01382294 Ry

     iteration # 31     ecut=    30.00 Ry     beta=0.70
     Davidson diagonalization with overlap
     ethr =  4.03E-05,  avg # of iterations =  1.0

     total cpu time spent up to now is        1.3 secs

     total energy              =     -31.94614111 Ry
     Harris-Foulkes estimate   =     -31.94615906 Ry
     estimated scf accuracy    <       0.00297683 Ry

     iteration # 32     ecut=    30.00 Ry     beta=0.70
     Davidson diagonalization with overlap
     ethr =  3.72E-05,  avg # of iterations =  1.0

     total cpu time spent up to now is        1.3 secs

     total energy              =     -31.94607004 Ry
     Harris-Foulkes estimate   =     -31.94614313 Ry
     estimated scf accuracy    <       0.00179513 Ry

     iteration # 33     ecut=    30.00 Ry     beta=0.70
     Davidson diagonalization with overlap
     ethr =  2.24E-05,  avg # of iterations =  1.0

     total cpu time spent up to now is        1.4 secs

     total energy              =     -31.94610938 Ry
     Harris-Foulkes estimate   =     -31.94612424 Ry
     estimated scf accuracy    <       0.00052119 Ry

     iteration # 34     ecut=    30.00 Ry     beta=0.70
     Davidson diagonalization with overlap
     ethr =  6.51E-06,  avg # of iterations =  1.0

     total cpu time spent up to now is        1.4 secs

     total energy              =     -31.94611842 Ry
     Harris-Foulkes estimate   =     -31.94611859 Ry
     estimated scf accuracy    <       0.00001590 Ry

     iteration # 35     ecut=    30.00 Ry     beta=0.70
     Davidson diagonalization with overlap
     ethr =  1.99E-07,  avg # of iterations =  1.0

     total cpu time spent up to now is        1.4 secs

     total energy              =     -31.94611847 Ry
     Harris-Foulkes estimate   =     -31.94611852 Ry
     estimated scf accuracy    <       0.00000184 Ry

     iteration # 36     ecut=    30.00 Ry     beta=0.70
     Davidson diagonalization with overlap
     ethr =  2.30E-08,  avg # of iterations =  1.0

     total cpu time spent up to now is        1.5 secs

     total energy              =     -31.94611852 Ry
     Harris-Foulkes estimate   =     -31.94611851 Ry
     estimated scf accuracy    <       0.00000007 Ry

     iteration # 37     ecut=    30.00 Ry     beta=0.70
     Davidson diagonalization with overlap
     ethr =  9.05E-10,  avg # of iterations =  1.0

     total cpu time spent up to now is        1.5 secs

     total energy              =     -31.94611851 Ry
     Harris-Foulkes estimate   =     -31.94611852 Ry
     estimated scf accuracy    <       0.00000002 Ry

     iteration # 38     ecut=    30.00 Ry     beta=0.70
     Davidson diagonalization with overlap
     ethr =  2.15E-10,  avg # of iterations =  1.0

     total cpu time spent up to now is        1.5 secs

     End of self-consistent calculation

          k = 0.0000 0.0000 0.0000 ( 22119 PWs)   bands (ev):

   -24.7758 -10.6247  -7.0370  -7.0366  -6.8968  -0.7012   0.3543   0.8329

     the Fermi energy is    -6.8662 ev

!    total energy              =     -31.94611850 Ry
     Harris-Foulkes estimate   =     -31.94611851 Ry
     estimated scf accuracy    <          6.5E-10 Ry

     convergence has been achieved in  38 iterations

     Forces acting on atoms (Ry/au):

     atom    1 type  1   force =    -0.00096823    0.00053449   -0.00005163
     atom    2 type  1   force =    -0.01161336    0.00564822    0.00672848
     atom    3 type  2   force =     0.01258160   -0.00618271   -0.00667685

     Total force =     0.021316     Total SCF correction =     0.000024

     Molecular Dynamics Calculation

     Starting temperature  =  1000.00 K

     temperature is controlled by Andersen thermostat
     Collision frequency = 1.0000/timestep
     mass H                =     1.01
     mass O                =    16.00
     Time step             =   100.00 a.u.,  4.8378 femto-seconds

     Entering Dynamics:    iteration =     1
                           time      =   0.0048 pico-seconds


     Andersen thermostat:    3 collisions

ATOMIC_POSITIONS (bohr)
H        7.906852754  10.442565352  13.445564018
H       16.313224511   8.262042530   0.476777639
O       17.838969026   7.122293507  19.406324940


     kinetic energy (Ekin) =     0.03258819 Ry
     temperature           =  1715.08743887 K 
     Ekin + Etot (const)   =   -31.91353031 Ry

     Linear momentum :   -0.0000000000    0.0000000000    0.0000000000

     Writing output data file pwscf.save
     Check: negative starting charge=   -0.347918
     NEW-OLD atomic charge density approx. for the potential
     Check: negative starting charge=   -0.348512

     negative rho (up, down):  1.337E-01 0.000E+00

     total cpu time spent up to now is        1.8 secs

     per-process dynamical memory:    20.4 Mb

     Self-consistent Calculation

     iteration #  1     ecut=    30.00 Ry     beta=0.70
     Davidson diagonalization with overlap
     c_bands:  1 eigenvalues not converged
     ethr =  1.00E-06,  avg # of iterations = 20.0

     negative rho (up, down):  3.387E-02 0.000E+00

     total cpu time spent up to now is        1.9 secs

     total energy              =     -31.35846149 Ry
     Harris-Foulkes estimate   =     -31.87120167 Ry
     estimated scf accuracy    <       0.68555882 Ry

     iteration #  2     ecut=    30.00 Ry     beta=0.70
     Davidson diagonalization with overlap
     ethr =  8.57E-03,  avg # of iterations =  3.0

     negative rho (up, down):  2.628E-02 0.000E+00

     total cpu time spent up to now is        2.0 secs

     total energy              =     -32.12953270 Ry
     Harris-Foulkes estimate   =     -33.28525148 Ry
     estimated scf accuracy    <       3.36540316 Ry

     iteration #  3     ecut=    30.00 Ry     beta=0.70
     Davidson diagonalization with overlap
     ethr =  8.57E-03,  avg # of iterations =  2.0

     negative rho (up, down):  2.313E-02 0.000E+00

     total cpu time spent up to now is        2.0 secs

     total energy              =     -32.06579919 Ry
     Harris-Foulkes estimate   =     -32.23716178 Ry
     estimated scf accuracy    <       1.34363898 Ry

     iteration #  4     ecut=    30.00 Ry     beta=0.70
     Davidson diagonalization with overlap
     ethr =  8.57E-03,  avg # of iterations =  1.0

     negative rho (up, down):  1.474E-02 0.000E+00

     total cpu time spent up to now is        2.0 secs

     total energy              =     -31.65852031 Ry
     Harris-Foulkes estimate   =     -32.05858496 Ry
     estimated scf accuracy    <       1.11650362 Ry

     iteration #  5     ecut=    30.00 Ry     beta=0.70
     Davidson diagonalization with overlap
     ethr =  8.57E-03,  avg # of iterations =  2.0

     negative rho (up, down):  5.627E-03 0.000E+00

     total cpu time spent up to now is        2.0 secs

     total energy              =     -32.18451668 Ry
     Harris-Foulkes estimate   =     -32.24930526 Ry
     estimated scf accuracy    <       1.71540337 Ry

     iteration #  6     ecut=    30.00 Ry     beta=0.70
     Davidson diagonalization with overlap
     ethr =  8.57E-03,  avg # of iterations =  1.0

     negative rho (up, down):  2.163E-03 0.000E+00

     total cpu time spent up to now is        2.1 secs

     total energy              =     -31.94374442 Ry
     Harris-Foulkes estimate   =     -32.18516854 Ry
     estimated scf accuracy    <       1.59676548 Ry

     iteration #  7     ecut=    30.00 Ry     beta=0.70
     Davidson diagonalization with overlap
     ethr =  8.57E-03,  avg # of iterations =  1.0

     negative rho (up, down):  1.267E-03 0.000E+00

     total cpu time spent up to now is        2.1 secs

     total energy              =     -31.90818029 Ry
     Harris-Foulkes estimate   =     -31.94501342 Ry
     estimated scf accuracy    <       0.89466455 Ry

     iteration #  8     ecut=    30.00 Ry     beta=0.70
     Davidson diagonalization with overlap
     ethr =  8.57E-03,  avg # of iterations =  1.0

     negative rho (up, down):  1.820E-04 0.000E+00

     total cpu time spent up to now is        2.2 secs

     total energy              =     -31.93433572 Ry
     Harris-Foulkes estimate   =     -31.93799753 Ry
     estimated scf accuracy    <       0.26975944 Ry

     iteration #  9     ecut=    30.00 Ry     beta=0.70
     Davidson diagonalization with overlap
     ethr =  3.37E-03,  avg # of iterations =  1.0

     negative rho (up, down):  1.927E-05 0.000E+00

     total cpu time spent up to now is        2.2 secs

     total energy              =     -31.92433685 Ry
     Harris-Foulkes estimate   =     -31.93512641 Ry
     estimated scf accuracy    <       0.08887058 Ry

     iteration # 10     ecut=    30.00 Ry     beta=0.70
     Davidson diagonalization with overlap
     ethr =  1.11E-03,  avg # of iterations =  1.0

     negative rho (up, down):  1.111E-05 0.000E+00

     total cpu time spent up to now is        2.2 secs

     total energy              =     -31.95411675 Ry
     Harris-Foulkes estimate   =     -31.95061955 Ry
     estimated scf accuracy    <       1.16251932 Ry

     iteration # 11     ecut=    30.00 Ry     beta=0.70
     Davidson diagonalization with overlap
     ethr =  1.11E-03,  avg # of iterations =  1.0

     negative rho (up, down):  1.279E-06 0.000E+00

     total cpu time spent up to now is        2.3 secs

     total energy              =     -31.94277857 Ry
     Harris-Foulkes estimate   =     -31.95424461 Ry
     estimated scf accuracy    <       1.32852438 Ry

     iteration # 12     ecut=    30.00 Ry     beta=0.70
     Davidson diagonalization with overlap
     ethr =  1.11E-03,  avg # of iterations =  1.0

     negative rho (up, down):  1.425E-07 0.000E+00

     total cpu time spent up to now is        2.3 secs

     total energy              =     -31.92100131 Ry
     Harris-Foulkes estimate   =     -31.94400051 Ry
     estimated scf accuracy    <       0.77334004 Ry

     iteration # 13     ecut=    30.00 Ry     beta=0.70
     Davidson diagonalization with overlap
     ethr =  1.11E-03,  avg # of iterations =  1.0

     negative rho (up, down):  9.441E-06 0.000E+00

     total cpu time spent up to now is        2.3 secs

     total energy              =     -31.93581641 Ry
     Harris-Foulkes estimate   =     -31.93410816 Ry
     estimated scf accuracy    <       0.02036459 Ry

     iteration # 14     ecut=    30.00 Ry     beta=0.70
     Davidson diagonalization with overlap
     ethr =  2.55E-04,  avg # of iterations =  1.0

     negative rho (up, down):  2.296E-06 0.000E+00

     total cpu time spent up to now is        2.4 secs

     total energy              =     -31.93977708 Ry
     Harris-Foulkes estimate   =     -31.93811302 Ry
     estimated scf accuracy    <       0.27439197 Ry

     iteration # 15     ecut=    30.00 Ry     beta=0.70
     Davidson diagonalization with overlap
     ethr =  2.55E-04,  avg # of iterations =  1.0

     negative rho (up, down):  7.022E-07 0.000E+00

     total cpu time spent up to now is        2.4 secs

     total energy              =     -31.93218464 Ry
     Harris-Foulkes estimate   =     -31.93990863 Ry
     estimated scf accuracy    <       0.36766682 Ry

     iteration # 16     ecut=    30.00 Ry     beta=0.70
     Davidson diagonalization with overlap
     ethr =  2.55E-04,  avg # of iterations =  1.0

     negative rho (up, down):  2.350E-07 0.000E+00

     total cpu time spent up to now is        2.4 secs

     total energy              =     -31.93431157 Ry
     Harris-Foulkes estimate   =     -31.93448748 Ry
     estimated scf accuracy    <       0.04699361 Ry

     iteration # 17     ecut=    30.00 Ry     beta=0.70
     Davidson diagonalization with overlap
     ethr =  2.55E-04,  avg # of iterations =  1.0

     negative rho (up, down):  1.007E-06 0.000E+00

     total cpu time spent up to now is        2.4 secs

     total energy              =     -31.93419867 Ry
     Harris-Foulkes estimate   =     -31.93432384 Ry
     estimated scf accuracy    <       0.03537839 Ry

     iteration # 18     ecut=    30.00 Ry     beta=0.70
     Davidson diagonalization with overlap
     ethr =  2.55E-04,  avg # of iterations =  1.0

     negative rho (up, down):  1.398E-06 0.000E+00

     total cpu time spent up to now is        2.5 secs

     total energy              =     -31.93417039 Ry
     Harris-Foulkes estimate   =     -31.93420635 Ry
     estimated scf accuracy    <       0.02707204 Ry

     iteration # 19     ecut=    30.00 Ry     beta=0.70
     Davidson diagonalization with overlap
     ethr =  2.55E-04,  avg # of iterations =  1.0

     negative rho (up, down):  1.133E-06 0.000E+00

     total cpu time spent up to now is        2.5 secs

     total energy              =     -31.93392511 Ry
     Harris-Foulkes estimate   =     -31.93417130 Ry
     estimated scf accuracy    <       0.02461988 Ry

     iteration # 20     ecut=    30.00 Ry     beta=0.70
     Davidson diagonalization with overlap
     ethr =  2.55E-04,  avg # of iterations =  1.0

     negative rho (up, down):  1.134E-07 0.000E+00

     total cpu time spent up to now is        2.5 secs

     total energy              =     -31.93399676 Ry
     Harris-Foulkes estimate   =     -31.93396940 Ry
     estimated scf accuracy    <       0.00988696 Ry

     iteration # 21     ecut=    30.00 Ry     beta=0.70
     Davidson diagonalization with overlap
     ethr =  1.24E-04,  avg # of iterations =  1.0

     total cpu time spent up to now is        2.6 secs

     total energy              =     -31.93363992 Ry
     Harris-Foulkes estimate   =     -31.93399808 Ry
     estimated scf accuracy    <       0.01190863 Ry

     iteration # 22     ecut=    30.00 Ry     beta=0.70
     Davidson diagonalization with overlap
     ethr =  1.24E-04,  avg # of iterations =  1.0

     total cpu time spent up to now is        2.6 secs

     total energy              =     -31.93384110 Ry
     Harris-Foulkes estimate   =     -31.93384581 Ry
     estimated scf accuracy    <       0.00030107 Ry

     iteration # 23     ecut=    30.00 Ry     beta=0.70
     Davidson diagonalization with overlap
     ethr =  3.76E-06,  avg # of iterations = 18.0

     total cpu time spent up to now is        2.7 secs

     total energy              =     -31.93383999 Ry
     Harris-Foulkes estimate   =     -31.93384245 Ry
     estimated scf accuracy    <       0.00005125 Ry

     iteration # 24     ecut=    30.00 Ry     beta=0.70
     Davidson diagonalization with overlap
     ethr =  6.41E-07,  avg # of iterations =  1.0

     total cpu time spent up to now is        2.7 secs

     total energy              =     -31.93384103 Ry
     Harris-Foulkes estimate   =     -31.93384126 Ry
     estimated scf accuracy    <       0.00000778 Ry

     iteration # 25     ecut=    30.00 Ry     beta=0.70
     Davidson diagonalization with overlap
     ethr =  9.72E-08,  avg # of iterations =  1.0

     total cpu time spent up to now is        2.7 secs

     total energy              =     -31.93384115 Ry
     Harris-Foulkes estimate   =     -31.93384112 Ry
     estimated scf accuracy    <       0.00000005 Ry

     iteration # 26     ecut=    30.00 Ry     beta=0.70
     Davidson diagonalization with overlap
     ethr =  6.15E-10,  avg # of iterations =  1.0

     total cpu time spent up to now is        2.7 secs

     End of self-consistent calculation

          k = 0.0000 0.0000 0.0000 ( 22119 PWs)   bands (ev):

   -24.3665 -10.3216  -6.9966  -6.9964  -6.8582  -1.0059   0.2162   0.8286

     the Fermi energy is    -6.8265 ev

!    total energy              =     -31.93384111 Ry
     Harris-Foulkes estimate   =     -31.93384115 Ry
     estimated scf accuracy    <          2.0E-10 Ry

     convergence has been achieved in  26 iterations

     Forces acting on atoms (Ry/au):

     atom    1 type  1   force =    -0.00044862    0.00066214    0.00027590
     atom    2 type  1   force =     0.08847984   -0.06539324   -0.06183701
     atom    3 type  2   force =    -0.08803122    0.06473109    0.06156111

     Total force =     0.177929     Total SCF correction =     0.000032

     Entering Dynamics:    iteration =     2
                           time      =   0.0097 pico-seconds


     Andersen thermostat:    3 collisions

ATOMIC_POSITIONS (bohr)
H        7.560386766  10.636292097  13.527155116
H       17.200399673   7.709976751  -0.220154349
O       17.804836760   7.144913658  19.445168334


     kinetic energy (Ekin) =     0.02495541 Ry
     temperature           =  1313.38119337 K 
     Ekin + Etot (const)   =   -31.90888570 Ry
     Message from routine dynamics:
     Total linear momentum <> 0

     Linear momentum :    0.0512189973    0.2342783653   -0.3156395289

     Writing output data file pwscf.save

     first order wave-functions extrapolation
     Check: negative starting charge=   -0.348512
     first order charge density extrapolation
     Check: negative starting charge=   -0.352950

     negative rho (up, down):  2.996E-01 0.000E+00

     total cpu time spent up to now is        3.1 secs

     per-process dynamical memory:    20.4 Mb

     Self-consistent Calculation

     iteration #  1     ecut=    30.00 Ry     beta=0.70
     Davidson diagonalization with overlap
     ethr =  1.00E-06,  avg # of iterations = 18.0

     negative rho (up, down):  8.219E-02 0.000E+00

     total cpu time spent up to now is        3.2 secs

     total energy              =     -28.43509751 Ry
     Harris-Foulkes estimate   =     -30.10429400 Ry
     estimated scf accuracy    <       2.07736057 Ry

     iteration #  2     ecut=    30.00 Ry     beta=0.70
     Davidson diagonalization with overlap
     ethr =  1.00E-02,  avg # of iterations =  4.0

     negative rho (up, down):  2.287E-02 0.000E+00

     total cpu time spent up to now is        3.2 secs

     total energy              =     -26.51846259 Ry
     Harris-Foulkes estimate   =     -32.62099966 Ry
     estimated scf accuracy    <      21.28038503 Ry

     iteration #  3     ecut=    30.00 Ry     beta=0.70
     Davidson diagonalization with overlap
     ethr =  1.00E-02,  avg # of iterations =  8.0

     negative rho (up, down):  1.797E-02 0.000E+00

     total cpu time spent up to now is        3.3 secs

     total energy              =     -29.45653546 Ry
     Harris-Foulkes estimate   =     -29.60421946 Ry
     estimated scf accuracy    <       0.70724699 Ry

     iteration #  4     ecut=    30.00 Ry     beta=0.70
     Davidson diagonalization with overlap
     ethr =  8.84E-03,  avg # of iterations =  1.0

     negative rho (up, down):  2.750E-03 0.000E+00

     total cpu time spent up to now is        3.3 secs

     total energy              =     -29.54123852 Ry
     Harris-Foulkes estimate   =     -29.68109255 Ry
     estimated scf accuracy    <       0.99540664 Ry

     iteration #  5     ecut=    30.00 Ry     beta=0.70
     Davidson diagonalization with overlap
     ethr =  8.84E-03,  avg # of iterations =  1.0

     negative rho (up, down):  7.097E-05 0.000E+00

     total cpu time spent up to now is        3.3 secs

     total energy              =     -29.51162764 Ry
     Harris-Foulkes estimate   =     -29.59288256 Ry
     estimated scf accuracy    <       1.10365194 Ry

     iteration #  6     ecut=    30.00 Ry     beta=0.70
     Davidson diagonalization with overlap
     ethr =  8.84E-03,  avg # of iterations =  1.0

     total cpu time spent up to now is        3.3 secs

     total energy              =     -29.54600614 Ry
     Harris-Foulkes estimate   =     -29.60596043 Ry
     estimated scf accuracy    <       0.85914978 Ry

     iteration #  7     ecut=    30.00 Ry     beta=0.70
     Davidson diagonalization with overlap
     ethr =  8.84E-03,  avg # of iterations =  1.0

     total cpu time spent up to now is        3.4 secs

     total energy              =     -29.56709483 Ry
     Harris-Foulkes estimate   =     -29.58199607 Ry
     estimated scf accuracy    <       0.53298596 Ry

     iteration #  8     ecut=    30.00 Ry     beta=0.70
     Davidson diagonalization with overlap
     ethr =  6.66E-03,  avg # of iterations =  1.0

     negative rho (up, down):  4.504E-05 0.000E+00

     total cpu time spent up to now is        3.4 secs

     total energy              =     -29.57489231 Ry
     Harris-Foulkes estimate   =     -29.57564614 Ry
     estimated scf accuracy    <       0.01130345 Ry

     iteration #  9     ecut=    30.00 Ry     beta=0.70
     Davidson diagonalization with overlap
     ethr =  1.41E-04,  avg # of iterations =  4.0

     negative rho (up, down):  3.196E-04 0.000E+00

     total cpu time spent up to now is        3.4 secs

     total energy              =     -29.57415338 Ry
     Harris-Foulkes estimate   =     -29.57610873 Ry
     estimated scf accuracy    <       0.04258087 Ry

     iteration # 10     ecut=    30.00 Ry     beta=0.70
     Davidson diagonalization with overlap
     ethr =  1.41E-04,  avg # of iterations =  1.0

     negative rho (up, down):  1.689E-04 0.000E+00

     total cpu time spent up to now is        3.5 secs

     total energy              =     -29.57566610 Ry
     Harris-Foulkes estimate   =     -29.57596741 Ry
     estimated scf accuracy    <       0.02867473 Ry

     iteration # 11     ecut=    30.00 Ry     beta=0.70
     Davidson diagonalization with overlap
     ethr =  1.41E-04,  avg # of iterations =  1.0

     total cpu time spent up to now is        3.5 secs

     total energy              =     -29.57538049 Ry
     Harris-Foulkes estimate   =     -29.57572392 Ry
     estimated scf accuracy    <       0.01070051 Ry

     iteration # 12     ecut=    30.00 Ry     beta=0.70
     Davidson diagonalization with overlap
     ethr =  1.34E-04,  avg # of iterations =  1.0

     total cpu time spent up to now is        3.5 secs

     total energy              =     -29.57557408 Ry
     Harris-Foulkes estimate   =     -29.57559522 Ry
     estimated scf accuracy    <       0.00072346 Ry

     iteration # 13     ecut=    30.00 Ry     beta=0.70
     Davidson diagonalization with overlap
     ethr =  9.04E-06,  avg # of iterations =  1.0

     total cpu time spent up to now is        3.6 secs

     total energy              =     -29.57558555 Ry
     Harris-Foulkes estimate   =     -29.57558630 Ry
     estimated scf accuracy    <       0.00001810 Ry

     iteration # 14     ecut=    30.00 Ry     beta=0.70
     Davidson diagonalization with overlap
     ethr =  2.26E-07,  avg # of iterations =  8.0

     total cpu time spent up to now is        3.6 secs

     total energy              =     -29.57558606 Ry
     Harris-Foulkes estimate   =     -29.57558597 Ry
     estimated scf accuracy    <       0.00000203 Ry

     iteration # 15     ecut=    30.00 Ry     beta=0.70
     Davidson diagonalization with overlap
     ethr =  2.53E-08,  avg # of iterations =  1.0

     total cpu time spent up to now is        3.7 secs

     total energy              =     -29.57558594 Ry
     Harris-Foulkes estimate   =     -29.57558606 Ry
     estimated scf accuracy    <       0.00000386 Ry

     iteration # 16     ecut=    30.00 Ry     beta=0.70
     Davidson diagonalization with overlap
     ethr =  2.53E-08,  avg # of iterations =  1.0

     total cpu time spent up to now is        3.7 secs

     End of self-consistent calculation

          k = 0.0000 0.0000 0.0000 ( 22119 PWs)   bands (ev):

   -30.7474 -11.9161  -7.4238  -7.4236  -7.2687  -0.3282   0.6076   0.7951

     the Fermi energy is    -7.2480 ev

!    total energy              =     -29.57558599 Ry
     Harris-Foulkes estimate   =     -29.57558599 Ry
     estimated scf accuracy    <          6.7E-11 Ry

     convergence has been achieved in  16 iterations

     Forces acting on atoms (Ry/au):

     atom    1 type  1   force =    -0.00072738    0.00050830    0.00027341
     atom    2 type  1   force =    -6.44840927    6.02863004    3.57181208
     atom    3 type  2   force =     6.44913665   -6.02913834   -3.57208549

     Total force =    13.467957     Total SCF correction =     0.000025

     Entering Dynamics:    iteration =     3
                           time      =   0.0145 pico-seconds


     Andersen thermostat:    3 collisions

ATOMIC_POSITIONS (bohr)
H        7.843173390  10.281994707  13.392320590
H      -52.987513906  73.052641895  38.381028109
O       22.217597899   3.042522944  17.016980121


     kinetic energy (Ekin) =   130.41434270 Ry
     temperature           = ************** K 
     Ekin + Etot (const)   =   100.83875671 Ry
     Message from routine dynamics:
     Total linear momentum <> 0

     Linear momentum :   -0.0731201884    0.0119830994    0.1417737262

     Writing output data file pwscf.save

     second order wave-functions extrapolation
     Check: negative starting charge=   -0.352950
     second order charge density extrapolation
     Check: negative starting charge=   -0.352000

     negative rho (up, down):  5.099E+01 0.000E+00

     total cpu time spent up to now is        4.1 secs

     per-process dynamical memory:    20.4 Mb

     Self-consistent Calculation

     iteration #  1     ecut=    30.00 Ry     beta=0.70
     Davidson diagonalization with overlap
     c_bands:  5 eigenvalues not converged
     ethr =  1.00E-06,  avg # of iterations = 20.0

     negative rho (up, down):  1.498E+01 0.000E+00

     total cpu time spent up to now is        4.3 secs

     total energy              =     -26.91127710 Ry
     Harris-Foulkes estimate   =  -13280.96292571 Ry
     estimated scf accuracy    <    1167.76164103 Ry

     iteration #  2     ecut=    30.00 Ry     beta=0.70
     Davidson diagonalization with overlap
     ethr =  1.00E-02,  avg # of iterations = 19.0

     negative rho (up, down):  4.628E-03 0.000E+00

     total cpu time spent up to now is        4.3 secs

     total energy              =     157.75318666 Ry
     Harris-Foulkes estimate   =   -3089.59711191 Ry
     estimated scf accuracy    <     167.96771778 Ry

     iteration #  3     ecut=    30.00 Ry     beta=0.70
     Davidson diagonalization with overlap
     ethr =  1.00E-02,  avg # of iterations = 15.0

     negative rho (up, down):  3.043E-03 0.000E+00

     total cpu time spent up to now is        4.4 secs

     total energy              =      40.48927052 Ry
     Harris-Foulkes estimate   =    -292.99388614 Ry
     estimated scf accuracy    <      41.50298143 Ry

     iteration #  4     ecut=    30.00 Ry     beta=0.70
     Davidson diagonalization with overlap
     ethr =  1.00E-02,  avg # of iterations =  7.0

     negative rho (up, down):  1.897E-01 0.000E+00

     total cpu time spent up to now is        4.5 secs

     total energy              =     -50.55791959 Ry
     Harris-Foulkes estimate   =     -73.04907605 Ry
     estimated scf accuracy    <      55.87154533 Ry

     iteration #  5     ecut=    30.00 Ry     beta=0.70
     Davidson diagonalization with overlap
     ethr =  1.00E-02,  avg # of iterations =  8.0

     negative rho (up, down):  3.426E-01 0.000E+00

     total cpu time spent up to now is        4.5 secs

     total energy              =      10.57289689 Ry
     Harris-Foulkes estimate   =    -328.61495443 Ry
     estimated scf accuracy    <      20.24807211 Ry

     iteration #  6     ecut=    30.00 Ry     beta=0.70
     Davidson diagonalization with overlap
     ethr =  1.00E-02,  avg # of iterations =  7.0

     negative rho (up, down):  1.074E-01 0.000E+00

     total cpu time spent up to now is        4.6 secs

     total energy              =      58.70916867 Ry
     Harris-Foulkes estimate   =    -275.34900048 Ry
     estimated scf accuracy    <      47.71828539 Ry

     iteration #  7     ecut=    30.00 Ry     beta=0.70
     Davidson diagonalization with overlap
     ethr =  1.00E-02,  avg # of iterations =  6.0

     negative rho (up, down):  2.816E-02 0.000E+00

     total cpu time spent up to now is        4.6 secs

     total energy              =     -16.40044817 Ry
     Harris-Foulkes estimate   =   -1731.27567812 Ry
     estimated scf accuracy    <      45.21463888 Ry

     iteration #  8     ecut=    30.00 Ry     beta=0.70
     Davidson diagonalization with overlap
     ethr =  1.00E-02,  avg # of iterations =  8.0

     negative rho (up, down):  3.721E-02 0.000E+00

     total cpu time spent up to now is        4.7 secs

     total energy              =    -243.99412522 Ry
     Harris-Foulkes estimate   =    -772.74584365 Ry
     estimated scf accuracy    <       6.77220970 Ry

     iteration #  9     ecut=    30.00 Ry     beta=0.70
     Davidson diagonalization with overlap
     ethr =  1.00E-02,  avg # of iterations =  7.0

     negative rho (up, down):  1.094E-02 0.000E+00

     total cpu time spent up to now is        4.7 secs

     total energy              =      46.92538490 Ry
     Harris-Foulkes estimate   =   -1273.99645158 Ry
     estimated scf accuracy    <       9.13091692 Ry

     iteration # 10     ecut=    30.00 Ry     beta=0.70
     Davidson diagonalization with overlap
     ethr =  1.00E-02,  avg # of iterations =  6.0

     negative rho (up, down):  1.287E-02 0.000E+00

     total cpu time spent up to now is        4.7 secs

     total energy              =      -5.63610334 Ry
     Harris-Foulkes estimate   =     -51.42915646 Ry
     estimated scf accuracy    <       7.46141200 Ry

     iteration # 11     ecut=    30.00 Ry     beta=0.70
     Davidson diagonalization with overlap
     ethr =  1.00E-02,  avg # of iterations =  5.0

     negative rho (up, down):  7.396E-03 0.000E+00

     total cpu time spent up to now is        4.8 secs

     total energy              =     -37.19847350 Ry
     Harris-Foulkes estimate   =     -39.36871302 Ry
     estimated scf accuracy    <      13.32699280 Ry

     iteration # 12     ecut=    30.00 Ry     beta=0.70
     Davidson diagonalization with overlap
     ethr =  1.00E-02,  avg # of iterations =  1.0

     negative rho (up, down):  5.313E-01 0.000E+00

     total cpu time spent up to now is        4.8 secs

     total energy              =     -33.21779994 Ry
     Harris-Foulkes estimate   =     -37.20766195 Ry
     estimated scf accuracy    <      10.60166232 Ry

     iteration # 13     ecut=    30.00 Ry     beta=0.70
     Davidson diagonalization with overlap
     ethr =  1.00E-02,  avg # of iterations = 12.0

     negative rho (up, down):  6.371E-01 0.000E+00

     total cpu time spent up to now is        4.9 secs

     total energy              =   -1207.19486377 Ry
     Harris-Foulkes estimate   =   -2002.95695871 Ry
     estimated scf accuracy    <      66.55927200 Ry

     iteration # 14     ecut=    30.00 Ry     beta=0.70
     Davidson diagonalization with overlap
     ethr =  1.00E-02,  avg # of iterations =  6.0

     negative rho (up, down):  2.387E-04 0.000E+00

     total cpu time spent up to now is        4.9 secs

     total energy              =     128.19085499 Ry
     Harris-Foulkes estimate   =   -2976.56703687 Ry
     estimated scf accuracy    <      72.21722243 Ry

     iteration # 15     ecut=    30.00 Ry     beta=0.70
     Davidson diagonalization with overlap
     ethr =  1.00E-02,  avg # of iterations =  8.0

     negative rho (up, down):  9.463E-06 0.000E+00

     total cpu time spent up to now is        5.0 secs

     total energy              =     -34.48185407 Ry
     Harris-Foulkes estimate   =     -36.26974887 Ry
     estimated scf accuracy    <      10.97698597 Ry

     iteration # 16     ecut=    30.00 Ry     beta=0.70
     Davidson diagonalization with overlap
     ethr =  1.00E-02,  avg # of iterations =  1.0

     negative rho (up, down):  2.138E-04 0.000E+00

     total cpu time spent up to now is        5.0 secs

     total energy              =     -32.61258743 Ry
     Harris-Foulkes estimate   =     -34.50931022 Ry
     estimated scf accuracy    <       8.12883034 Ry

     iteration # 17     ecut=    30.00 Ry     beta=0.70
     Davidson diagonalization with overlap
     ethr =  1.00E-02,  avg # of iterations =  5.0

     negative rho (up, down):  2.043E-03 0.000E+00

     total cpu time spent up to now is        5.1 secs

     total energy              =     -33.41513811 Ry
     Harris-Foulkes estimate   =     -34.58505330 Ry
     estimated scf accuracy    <       4.84083057 Ry

     iteration # 18     ecut=    30.00 Ry     beta=0.70
     Davidson diagonalization with overlap
     ethr =  1.00E-02,  avg # of iterations =  1.0

     negative rho (up, down):  4.918E-03 0.000E+00

     total cpu time spent up to now is        5.1 secs

     total energy              =     -33.41528602 Ry
     Harris-Foulkes estimate   =     -33.77690041 Ry
     estimated scf accuracy    <       4.22658922 Ry

     iteration # 19     ecut=    30.00 Ry     beta=0.70
     Davidson diagonalization with overlap
     ethr =  1.00E-02,  avg # of iterations =  1.0

     negative rho (up, down):  4.665E-03 0.000E+00

     total cpu time spent up to now is        5.1 secs

     total energy              =     -32.99176541 Ry
     Harris-Foulkes estimate   =     -33.41793236 Ry
     estimated scf accuracy    <       3.63349792 Ry

     iteration # 20     ecut=    30.00 Ry     beta=0.70
     Davidson diagonalization with overlap
     ethr =  1.00E-02,  avg # of iterations =  5.0

     negative rho (up, down):  6.186E-03 0.000E+00

     total cpu time spent up to now is        5.2 secs

     total energy              =      -3.58136371 Ry
     Harris-Foulkes estimate   =    -285.38937546 Ry
     estimated scf accuracy    <       5.23307951 Ry

     iteration # 21     ecut=    30.00 Ry     beta=0.70
     Davidson diagonalization with overlap
     ethr =  1.00E-02,  avg # of iterations =  4.0

     negative rho (up, down):  5.686E-03 0.000E+00

     total cpu time spent up to now is        5.2 secs

     total energy              =      -7.34036204 Ry
     Harris-Foulkes estimate   =    -319.14476335 Ry
     estimated scf accuracy    <       5.67642047 Ry

     iteration # 22     ecut=    30.00 Ry     beta=0.70
     Davidson diagonalization with overlap
     ethr =  1.00E-02,  avg # of iterations =  4.0

     negative rho (up, down):  1.098E-02 0.000E+00

     total cpu time spent up to now is        5.3 secs

     total energy              =    1201.67677567 Ry
     Harris-Foulkes estimate   =     -34.43798900 Ry
     estimated scf accuracy    <       5.35540952 Ry

     iteration # 23     ecut=    30.00 Ry     beta=0.70
     Davidson diagonalization with overlap
     ethr =  1.00E-02,  avg # of iterations =  4.0

     negative rho (up, down):  1.090E-02 0.000E+00

     total cpu time spent up to now is        5.3 secs

     total energy              =       5.92469962 Ry
     Harris-Foulkes estimate   =     -93.60596709 Ry
     estimated scf accuracy    <       4.92241269 Ry

     iteration # 24     ecut=    30.00 Ry     beta=0.70
     Davidson diagonalization with overlap
     ethr =  1.00E-02,  avg # of iterations =  8.0

     negative rho (up, down):  1.739E-03 0.000E+00

     total cpu time spent up to now is        5.3 secs

     total energy              =     -17.99004690 Ry
     Harris-Foulkes estimate   =     -34.84000311 Ry
     estimated scf accuracy    <       5.06256007 Ry

     iteration # 25     ecut=    30.00 Ry     beta=0.70
     Davidson diagonalization with overlap
     ethr =  1.00E-02,  avg # of iterations =  5.0

     negative rho (up, down):  2.084E-01 0.000E+00

     total cpu time spent up to now is        5.4 secs

     total energy              =     -31.70736844 Ry
     Harris-Foulkes estimate   =     -61.84717166 Ry
     estimated scf accuracy    <       5.93924431 Ry

     iteration # 26     ecut=    30.00 Ry     beta=0.70
     Davidson diagonalization with overlap
     ethr =  1.00E-02,  avg # of iterations =  9.0

     negative rho (up, down):  9.815E-02 0.000E+00

     total cpu time spent up to now is        5.4 secs

     total energy              =     -77.03764242 Ry
     Harris-Foulkes estimate   =    -320.61578307 Ry
     estimated scf accuracy    <      67.00013318 Ry

     iteration # 27     ecut=    30.00 Ry     beta=0.70
     Davidson diagonalization with overlap
     ethr =  1.00E-02,  avg # of iterations =  7.0

     negative rho (up, down):  6.346E-02 0.000E+00

     total cpu time spent up to now is        5.5 secs

     total energy              =      46.03432566 Ry
     Harris-Foulkes estimate   =   -1459.54280085 Ry
     estimated scf accuracy    <      60.69924940 Ry

     iteration # 28     ecut=    30.00 Ry     beta=0.70
     Davidson diagonalization with overlap
     ethr =  1.00E-02,  avg # of iterations = 12.0

     negative rho (up, down):  2.585E-01 0.000E+00

     total cpu time spent up to now is        5.6 secs

     total energy              =    -891.87185679 Ry
     Harris-Foulkes estimate   =     -96.46431517 Ry
     estimated scf accuracy    <      16.39021992 Ry

     iteration # 29     ecut=    30.00 Ry     beta=0.70
     Davidson diagonalization with overlap
     ethr =  1.00E-02,  avg # of iterations =  8.0

     negative rho (up, down):  3.783E-01 0.000E+00

     total cpu time spent up to now is        5.6 secs

     total energy              =      16.23414296 Ry
     Harris-Foulkes estimate   =   -3459.09844092 Ry
     estimated scf accuracy    <      52.08297147 Ry

     iteration # 30     ecut=    30.00 Ry     beta=0.70
     Davidson diagonalization with overlap
     ethr =  1.00E-02,  avg # of iterations = 12.0

     negative rho (up, down):  4.113E-01 0.000E+00

     total cpu time spent up to now is        5.7 secs

     total energy              =    -676.25036432 Ry
     Harris-Foulkes estimate   =   -1069.73271159 Ry
     estimated scf accuracy    <      56.54881606 Ry

     iteration # 31     ecut=    30.00 Ry     beta=0.70
     Davidson diagonalization with overlap
     ethr =  1.00E-02,  avg # of iterations =  7.0

     negative rho (up, down):  4.489E-01 0.000E+00

     total cpu time spent up to now is        5.7 secs

     total energy              =     673.24175892 Ry
     Harris-Foulkes estimate   =   -1345.66599366 Ry
     estimated scf accuracy    <      58.94053118 Ry

     iteration # 32     ecut=    30.00 Ry     beta=0.70
     Davidson diagonalization with overlap
     ethr =  1.00E-02,  avg # of iterations =  8.0

     negative rho (up, down):  5.536E-01 0.000E+00

     total cpu time spent up to now is        5.8 secs

     total energy              =      -5.62013616 Ry
     Harris-Foulkes estimate   =   -1619.57217446 Ry
     estimated scf accuracy    <      56.21483656 Ry

     iteration # 33     ecut=    30.00 Ry     beta=0.70
     Davidson diagonalization with overlap
     ethr =  1.00E-02,  avg # of iterations =  5.0

     negative rho (up, down):  8.868E-01 0.000E+00

     total cpu time spent up to now is        5.8 secs

     total energy              =      42.04729198 Ry
     Harris-Foulkes estimate   =   -1829.60504733 Ry
     estimated scf accuracy    <      45.47410550 Ry

     iteration # 34     ecut=    30.00 Ry     beta=0.70
     Davidson diagonalization with overlap
     ethr =  1.00E-02,  avg # of iterations =  6.0

     negative rho (up, down):  1.364E+00 0.000E+00

     total cpu time spent up to now is        5.9 secs

     total energy              =      90.47030629 Ry
     Harris-Foulkes estimate   =   -4524.57339176 Ry
     estimated scf accuracy    <      46.26170608 Ry

     iteration # 35     ecut=    30.00 Ry     beta=0.70
     Davidson diagonalization with overlap
     ethr =  1.00E-02,  avg # of iterations =  8.0

     negative rho (up, down):  1.509E+00 0.000E+00

     total cpu time spent up to now is        6.0 secs

     total energy              =     109.48111247 Ry
     Harris-Foulkes estimate   =   -1354.07827099 Ry
     estimated scf accuracy    <      38.50523028 Ry

     iteration # 36     ecut=    30.00 Ry     beta=0.70
     Davidson diagonalization with overlap
     ethr =  1.00E-02,  avg # of iterations = 10.0

     negative rho (up, down):  1.505E+00 0.000E+00

     total cpu time spent up to now is        6.0 secs

     total energy              =    -241.21040028 Ry
     Harris-Foulkes estimate   =  -13885.62976481 Ry
     estimated scf accuracy    <      39.04952288 Ry

     iteration # 37     ecut=    30.00 Ry     beta=0.70
     Davidson diagonalization with overlap
     ethr =  1.00E-02,  avg # of iterations =  8.0

     negative rho (up, down):  1.639E+00 0.000E+00

     total cpu time spent up to now is        6.1 secs

     total energy              =   -1347.68544709 Ry
     Harris-Foulkes estimate   =   -7723.08926065 Ry
     estimated scf accuracy    <      35.52755473 Ry

     iteration # 38     ecut=    30.00 Ry     beta=0.70
     Davidson diagonalization with overlap
     ethr =  1.00E-02,  avg # of iterations =  9.0

     negative rho (up, down):  1.126E+00 0.000E+00

     total cpu time spent up to now is        6.1 secs

     total energy              =     -68.66299446 Ry
     Harris-Foulkes estimate   =   -6852.01287126 Ry
     estimated scf accuracy    <      19.93732666 Ry

     iteration # 39     ecut=    30.00 Ry     beta=0.70
     Davidson diagonalization with overlap
     ethr =  1.00E-02,  avg # of iterations =  8.0

     negative rho (up, down):  1.036E+00 0.000E+00

     total cpu time spent up to now is        6.2 secs

     total energy              =     118.18130763 Ry
     Harris-Foulkes estimate   =   -2962.36080781 Ry
     estimated scf accuracy    <      23.54263654 Ry

     iteration # 40     ecut=    30.00 Ry     beta=0.70
     Davidson diagonalization with overlap
     ethr =  1.00E-02,  avg # of iterations =  8.0

     negative rho (up, down):  8.277E-01 0.000E+00

     total cpu time spent up to now is        6.3 secs

     total energy              =     198.79831410 Ry
     Harris-Foulkes estimate   =    -534.51229446 Ry
     estimated scf accuracy    <      28.42946334 Ry

     iteration # 41     ecut=    30.00 Ry     beta=0.70
     Davidson diagonalization with overlap
     ethr =  1.00E-02,  avg # of iterations =  7.0

     negative rho (up, down):  3.774E-01 0.000E+00

     total cpu time spent up to now is        6.3 secs

     total energy              =      20.25420220 Ry
     Harris-Foulkes estimate   =   -2119.88727683 Ry
     estimated scf accuracy    <      20.51680184 Ry

     iteration # 42     ecut=    30.00 Ry     beta=0.70
     Davidson diagonalization with overlap
     ethr =  1.00E-02,  avg # of iterations =  6.0

     negative rho (up, down):  2.940E-01 0.000E+00

     total cpu time spent up to now is        6.4 secs

     total energy              =    -455.47696064 Ry
     Harris-Foulkes estimate   =   -4569.14874154 Ry
     estimated scf accuracy    <      19.35485423 Ry

     iteration # 43     ecut=    30.00 Ry     beta=0.70
     Davidson diagonalization with overlap
     ethr =  1.00E-02,  avg # of iterations = 12.0

     negative rho (up, down):  2.580E-02 0.000E+00

     total cpu time spent up to now is        6.4 secs

     total energy              =     152.10053810 Ry
     Harris-Foulkes estimate   =   -3423.48736615 Ry
     estimated scf accuracy    <      21.84261960 Ry

     iteration # 44     ecut=    30.00 Ry     beta=0.70
     Davidson diagonalization with overlap
     ethr =  1.00E-02,  avg # of iterations =  8.0

     negative rho (up, down):  1.552E-04 0.000E+00

     total cpu time spent up to now is        6.5 secs

     total energy              =      81.14422378 Ry
     Harris-Foulkes estimate   =    -343.73053219 Ry
     estimated scf accuracy    <      25.09913267 Ry

     iteration # 45     ecut=    30.00 Ry     beta=0.70
     Davidson diagonalization with overlap
     ethr =  1.00E-02,  avg # of iterations =  7.0

     negative rho (up, down):  4.183E-03 0.000E+00

     total cpu time spent up to now is        6.6 secs

     total energy              =     -69.85570962 Ry
     Harris-Foulkes estimate   =     -83.22058116 Ry
     estimated scf accuracy    <      69.89694125 Ry

     iteration # 46     ecut=    30.00 Ry     beta=0.70
     Davidson diagonalization with overlap
     ethr =  1.00E-02,  avg # of iterations =  4.0

     negative rho (up, down):  5.633E-04 0.000E+00

     total cpu time spent up to now is        6.6 secs

     total energy              =     -21.75338163 Ry
     Harris-Foulkes estimate   =    -313.06476813 Ry
     estimated scf accuracy    <      31.42614124 Ry

     iteration # 47     ecut=    30.00 Ry     beta=0.70
     Davidson diagonalization with overlap
     ethr =  1.00E-02,  avg # of iterations =  4.0

     negative rho (up, down):  6.123E-04 0.000E+00

     total cpu time spent up to now is        6.6 secs

     total energy              =     -82.26616417 Ry
     Harris-Foulkes estimate   =     -77.58710853 Ry
     estimated scf accuracy    <      62.17698219 Ry

     iteration # 48     ecut=    30.00 Ry     beta=0.70
     Davidson diagonalization with overlap
     ethr =  1.00E-02,  avg # of iterations =  1.0

     negative rho (up, down):  8.419E-03 0.000E+00

     total cpu time spent up to now is        6.7 secs

     total energy              =     -82.28655803 Ry
     Harris-Foulkes estimate   =     -82.28270029 Ry
     estimated scf accuracy    <      68.54046915 Ry

     iteration # 49     ecut=    30.00 Ry     beta=0.70
     Davidson diagonalization with overlap
     ethr =  1.00E-02,  avg # of iterations =  5.0

     negative rho (up, down):  7.173E-04 0.000E+00

     total cpu time spent up to now is        6.7 secs

     total energy              =      91.47117749 Ry
     Harris-Foulkes estimate   =    -518.79981129 Ry
     estimated scf accuracy    <      15.82254777 Ry

     iteration # 50     ecut=    30.00 Ry     beta=0.70
     Davidson diagonalization with overlap
     ethr =  1.00E-02,  avg # of iterations =  6.0

     negative rho (up, down):  4.617E-01 0.000E+00

     total cpu time spent up to now is        6.8 secs

     total energy              =     -77.16648588 Ry
     Harris-Foulkes estimate   =     -81.69583907 Ry
     estimated scf accuracy    <      67.64814149 Ry

     iteration # 51     ecut=    30.00 Ry     beta=0.70
     Davidson diagonalization with overlap
     ethr =  1.00E-02,  avg # of iterations =  8.0

     negative rho (up, down):  8.839E-02 0.000E+00

     total cpu time spent up to now is        6.8 secs

     total energy              =     138.33629199 Ry
     Harris-Foulkes estimate   =  -10986.48267237 Ry
     estimated scf accuracy    <      29.46701832 Ry

     iteration # 52     ecut=    30.00 Ry     beta=0.70
     Davidson diagonalization with overlap
     ethr =  1.00E-02,  avg # of iterations =  7.0

     negative rho (up, down):  2.311E-01 0.000E+00

     total cpu time spent up to now is        6.9 secs

     total energy              =       9.78205201 Ry
     Harris-Foulkes estimate   =    -167.44507306 Ry
     estimated scf accuracy    <      26.05413835 Ry

     iteration # 53     ecut=    30.00 Ry     beta=0.70
     Davidson diagonalization with overlap
     ethr =  1.00E-02,  avg # of iterations =  9.0

     negative rho (up, down):  1.002E-03 0.000E+00

     total cpu time spent up to now is        6.9 secs

     total energy              =     152.51952840 Ry
     Harris-Foulkes estimate   =   -2113.77691474 Ry
     estimated scf accuracy    <      26.66996907 Ry

     iteration # 54     ecut=    30.00 Ry     beta=0.70
     Davidson diagonalization with overlap
     ethr =  1.00E-02,  avg # of iterations = 12.0

     negative rho (up, down):  9.107E-03 0.000E+00

     total cpu time spent up to now is        7.0 secs

     total energy              =     -73.74971312 Ry
     Harris-Foulkes estimate   =     -78.33840574 Ry
     estimated scf accuracy    <      62.70023093 Ry

     iteration # 55     ecut=    30.00 Ry     beta=0.70
     Davidson diagonalization with overlap
     ethr =  1.00E-02,  avg # of iterations =  1.0

     negative rho (up, down):  6.635E-02 0.000E+00

     total cpu time spent up to now is        7.0 secs

     total energy              =     -86.46200568 Ry
     Harris-Foulkes estimate   =     -73.76449429 Ry
     estimated scf accuracy    <      56.91402783 Ry

     iteration # 56     ecut=    30.00 Ry     beta=0.70
     Davidson diagonalization with overlap
     ethr =  1.00E-02,  avg # of iterations =  7.0

     negative rho (up, down):  1.201E-01 0.000E+00

     total cpu time spent up to now is        7.1 secs

     total energy              =      41.63641757 Ry
     Harris-Foulkes estimate   =    -330.61827553 Ry
     estimated scf accuracy    <      26.63931975 Ry

     iteration # 57     ecut=    30.00 Ry     beta=0.70
     Davidson diagonalization with overlap
     ethr =  1.00E-02,  avg # of iterations =  8.0

     negative rho (up, down):  2.035E-01 0.000E+00

     total cpu time spent up to now is        7.2 secs

     total energy              =     -80.16245344 Ry
     Harris-Foulkes estimate   =     -79.00994426 Ry
     estimated scf accuracy    <      63.21025656 Ry

     iteration # 58     ecut=    30.00 Ry     beta=0.70
     Davidson diagonalization with overlap
     ethr =  1.00E-02,  avg # of iterations =  6.0

     negative rho (up, down):  2.961E-02 0.000E+00

     total cpu time spent up to now is        7.2 secs

     total energy              =     111.11579197 Ry
     Harris-Foulkes estimate   =    -500.81788369 Ry
     estimated scf accuracy    <      26.32566287 Ry

     iteration # 59     ecut=    30.00 Ry     beta=0.70
     Davidson diagonalization with overlap
     ethr =  1.00E-02,  avg # of iterations =  6.0

     total cpu time spent up to now is        7.3 secs

     total energy              =      85.19950481 Ry
     Harris-Foulkes estimate   =    -396.82327477 Ry
     estimated scf accuracy    <      17.27475236 Ry

     iteration # 60     ecut=    30.00 Ry     beta=0.70
     Davidson diagonalization with overlap
     ethr =  1.00E-02,  avg # of iterations =  6.0

     negative rho (up, down):  2.428E-02 0.000E+00

     total cpu time spent up to now is        7.3 secs

     total energy              =     -69.81303706 Ry
     Harris-Foulkes estimate   =     -72.34476703 Ry
     estimated scf accuracy    <      55.90593117 Ry

     iteration # 61     ecut=    30.00 Ry     beta=0.70
     Davidson diagonalization with overlap
     ethr =  1.00E-02,  avg # of iterations =  4.0

     negative rho (up, down):  3.675E-03 0.000E+00

     total cpu time spent up to now is        7.3 secs

     total energy              =     -11.43851589 Ry
     Harris-Foulkes estimate   =   -1314.70332782 Ry
     estimated scf accuracy    <      28.86898302 Ry

     iteration # 62     ecut=    30.00 Ry     beta=0.70
     Davidson diagonalization with overlap
     ethr =  1.00E-02,  avg # of iterations =  4.0

     negative rho (up, down):  1.080E-01 0.000E+00

     total cpu time spent up to now is        7.4 secs

     total energy              =     -59.88946206 Ry
     Harris-Foulkes estimate   =     -67.07368025 Ry
     estimated scf accuracy    <      49.21324418 Ry

     iteration # 63     ecut=    30.00 Ry     beta=0.70
     Davidson diagonalization with overlap
     ethr =  1.00E-02,  avg # of iterations = 10.0

     negative rho (up, down):  1.849E-02 0.000E+00

     total cpu time spent up to now is        7.4 secs

     total energy              =     128.47563686 Ry
     Harris-Foulkes estimate   =    -573.84574071 Ry
     estimated scf accuracy    <      26.43237718 Ry

     iteration # 64     ecut=    30.00 Ry     beta=0.70
     Davidson diagonalization with overlap
     ethr =  1.00E-02,  avg # of iterations = 12.0

     total cpu time spent up to now is        7.5 secs

     total energy              =      27.60026140 Ry
     Harris-Foulkes estimate   =    -144.24313163 Ry
     estimated scf accuracy    <      17.89084550 Ry

     iteration # 65     ecut=    30.00 Ry     beta=0.70
     Davidson diagonalization with overlap
     ethr =  1.00E-02,  avg # of iterations =  7.0

     negative rho (up, down):  1.136E-02 0.000E+00

     total cpu time spent up to now is        7.6 secs

     total energy              =     -65.88613209 Ry
     Harris-Foulkes estimate   =     -68.22581540 Ry
     estimated scf accuracy    <      50.52494498 Ry

     iteration # 66     ecut=    30.00 Ry     beta=0.70
     Davidson diagonalization with overlap
     ethr =  1.00E-02,  avg # of iterations =  8.0

     negative rho (up, down):  3.015E-03 0.000E+00

     total cpu time spent up to now is        7.6 secs

     total energy              =      83.41509272 Ry
     Harris-Foulkes estimate   =    -223.09962474 Ry
     estimated scf accuracy    <      17.37475882 Ry

     iteration # 67     ecut=    30.00 Ry     beta=0.70
     Davidson diagonalization with overlap
     ethr =  1.00E-02,  avg # of iterations =  6.0

     negative rho (up, down):  6.046E-04 0.000E+00

     total cpu time spent up to now is        7.7 secs

     total energy              =     -66.10284830 Ry
     Harris-Foulkes estimate   =     -65.81360600 Ry
     estimated scf accuracy    <      47.52570015 Ry

     iteration # 68     ecut=    30.00 Ry     beta=0.70
     Davidson diagonalization with overlap
     ethr =  1.00E-02,  avg # of iterations =  2.0

     negative rho (up, down):  5.632E-02 0.000E+00

     total cpu time spent up to now is        7.7 secs

     total energy              =     -58.01178991 Ry
     Harris-Foulkes estimate   =     -66.10417987 Ry
     estimated scf accuracy    <      47.45303609 Ry

     iteration # 69     ecut=    30.00 Ry     beta=0.70
     Davidson diagonalization with overlap
     ethr =  1.00E-02,  avg # of iterations =  1.0

     negative rho (up, down):  1.411E-02 0.000E+00

     total cpu time spent up to now is        7.7 secs

     total energy              =     -52.13232925 Ry
     Harris-Foulkes estimate   =     -58.07753943 Ry
     estimated scf accuracy    <      36.99805011 Ry

     iteration # 70     ecut=    30.00 Ry     beta=0.70
     Davidson diagonalization with overlap
     ethr =  1.00E-02,  avg # of iterations =  1.0

     negative rho (up, down):  1.768E-02 0.000E+00

     total cpu time spent up to now is        7.8 secs

     total energy              =     -49.04807218 Ry
     Harris-Foulkes estimate   =     -52.15639433 Ry
     estimated scf accuracy    <      30.19653051 Ry

     iteration # 71     ecut=    30.00 Ry     beta=0.70
     Davidson diagonalization with overlap
     ethr =  1.00E-02,  avg # of iterations =  2.0

     negative rho (up, down):  1.302E-03 0.000E+00

     total cpu time spent up to now is        7.8 secs

     total energy              =     -43.55502592 Ry
     Harris-Foulkes estimate   =     -49.05943009 Ry
     estimated scf accuracy    <      26.16861845 Ry

     iteration # 72     ecut=    30.00 Ry     beta=0.70
     Davidson diagonalization with overlap
     ethr =  1.00E-02,  avg # of iterations =  4.0

     negative rho (up, down):  1.264E+00 0.000E+00

     total cpu time spent up to now is        7.9 secs

     total energy              =     -33.41181780 Ry
     Harris-Foulkes estimate   =     -43.60471547 Ry
     estimated scf accuracy    <      19.42863207 Ry

     iteration # 73     ecut=    30.00 Ry     beta=0.70
     Davidson diagonalization with overlap
     ethr =  1.00E-02,  avg # of iterations = 13.0

     negative rho (up, down):  1.155E-01 0.000E+00

     total cpu time spent up to now is        7.9 secs

     total energy              =      80.21507825 Ry
     Harris-Foulkes estimate   =    -158.90938505 Ry
     estimated scf accuracy    <      78.91857575 Ry

     iteration # 74     ecut=    30.00 Ry     beta=0.70
     Davidson diagonalization with overlap
     ethr =  1.00E-02,  avg # of iterations = 10.0

     negative rho (up, down):  5.485E-02 0.000E+00

     total cpu time spent up to now is        8.0 secs

     total energy              =      25.83477007 Ry
     Harris-Foulkes estimate   =    -124.42866998 Ry
     estimated scf accuracy    <      26.88494446 Ry

     iteration # 75     ecut=    30.00 Ry     beta=0.70
     Davidson diagonalization with overlap
     ethr =  1.00E-02,  avg # of iterations =  8.0

     negative rho (up, down):  1.039E-01 0.000E+00

     total cpu time spent up to now is        8.0 secs

     total energy              =     122.17355776 Ry
     Harris-Foulkes estimate   =    -285.17092927 Ry
     estimated scf accuracy    <      49.15621133 Ry

     iteration # 76     ecut=    30.00 Ry     beta=0.70
     Davidson diagonalization with overlap
     ethr =  1.00E-02,  avg # of iterations =  9.0

     negative rho (up, down):  9.773E-04 0.000E+00

     total cpu time spent up to now is        8.1 secs

     total energy              =      11.95047384 Ry
     Harris-Foulkes estimate   =     -57.27551007 Ry
     estimated scf accuracy    <      11.34505488 Ry

     iteration # 77     ecut=    30.00 Ry     beta=0.70
     Davidson diagonalization with overlap
     ethr =  1.00E-02,  avg # of iterations =  5.0

     negative rho (up, down):  2.423E-02 0.000E+00

     total cpu time spent up to now is        8.1 secs

     total energy              =      -3.80491096 Ry
     Harris-Foulkes estimate   =    -154.31293642 Ry
     estimated scf accuracy    <       9.33453128 Ry

     iteration # 78     ecut=    30.00 Ry     beta=0.70
     Davidson diagonalization with overlap
     ethr =  1.00E-02,  avg # of iterations =  3.0

     negative rho (up, down):  1.377E-02 0.000E+00

     total cpu time spent up to now is        8.2 secs

     total energy              =     -48.75535449 Ry
     Harris-Foulkes estimate   =     -52.54343462 Ry
     estimated scf accuracy    <      30.17343726 Ry

     iteration # 79     ecut=    30.00 Ry     beta=0.70
     Davidson diagonalization with overlap
     ethr =  1.00E-02,  avg # of iterations =  1.0

     negative rho (up, down):  1.424E-02 0.000E+00

     total cpu time spent up to now is        8.2 secs

     total energy              =     -48.66510985 Ry
     Harris-Foulkes estimate   =     -48.77415462 Ry
     estimated scf accuracy    <      25.49824601 Ry

     iteration # 80     ecut=    30.00 Ry     beta=0.70
     Davidson diagonalization with overlap
     ethr =  1.00E-02,  avg # of iterations =  4.0

     negative rho (up, down):  3.701E-02 0.000E+00

     total cpu time spent up to now is        8.3 secs

     total energy              =     -31.82517121 Ry
     Harris-Foulkes estimate   =    -108.02852196 Ry
     estimated scf accuracy    <      14.78549825 Ry

     iteration # 81     ecut=    30.00 Ry     beta=0.70
     Davidson diagonalization with overlap
     ethr =  1.00E-02,  avg # of iterations =  5.0

     negative rho (up, down):  1.739E-01 0.000E+00

     total cpu time spent up to now is        8.3 secs

     total energy              =    -122.98543597 Ry
     Harris-Foulkes estimate   =    -154.55542568 Ry
     estimated scf accuracy    <      23.59046628 Ry

     iteration # 82     ecut=    30.00 Ry     beta=0.70
     Davidson diagonalization with overlap
     ethr =  1.00E-02,  avg # of iterations =  6.0

     negative rho (up, down):  3.492E-01 0.000E+00

     total cpu time spent up to now is        8.4 secs

     total energy              =   -2991.07630722 Ry
     Harris-Foulkes estimate   =   -1021.54589069 Ry
     estimated scf accuracy    <      34.11141811 Ry

     iteration # 83     ecut=    30.00 Ry     beta=0.70
     Davidson diagonalization with overlap
     ethr =  1.00E-02,  avg # of iterations = 14.0

     negative rho (up, down):  2.398E-02 0.000E+00

     total cpu time spent up to now is        8.4 secs

     total energy              =      87.46602211 Ry
     Harris-Foulkes estimate   =  -14597.35407854 Ry
     estimated scf accuracy    <      67.65962618 Ry

     iteration # 84     ecut=    30.00 Ry     beta=0.70
     Davidson diagonalization with overlap
     ethr =  1.00E-02,  avg # of iterations =  8.0

     negative rho (up, down):  7.460E-02 0.000E+00

     total cpu time spent up to now is        8.5 secs

     total energy              =     -34.01698677 Ry
     Harris-Foulkes estimate   =    -119.38458246 Ry
     estimated scf accuracy    <      17.36506201 Ry

     iteration # 85     ecut=    30.00 Ry     beta=0.70
     Davidson diagonalization with overlap
     ethr =  1.00E-02,  avg # of iterations =  7.0

     negative rho (up, down):  3.705E-01 0.000E+00

     total cpu time spent up to now is        8.5 secs

     total energy              =   -1735.22900911 Ry
     Harris-Foulkes estimate   =     -95.88827858 Ry
     estimated scf accuracy    <      11.71016667 Ry

     iteration # 86     ecut=    30.00 Ry     beta=0.70
     Davidson diagonalization with overlap
     ethr =  1.00E-02,  avg # of iterations = 15.0

     negative rho (up, down):  5.971E-01 0.000E+00

     total cpu time spent up to now is        8.6 secs

     total energy              =    -706.37824258 Ry
     Harris-Foulkes estimate   =   -2897.26152187 Ry
     estimated scf accuracy    <      43.66392998 Ry

     iteration # 87     ecut=    30.00 Ry     beta=0.70
     Davidson diagonalization with overlap
     ethr =  1.00E-02,  avg # of iterations =  9.0

     negative rho (up, down):  2.882E-01 0.000E+00

     total cpu time spent up to now is        8.6 secs

     total energy              =    -171.70144002 Ry
     Harris-Foulkes estimate   =   -1887.73610817 Ry
     estimated scf accuracy    <      45.54029452 Ry

     iteration # 88     ecut=    30.00 Ry     beta=0.70
     Davidson diagonalization with overlap
     ethr =  1.00E-02,  avg # of iterations = 15.0

     negative rho (up, down):  3.864E-02 0.000E+00

     total cpu time spent up to now is        8.7 secs

     total energy              =       4.87646512 Ry
     Harris-Foulkes estimate   =  -11361.12276726 Ry
     estimated scf accuracy    <       6.69433447 Ry

     iteration # 89     ecut=    30.00 Ry     beta=0.70
     Davidson diagonalization with overlap
     ethr =  1.00E-02,  avg # of iterations =  6.0

     negative rho (up, down):  8.931E-02 0.000E+00

     total cpu time spent up to now is        8.8 secs

     total energy              =    1189.84007582 Ry
     Harris-Foulkes estimate   =    -257.60870359 Ry
     estimated scf accuracy    <      10.31793008 Ry

     iteration # 90     ecut=    30.00 Ry     beta=0.70
     Davidson diagonalization with overlap
     ethr =  1.00E-02,  avg # of iterations =  6.0

     negative rho (up, down):  4.495E-02 0.000E+00

     total cpu time spent up to now is        8.8 secs

     total energy              =      74.25668133 Ry
     Harris-Foulkes estimate   =    -324.81796262 Ry
     estimated scf accuracy    <      22.76943068 Ry

     iteration # 91     ecut=    30.00 Ry     beta=0.70
     Davidson diagonalization with overlap
     ethr =  1.00E-02,  avg # of iterations =  9.0

     negative rho (up, down):  1.237E-02 0.000E+00

     total cpu time spent up to now is        8.9 secs

     total energy              =     -40.07118372 Ry
     Harris-Foulkes estimate   =     -42.31059425 Ry
     estimated scf accuracy    <      17.02077426 Ry

     iteration # 92     ecut=    30.00 Ry     beta=0.70
     Davidson diagonalization with overlap
     ethr =  1.00E-02,  avg # of iterations =  5.0

     negative rho (up, down):  1.867E-02 0.000E+00

     total cpu time spent up to now is        8.9 secs

     total energy              =      -9.49816784 Ry
     Harris-Foulkes estimate   =     -63.93592622 Ry
     estimated scf accuracy    <       9.01843317 Ry

     iteration # 93     ecut=    30.00 Ry     beta=0.70
     Davidson diagonalization with overlap
     ethr =  1.00E-02,  avg # of iterations =  4.0

     negative rho (up, down):  2.131E-07 0.000E+00

     total cpu time spent up to now is        8.9 secs

     total energy              =       0.52361047 Ry
     Harris-Foulkes estimate   =    -138.65296995 Ry
     estimated scf accuracy    <       7.90464163 Ry

     iteration # 94     ecut=    30.00 Ry     beta=0.70
     Davidson diagonalization with overlap
     ethr =  1.00E-02,  avg # of iterations =  5.0

     negative rho (up, down):  1.604E-02 0.000E+00

     total cpu time spent up to now is        9.0 secs

     total energy              =     -37.36565699 Ry
     Harris-Foulkes estimate   =     -39.44784100 Ry
     estimated scf accuracy    <      13.51945944 Ry

     iteration # 95     ecut=    30.00 Ry     beta=0.70
     Davidson diagonalization with overlap
     ethr =  1.00E-02,  avg # of iterations =  5.0

     negative rho (up, down):  5.225E-04 0.000E+00

     total cpu time spent up to now is        9.0 secs

     total energy              =      -1.29450228 Ry
     Harris-Foulkes estimate   =    -128.74616418 Ry
     estimated scf accuracy    <       5.98409049 Ry

     iteration # 96     ecut=    30.00 Ry     beta=0.70
     Davidson diagonalization with overlap
     ethr =  1.00E-02,  avg # of iterations =  6.0

     negative rho (up, down):  2.204E-02 0.000E+00

     total cpu time spent up to now is        9.1 secs

     total energy              =     -34.89308506 Ry
     Harris-Foulkes estimate   =     -37.21256142 Ry
     estimated scf accuracy    <      10.67360745 Ry

     iteration # 97     ecut=    30.00 Ry     beta=0.70
     Davidson diagonalization with overlap
     ethr =  1.00E-02,  avg # of iterations =  7.0

     negative rho (up, down):  1.526E-04 0.000E+00

     total cpu time spent up to now is        9.1 secs

     total energy              =      39.05083566 Ry
     Harris-Foulkes estimate   =    -141.02151054 Ry
     estimated scf accuracy    <      18.72788928 Ry

     iteration # 98     ecut=    30.00 Ry     beta=0.70
     Davidson diagonalization with overlap
     ethr =  1.00E-02,  avg # of iterations =  4.0

     negative rho (up, down):  3.205E-02 0.000E+00

     total cpu time spent up to now is        9.1 secs

     total energy              =     -34.70364775 Ry
     Harris-Foulkes estimate   =     -37.33772650 Ry
     estimated scf accuracy    <      10.79932089 Ry

     iteration # 99     ecut=    30.00 Ry     beta=0.70
     Davidson diagonalization with overlap
     ethr =  1.00E-02,  avg # of iterations =  9.0

     negative rho (up, down):  5.520E-03 0.000E+00

     total cpu time spent up to now is        9.2 secs

     total energy              =      22.18314524 Ry
     Harris-Foulkes estimate   =    -154.87463612 Ry
     estimated scf accuracy    <      18.67847646 Ry

     iteration #100     ecut=    30.00 Ry     beta=0.70
     Davidson diagonalization with overlap
     ethr =  1.00E-02,  avg # of iterations =  4.0

     negative rho (up, down):  2.880E-04 0.000E+00

     total cpu time spent up to now is        9.2 secs

     total energy              =      49.94591953 Ry
     Harris-Foulkes estimate   =    -998.17921839 Ry
     estimated scf accuracy    <      19.47214265 Ry

     End of self-consistent calculation

     convergence NOT achieved after 100 iterations: stopping

     Writing output data file pwscf.save
 
     init_run     :      0.09s CPU      0.11s WALL (       1 calls)
     electrons    :      6.72s CPU      8.23s WALL (       4 calls)
     update_pot   :      0.36s CPU      0.52s WALL (       3 calls)
     forces       :      0.07s CPU      0.08s WALL (       3 calls)

     Called by init_run:
     wfcinit      :      0.01s CPU      0.02s WALL (       1 calls)
     potinit      :      0.02s CPU      0.03s WALL (       1 calls)

     Called by electrons:
     c_bands      :      3.38s CPU      3.53s WALL (     180 calls)
     sum_band     :      0.53s CPU      0.56s WALL (     180 calls)
     v_of_rho     :      1.36s CPU      1.44s WALL (     184 calls)
     mix_rho      :      1.22s CPU      2.12s WALL (     180 calls)

     Called by c_bands:
     init_us_2    :      0.02s CPU      0.02s WALL (     361 calls)
     cegterg      :      3.34s CPU      3.43s WALL (     180 calls)

     Called by sum_band:

     Called by *egterg:
     h_psi        :      2.78s CPU      2.84s WALL (    1052 calls)
     g_psi        :      0.03s CPU      0.03s WALL (     871 calls)
     cdiaghg      :      0.21s CPU      0.22s WALL (    1048 calls)

     Called by h_psi:
     h_psi:pot    :      2.76s CPU      2.83s WALL (    1052 calls)
     h_psi:calbec :      0.04s CPU      0.05s WALL (    1052 calls)
     vloc_psi     :      2.71s CPU      2.77s WALL (    1052 calls)
     add_vuspsi   :      0.01s CPU      0.01s WALL (    1052 calls)

     General routines
     calbec       :      0.05s CPU      0.07s WALL (    1066 calls)
     fft          :      0.81s CPU      0.85s WALL (    2030 calls)
     fftw         :      2.79s CPU      2.86s WALL (   12426 calls)
     davcio       :      0.21s CPU      0.79s WALL (    3257 calls)
 
     Parallel routines
     fft_scatter  :      1.29s CPU      1.34s WALL (   14456 calls)
 
     PWSCF        :     7.40s CPU         9.32s WALL

 
   This run was terminated on:   8:40:42  14Feb2018            

=------------------------------------------------------------------------------=
   JOB DONE.
=------------------------------------------------------------------------------=
