
     Program PWSCF v.6.0 (svn rev. 13079) starts on 14Feb2018 at  8:44:36 

     This program is part of the open-source Quantum ESPRESSO suite
     for quantum simulation of materials; please cite
         "P. Giannozzi et al., J. Phys.:Condens. Matter 21 395502 (2009);
          URL http://www.quantum-espresso.org", 
     in publications or presentations arising from this work. More details at
     http://www.quantum-espresso.org/quote

     Parallel version (MPI), running on    28 processors
     R & G space division:  proc/nbgrp/npool/nimage =      28
     Reading input from inputs/MD-H2O-2/443.in

     Current dimensions of program PWSCF are:
     Max number of different atomic species (ntypx) = 10
     Max number of k-points (npk) =  40000
     Max angular momentum in pseudopotentials (lmaxx) =  3

     Subspace diagonalization in iterative solution of the eigenvalue problem:
     a serial algorithm will be used

 
     Parallelization info
     --------------------
     sticks:   dense  smooth     PW     G-vecs:    dense   smooth      PW
     Min         136     136     33                 6338     6338     787
     Max         137     137     34                 6341     6341     792
     Sum        3809    3809    949               177509   177509   22119
 


     bravais-lattice index     =            1
     lattice parameter (alat)  =      20.0000  a.u.
     unit-cell volume          =    8000.0000 (a.u.)^3
     number of atoms/cell      =            3
     number of atomic types    =            2
     number of electrons       =         8.00
     number of Kohn-Sham states=            8
     kinetic-energy cutoff     =      30.0000  Ry
     charge density cutoff     =     120.0000  Ry
     convergence threshold     =      1.0E-08
     mixing beta               =       0.7000
     number of iterations used =            8  plain     mixing
     Exchange-correlation      = BLYP ( 1  3  1  3 0 0)
     nstep                     =         5000


     celldm(1)=  20.000000  celldm(2)=   0.000000  celldm(3)=   0.000000
     celldm(4)=   0.000000  celldm(5)=   0.000000  celldm(6)=   0.000000

     crystal axes: (cart. coord. in units of alat)
               a(1) = (   1.000000   0.000000   0.000000 )  
               a(2) = (   0.000000   1.000000   0.000000 )  
               a(3) = (   0.000000   0.000000   1.000000 )  

     reciprocal axes: (cart. coord. in units 2 pi/alat)
               b(1) = (  1.000000  0.000000  0.000000 )  
               b(2) = (  0.000000  1.000000  0.000000 )  
               b(3) = (  0.000000  0.000000  1.000000 )  


     PseudoPot. # 1 for  H read from file:
     ./H.blyp-hgh.UPF
     MD5 check sum: c576e69559cde411e611be972c763230
     Pseudo is Norm-conserving, Zval =  1.0
     Generated in analytical, separable form
     Using radial grid of  929 points,  0 beta functions with: 

     PseudoPot. # 2 for  O read from file:
     ./O.blyp-hgh.UPF
     MD5 check sum: d0b7156309aa9befef28faac7bc56342
     Pseudo is Norm-conserving, Zval =  6.0
     Generated in analytical, separable form
     Using radial grid of 1095 points,  1 beta functions with: 
                l(1) =   0

     atomic species   valence    mass     pseudopotential
        H              1.00     1.01000      H( 1.00)
        O              6.00    16.00000      O( 1.00)

     No symmetry found



   Cartesian axes

     site n.     atom                  positions (alat units)
         1           H   tau(   1) = (   0.5633427   0.1124750   0.7345528  )
         2           H   tau(   2) = (   0.5520937   0.3867428   0.3185550  )
         3           O   tau(   3) = (   0.5622324   0.4472293   0.2401781  )

     number of k points=     1  Marzari-Vanderbilt smearing, width (Ry)=  0.0250
                       cart. coord. in units 2pi/alat
        k(    1) = (   0.0000000   0.0000000   0.0000000), wk =   2.0000000

     Dense  grid:   177509 G-vectors     FFT dimensions: (  72,  72,  72)

     Estimated max dynamical RAM per process >       6.09Mb

     Estimated total allocated dynamical RAM >     170.64Mb

     Initial potential from superposition of free atoms
     Check: negative starting charge=   -0.349724

     starting charge    7.99998, renormalised to    8.00000

     negative rho (up, down):  3.497E-01 0.000E+00
     Starting wfc are    6 randomized atomic wfcs +    2 random wfc

     total cpu time spent up to now is        0.2 secs

     per-process dynamical memory:    18.8 Mb

     Self-consistent Calculation

     iteration #  1     ecut=    30.00 Ry     beta=0.70
     Davidson diagonalization with overlap
     ethr =  1.00E-02,  avg # of iterations =  6.0

     negative rho (up, down):  9.137E-02 0.000E+00

     total cpu time spent up to now is        0.3 secs

     total energy              =     -30.35792703 Ry
     Harris-Foulkes estimate   =     -32.23891727 Ry
     estimated scf accuracy    <       2.16155481 Ry

     iteration #  2     ecut=    30.00 Ry     beta=0.70
     Davidson diagonalization with overlap
     ethr =  1.00E-02,  avg # of iterations =  3.0

     negative rho (up, down):  6.651E-02 0.000E+00

     total cpu time spent up to now is        0.3 secs

     total energy              =     -32.28959384 Ry
     Harris-Foulkes estimate   =     -34.57839179 Ry
     estimated scf accuracy    <       5.57779211 Ry

     iteration #  3     ecut=    30.00 Ry     beta=0.70
     Davidson diagonalization with overlap
     ethr =  1.00E-02,  avg # of iterations =  2.0

     negative rho (up, down):  6.400E-02 0.000E+00

     total cpu time spent up to now is        0.4 secs

     total energy              =     -32.43938577 Ry
     Harris-Foulkes estimate   =     -32.52454116 Ry
     estimated scf accuracy    <       1.81211974 Ry

     iteration #  4     ecut=    30.00 Ry     beta=0.70
     Davidson diagonalization with overlap
     ethr =  1.00E-02,  avg # of iterations =  1.0

     negative rho (up, down):  1.198E-02 0.000E+00

     total cpu time spent up to now is        0.4 secs

     total energy              =     -31.29792156 Ry
     Harris-Foulkes estimate   =     -32.43970505 Ry
     estimated scf accuracy    <       1.69409118 Ry

     iteration #  5     ecut=    30.00 Ry     beta=0.70
     Davidson diagonalization with overlap
     ethr =  1.00E-02,  avg # of iterations =  4.0

     negative rho (up, down):  2.316E-02 0.000E+00

     total cpu time spent up to now is        0.4 secs

     total energy              =     -33.36190125 Ry
     Harris-Foulkes estimate   =     -33.21113292 Ry
     estimated scf accuracy    <       7.94505300 Ry

     iteration #  6     ecut=    30.00 Ry     beta=0.70
     Davidson diagonalization with overlap
     ethr =  1.00E-02,  avg # of iterations =  1.0

     negative rho (up, down):  1.705E-02 0.000E+00

     total cpu time spent up to now is        0.5 secs

     total energy              =     -33.07129328 Ry
     Harris-Foulkes estimate   =     -33.37153495 Ry
     estimated scf accuracy    <       9.33661205 Ry

     iteration #  7     ecut=    30.00 Ry     beta=0.70
     Davidson diagonalization with overlap
     ethr =  1.00E-02,  avg # of iterations =  1.0

     negative rho (up, down):  1.386E-02 0.000E+00

     total cpu time spent up to now is        0.5 secs

     total energy              =     -32.81156588 Ry
     Harris-Foulkes estimate   =     -33.09977223 Ry
     estimated scf accuracy    <       4.92458468 Ry

     iteration #  8     ecut=    30.00 Ry     beta=0.70
     Davidson diagonalization with overlap
     ethr =  1.00E-02,  avg # of iterations =  1.0

     negative rho (up, down):  5.132E-02 0.000E+00

     total cpu time spent up to now is        0.5 secs

     total energy              =     -32.51143188 Ry
     Harris-Foulkes estimate   =     -32.86181165 Ry
     estimated scf accuracy    <       2.87048538 Ry

     iteration #  9     ecut=    30.00 Ry     beta=0.70
     Davidson diagonalization with overlap
     ethr =  1.00E-02,  avg # of iterations =  1.0

     negative rho (up, down):  7.954E-02 0.000E+00

     total cpu time spent up to now is        0.6 secs

     total energy              =     -32.02221561 Ry
     Harris-Foulkes estimate   =     -32.51862074 Ry
     estimated scf accuracy    <       2.21152718 Ry

     iteration # 10     ecut=    30.00 Ry     beta=0.70
     Davidson diagonalization with overlap
     ethr =  1.00E-02,  avg # of iterations =  1.0

     negative rho (up, down):  5.960E-02 0.000E+00

     total cpu time spent up to now is        0.6 secs

     total energy              =     -32.29845953 Ry
     Harris-Foulkes estimate   =     -32.04049117 Ry
     estimated scf accuracy    <       1.34861267 Ry

     iteration # 11     ecut=    30.00 Ry     beta=0.70
     Davidson diagonalization with overlap
     ethr =  1.00E-02,  avg # of iterations =  1.0

     negative rho (up, down):  6.522E-02 0.000E+00

     total cpu time spent up to now is        0.6 secs

     total energy              =     -32.11648748 Ry
     Harris-Foulkes estimate   =     -32.30417108 Ry
     estimated scf accuracy    <       1.78186324 Ry

     iteration # 12     ecut=    30.00 Ry     beta=0.70
     Davidson diagonalization with overlap
     ethr =  1.00E-02,  avg # of iterations =  1.0

     negative rho (up, down):  1.196E-01 0.000E+00

     total cpu time spent up to now is        0.7 secs

     total energy              =     -31.74850333 Ry
     Harris-Foulkes estimate   =     -32.11863915 Ry
     estimated scf accuracy    <       1.47899221 Ry

     iteration # 13     ecut=    30.00 Ry     beta=0.70
     Davidson diagonalization with overlap
     ethr =  1.00E-02,  avg # of iterations =  1.0

     negative rho (up, down):  1.759E-01 0.000E+00

     total cpu time spent up to now is        0.7 secs

     total energy              =     -32.00849779 Ry
     Harris-Foulkes estimate   =     -32.08891939 Ry
     estimated scf accuracy    <       1.03940873 Ry

     iteration # 14     ecut=    30.00 Ry     beta=0.70
     Davidson diagonalization with overlap
     ethr =  1.00E-02,  avg # of iterations =  1.0

     negative rho (up, down):  1.143E-01 0.000E+00

     total cpu time spent up to now is        0.7 secs

     total energy              =     -32.10823308 Ry
     Harris-Foulkes estimate   =     -32.00931348 Ry
     estimated scf accuracy    <       0.91779183 Ry

     iteration # 15     ecut=    30.00 Ry     beta=0.70
     Davidson diagonalization with overlap
     ethr =  1.00E-02,  avg # of iterations =  1.0

     negative rho (up, down):  1.101E-01 0.000E+00

     total cpu time spent up to now is        0.8 secs

     total energy              =     -32.19153683 Ry
     Harris-Foulkes estimate   =     -32.10929423 Ry
     estimated scf accuracy    <       1.06181197 Ry

     iteration # 16     ecut=    30.00 Ry     beta=0.70
     Davidson diagonalization with overlap
     ethr =  1.00E-02,  avg # of iterations =  1.0

     negative rho (up, down):  2.479E-02 0.000E+00

     total cpu time spent up to now is        0.8 secs

     total energy              =     -32.36459120 Ry
     Harris-Foulkes estimate   =     -32.19287884 Ry
     estimated scf accuracy    <       1.19938694 Ry

     iteration # 17     ecut=    30.00 Ry     beta=0.70
     Davidson diagonalization with overlap
     ethr =  1.00E-02,  avg # of iterations =  1.0

     negative rho (up, down):  3.766E-08 0.000E+00

     total cpu time spent up to now is        0.8 secs

     total energy              =     -32.25916423 Ry
     Harris-Foulkes estimate   =     -32.37600032 Ry
     estimated scf accuracy    <       1.48370081 Ry

     iteration # 18     ecut=    30.00 Ry     beta=0.70
     Davidson diagonalization with overlap
     ethr =  1.00E-02,  avg # of iterations =  1.0

     negative rho (up, down):  1.469E-06 0.000E+00

     total cpu time spent up to now is        0.8 secs

     total energy              =     -32.17240368 Ry
     Harris-Foulkes estimate   =     -32.25136396 Ry
     estimated scf accuracy    <       1.35078684 Ry

     iteration # 19     ecut=    30.00 Ry     beta=0.70
     Davidson diagonalization with overlap
     ethr =  1.00E-02,  avg # of iterations =  1.0

     negative rho (up, down):  1.851E-03 0.000E+00

     total cpu time spent up to now is        0.9 secs

     total energy              =     -32.49589367 Ry
     Harris-Foulkes estimate   =     -32.17282642 Ry
     estimated scf accuracy    <       1.22887329 Ry

     iteration # 20     ecut=    30.00 Ry     beta=0.70
     Davidson diagonalization with overlap
     ethr =  1.00E-02,  avg # of iterations =  1.0

     negative rho (up, down):  2.183E-03 0.000E+00

     total cpu time spent up to now is        0.9 secs

     total energy              =     -31.89662730 Ry
     Harris-Foulkes estimate   =     -32.50795667 Ry
     estimated scf accuracy    <       1.70673347 Ry

     iteration # 21     ecut=    30.00 Ry     beta=0.70
     Davidson diagonalization with overlap
     ethr =  1.00E-02,  avg # of iterations =  2.0

     negative rho (up, down):  6.759E-04 0.000E+00

     total cpu time spent up to now is        0.9 secs

     total energy              =     -31.63709864 Ry
     Harris-Foulkes estimate   =     -31.96323134 Ry
     estimated scf accuracy    <       1.18401632 Ry

     iteration # 22     ecut=    30.00 Ry     beta=0.70
     Davidson diagonalization with overlap
     ethr =  1.00E-02,  avg # of iterations =  1.0

     negative rho (up, down):  1.319E-04 0.000E+00

     total cpu time spent up to now is        1.0 secs

     total energy              =     -32.21671049 Ry
     Harris-Foulkes estimate   =     -32.24380535 Ry
     estimated scf accuracy    <       1.31415591 Ry

     iteration # 23     ecut=    30.00 Ry     beta=0.70
     Davidson diagonalization with overlap
     ethr =  1.00E-02,  avg # of iterations =  1.0

     negative rho (up, down):  8.094E-05 0.000E+00

     total cpu time spent up to now is        1.0 secs

     total energy              =     -32.18316861 Ry
     Harris-Foulkes estimate   =     -32.21692450 Ry
     estimated scf accuracy    <       1.28671764 Ry

     iteration # 24     ecut=    30.00 Ry     beta=0.70
     Davidson diagonalization with overlap
     ethr =  1.00E-02,  avg # of iterations =  1.0

     negative rho (up, down):  1.004E-04 0.000E+00

     total cpu time spent up to now is        1.0 secs

     total energy              =     -32.15001355 Ry
     Harris-Foulkes estimate   =     -32.18320393 Ry
     estimated scf accuracy    <       1.24054019 Ry

     iteration # 25     ecut=    30.00 Ry     beta=0.70
     Davidson diagonalization with overlap
     ethr =  1.00E-02,  avg # of iterations =  1.0

     negative rho (up, down):  5.348E-04 0.000E+00

     total cpu time spent up to now is        1.1 secs

     total energy              =     -32.14005642 Ry
     Harris-Foulkes estimate   =     -32.15008951 Ry
     estimated scf accuracy    <       1.18844326 Ry

     iteration # 26     ecut=    30.00 Ry     beta=0.70
     Davidson diagonalization with overlap
     ethr =  1.00E-02,  avg # of iterations =  1.0

     negative rho (up, down):  1.132E-03 0.000E+00

     total cpu time spent up to now is        1.1 secs

     total energy              =     -32.06886242 Ry
     Harris-Foulkes estimate   =     -32.14006455 Ry
     estimated scf accuracy    <       1.17387977 Ry

     iteration # 27     ecut=    30.00 Ry     beta=0.70
     Davidson diagonalization with overlap
     ethr =  1.00E-02,  avg # of iterations =  1.0

     negative rho (up, down):  6.611E-04 0.000E+00

     total cpu time spent up to now is        1.1 secs

     total energy              =     -32.05453741 Ry
     Harris-Foulkes estimate   =     -32.06915169 Ry
     estimated scf accuracy    <       1.06544785 Ry

     iteration # 28     ecut=    30.00 Ry     beta=0.70
     Davidson diagonalization with overlap
     ethr =  1.00E-02,  avg # of iterations =  1.0

     negative rho (up, down):  4.175E-08 0.000E+00

     total cpu time spent up to now is        1.2 secs

     total energy              =     -31.74487392 Ry
     Harris-Foulkes estimate   =     -32.05455227 Ry
     estimated scf accuracy    <       1.04544356 Ry

     iteration # 29     ecut=    30.00 Ry     beta=0.70
     Davidson diagonalization with overlap
     ethr =  1.00E-02,  avg # of iterations =  1.0

     negative rho (up, down):  6.984E-05 0.000E+00

     total cpu time spent up to now is        1.2 secs

     total energy              =     -32.01502949 Ry
     Harris-Foulkes estimate   =     -32.18134146 Ry
     estimated scf accuracy    <       1.54849668 Ry

     iteration # 30     ecut=    30.00 Ry     beta=0.70
     Davidson diagonalization with overlap
     ethr =  1.00E-02,  avg # of iterations =  1.0

     negative rho (up, down):  6.682E-06 0.000E+00

     total cpu time spent up to now is        1.2 secs

     total energy              =     -31.76776666 Ry
     Harris-Foulkes estimate   =     -32.01706221 Ry
     estimated scf accuracy    <       1.30825390 Ry

     iteration # 31     ecut=    30.00 Ry     beta=0.70
     Davidson diagonalization with overlap
     ethr =  1.00E-02,  avg # of iterations =  1.0

     total cpu time spent up to now is        1.3 secs

     total energy              =     -32.04207037 Ry
     Harris-Foulkes estimate   =     -32.08747260 Ry
     estimated scf accuracy    <       1.09354856 Ry

     iteration # 32     ecut=    30.00 Ry     beta=0.70
     Davidson diagonalization with overlap
     ethr =  1.00E-02,  avg # of iterations =  1.0

     negative rho (up, down):  3.896E-08 0.000E+00

     total cpu time spent up to now is        1.3 secs

     total energy              =     -31.96170576 Ry
     Harris-Foulkes estimate   =     -32.04231064 Ry
     estimated scf accuracy    <       1.02734703 Ry

     iteration # 33     ecut=    30.00 Ry     beta=0.70
     Davidson diagonalization with overlap
     ethr =  1.00E-02,  avg # of iterations =  1.0

     negative rho (up, down):  1.069E-07 0.000E+00

     total cpu time spent up to now is        1.3 secs

     total energy              =     -31.96124541 Ry
     Harris-Foulkes estimate   =     -31.96281954 Ry
     estimated scf accuracy    <       0.73017421 Ry

     iteration # 34     ecut=    30.00 Ry     beta=0.70
     Davidson diagonalization with overlap
     ethr =  9.13E-03,  avg # of iterations =  1.0

     negative rho (up, down):  5.836E-08 0.000E+00

     total cpu time spent up to now is        1.4 secs

     total energy              =     -31.93136319 Ry
     Harris-Foulkes estimate   =     -31.96127484 Ry
     estimated scf accuracy    <       0.69258956 Ry

     iteration # 35     ecut=    30.00 Ry     beta=0.70
     Davidson diagonalization with overlap
     ethr =  8.66E-03,  avg # of iterations =  1.0

     total cpu time spent up to now is        1.4 secs

     total energy              =     -31.93848467 Ry
     Harris-Foulkes estimate   =     -31.94683969 Ry
     estimated scf accuracy    <       0.04694441 Ry

     iteration # 36     ecut=    30.00 Ry     beta=0.70
     Davidson diagonalization with overlap
     ethr =  5.87E-04,  avg # of iterations =  1.0

     total cpu time spent up to now is        1.4 secs

     total energy              =     -31.95325566 Ry
     Harris-Foulkes estimate   =     -31.96539119 Ry
     estimated scf accuracy    <       0.77999349 Ry

     iteration # 37     ecut=    30.00 Ry     beta=0.70
     Davidson diagonalization with overlap
     ethr =  5.87E-04,  avg # of iterations =  1.0

     total cpu time spent up to now is        1.5 secs

     total energy              =     -31.97761978 Ry
     Harris-Foulkes estimate   =     -31.95441771 Ry
     estimated scf accuracy    <       0.45993225 Ry

     iteration # 38     ecut=    30.00 Ry     beta=0.70
     Davidson diagonalization with overlap
     ethr =  5.87E-04,  avg # of iterations =  1.0

     total cpu time spent up to now is        1.5 secs

     total energy              =     -31.98373898 Ry
     Harris-Foulkes estimate   =     -31.98400427 Ry
     estimated scf accuracy    <       0.93094729 Ry

     iteration # 39     ecut=    30.00 Ry     beta=0.70
     Davidson diagonalization with overlap
     ethr =  5.87E-04,  avg # of iterations =  1.0

     total cpu time spent up to now is        1.5 secs

     total energy              =     -32.03491050 Ry
     Harris-Foulkes estimate   =     -31.98374134 Ry
     estimated scf accuracy    <       0.93041288 Ry

     iteration # 40     ecut=    30.00 Ry     beta=0.70
     Davidson diagonalization with overlap
     ethr =  5.87E-04,  avg # of iterations =  1.0

     total cpu time spent up to now is        1.6 secs

     total energy              =     -32.06718293 Ry
     Harris-Foulkes estimate   =     -32.03523012 Ry
     estimated scf accuracy    <       1.01502778 Ry

     iteration # 41     ecut=    30.00 Ry     beta=0.70
     Davidson diagonalization with overlap
     ethr =  5.87E-04,  avg # of iterations =  1.0

     total cpu time spent up to now is        1.6 secs

     total energy              =     -32.04000868 Ry
     Harris-Foulkes estimate   =     -32.06724949 Ry
     estimated scf accuracy    <       1.06431080 Ry

     iteration # 42     ecut=    30.00 Ry     beta=0.70
     Davidson diagonalization with overlap
     ethr =  5.87E-04,  avg # of iterations =  1.0

     total cpu time spent up to now is        1.6 secs

     total energy              =     -32.04877621 Ry
     Harris-Foulkes estimate   =     -32.04004586 Ry
     estimated scf accuracy    <       1.02412468 Ry

     iteration # 43     ecut=    30.00 Ry     beta=0.70
     Davidson diagonalization with overlap
     ethr =  5.87E-04,  avg # of iterations =  1.0

     negative rho (up, down):  1.291E-08 0.000E+00

     total cpu time spent up to now is        1.7 secs

     total energy              =     -32.02668913 Ry
     Harris-Foulkes estimate   =     -32.04878017 Ry
     estimated scf accuracy    <       1.03627645 Ry

     iteration # 44     ecut=    30.00 Ry     beta=0.70
     Davidson diagonalization with overlap
     ethr =  5.87E-04,  avg # of iterations =  1.0

     total cpu time spent up to now is        1.7 secs

     total energy              =     -32.12986347 Ry
     Harris-Foulkes estimate   =     -32.02671113 Ry
     estimated scf accuracy    <       1.00409227 Ry

     iteration # 45     ecut=    30.00 Ry     beta=0.70
     Davidson diagonalization with overlap
     ethr =  5.87E-04,  avg # of iterations =  1.0

     total cpu time spent up to now is        1.7 secs

     total energy              =     -32.03320621 Ry
     Harris-Foulkes estimate   =     -32.13032850 Ry
     estimated scf accuracy    <       1.15448281 Ry

     iteration # 46     ecut=    30.00 Ry     beta=0.70
     Davidson diagonalization with overlap
     ethr =  5.87E-04,  avg # of iterations =  1.0

     negative rho (up, down):  3.140E-04 0.000E+00

     total cpu time spent up to now is        1.8 secs

     total energy              =     -31.29655508 Ry
     Harris-Foulkes estimate   =     -32.03361381 Ry
     estimated scf accuracy    <       1.01399509 Ry

     iteration # 47     ecut=    30.00 Ry     beta=0.70
     Davidson diagonalization with overlap
     ethr =  5.87E-04,  avg # of iterations =  7.0

     negative rho (up, down):  8.793E-03 0.000E+00

     total cpu time spent up to now is        1.8 secs

     total energy              =     -33.22317254 Ry
     Harris-Foulkes estimate   =     -33.64099400 Ry
     estimated scf accuracy    <      11.22537579 Ry

     iteration # 48     ecut=    30.00 Ry     beta=0.70
     Davidson diagonalization with overlap
     ethr =  5.87E-04,  avg # of iterations =  3.0

     negative rho (up, down):  5.052E-03 0.000E+00

     total cpu time spent up to now is        1.9 secs

     total energy              =     -33.56822341 Ry
     Harris-Foulkes estimate   =     -33.25053063 Ry
     estimated scf accuracy    <      10.94604678 Ry

     iteration # 49     ecut=    30.00 Ry     beta=0.70
     Davidson diagonalization with overlap
     ethr =  5.87E-04,  avg # of iterations =  2.0

     negative rho (up, down):  8.422E-02 0.000E+00

     total cpu time spent up to now is        1.9 secs

     total energy              =     -33.89457562 Ry
     Harris-Foulkes estimate   =     -33.59498773 Ry
     estimated scf accuracy    <      11.17645872 Ry

     iteration # 50     ecut=    30.00 Ry     beta=0.70
     Davidson diagonalization with overlap
     ethr =  5.87E-04,  avg # of iterations =  6.0

     negative rho (up, down):  2.764E-02 0.000E+00

     total cpu time spent up to now is        1.9 secs

     total energy              =     -33.73966457 Ry
     Harris-Foulkes estimate   =     -33.91230016 Ry
     estimated scf accuracy    <      11.68184269 Ry

     iteration # 51     ecut=    30.00 Ry     beta=0.70
     Davidson diagonalization with overlap
     ethr =  5.87E-04,  avg # of iterations =  2.0

     negative rho (up, down):  3.073E-02 0.000E+00

     total cpu time spent up to now is        2.0 secs

     total energy              =     -33.77793464 Ry
     Harris-Foulkes estimate   =     -33.74624172 Ry
     estimated scf accuracy    <      11.25780677 Ry

     iteration # 52     ecut=    30.00 Ry     beta=0.70
     Davidson diagonalization with overlap
     ethr =  5.87E-04,  avg # of iterations =  1.0

     negative rho (up, down):  1.107E-02 0.000E+00

     total cpu time spent up to now is        2.0 secs

     total energy              =     -33.66781943 Ry
     Harris-Foulkes estimate   =     -33.77942797 Ry
     estimated scf accuracy    <      11.37970601 Ry

     iteration # 53     ecut=    30.00 Ry     beta=0.70
     Davidson diagonalization with overlap
     ethr =  5.87E-04,  avg # of iterations =  2.0

     negative rho (up, down):  1.005E-02 0.000E+00

     total cpu time spent up to now is        2.1 secs

     total energy              =     -33.64335050 Ry
     Harris-Foulkes estimate   =     -33.67405493 Ry
     estimated scf accuracy    <      11.06151738 Ry

     iteration # 54     ecut=    30.00 Ry     beta=0.70
     Davidson diagonalization with overlap
     ethr =  5.87E-04,  avg # of iterations =  2.0

     negative rho (up, down):  2.492E-02 0.000E+00

     total cpu time spent up to now is        2.1 secs

     total energy              =     -31.17174811 Ry
     Harris-Foulkes estimate   =     -33.65742313 Ry
     estimated scf accuracy    <      11.16039869 Ry

     iteration # 55     ecut=    30.00 Ry     beta=0.70
     Davidson diagonalization with overlap
     ethr =  5.87E-04,  avg # of iterations =  9.0

     negative rho (up, down):  1.036E-01 0.000E+00

     total cpu time spent up to now is        2.1 secs

     total energy              =     -31.53175165 Ry
     Harris-Foulkes estimate   =     -32.15525928 Ry
     estimated scf accuracy    <       1.52801913 Ry

     iteration # 56     ecut=    30.00 Ry     beta=0.70
     Davidson diagonalization with overlap
     ethr =  5.87E-04,  avg # of iterations =  5.0

     negative rho (up, down):  5.157E-03 0.000E+00

     total cpu time spent up to now is        2.2 secs

     total energy              =     -32.04391497 Ry
     Harris-Foulkes estimate   =     -32.35033900 Ry
     estimated scf accuracy    <       1.51041006 Ry

     iteration # 57     ecut=    30.00 Ry     beta=0.70
     Davidson diagonalization with overlap
     ethr =  5.87E-04,  avg # of iterations =  2.0

     negative rho (up, down):  5.891E-04 0.000E+00

     total cpu time spent up to now is        2.2 secs

     total energy              =     -31.90628861 Ry
     Harris-Foulkes estimate   =     -32.04069866 Ry
     estimated scf accuracy    <       1.02606711 Ry

     iteration # 58     ecut=    30.00 Ry     beta=0.70
     Davidson diagonalization with overlap
     ethr =  5.87E-04,  avg # of iterations =  3.0

     negative rho (up, down):  1.586E-04 0.000E+00

     total cpu time spent up to now is        2.3 secs

     total energy              =     -31.89606284 Ry
     Harris-Foulkes estimate   =     -31.95946485 Ry
     estimated scf accuracy    <       0.97082119 Ry

     iteration # 59     ecut=    30.00 Ry     beta=0.70
     Davidson diagonalization with overlap
     ethr =  5.87E-04,  avg # of iterations =  1.0

     negative rho (up, down):  6.499E-05 0.000E+00

     total cpu time spent up to now is        2.3 secs

     total energy              =     -31.94744260 Ry
     Harris-Foulkes estimate   =     -31.96906464 Ry
     estimated scf accuracy    <       0.83436767 Ry

     iteration # 60     ecut=    30.00 Ry     beta=0.70
     Davidson diagonalization with overlap
     ethr =  5.87E-04,  avg # of iterations =  1.0

     negative rho (up, down):  6.813E-06 0.000E+00

     total cpu time spent up to now is        2.3 secs

     total energy              =     -31.94002473 Ry
     Harris-Foulkes estimate   =     -31.95078045 Ry
     estimated scf accuracy    <       0.28674072 Ry

     iteration # 61     ecut=    30.00 Ry     beta=0.70
     Davidson diagonalization with overlap
     ethr =  5.87E-04,  avg # of iterations =  1.0

     negative rho (up, down):  6.458E-06 0.000E+00

     total cpu time spent up to now is        2.4 secs

     total energy              =     -31.94682911 Ry
     Harris-Foulkes estimate   =     -31.94660605 Ry
     estimated scf accuracy    <       0.02884192 Ry

     iteration # 62     ecut=    30.00 Ry     beta=0.70
     Davidson diagonalization with overlap
     ethr =  3.61E-04,  avg # of iterations =  1.0

     negative rho (up, down):  3.223E-05 0.000E+00

     total cpu time spent up to now is        2.4 secs

     total energy              =     -31.94615532 Ry
     Harris-Foulkes estimate   =     -31.94686383 Ry
     estimated scf accuracy    <       0.04892168 Ry

     iteration # 63     ecut=    30.00 Ry     beta=0.70
     Davidson diagonalization with overlap
     ethr =  3.61E-04,  avg # of iterations =  1.0

     negative rho (up, down):  3.107E-05 0.000E+00

     total cpu time spent up to now is        2.4 secs

     total energy              =     -31.94528422 Ry
     Harris-Foulkes estimate   =     -31.94635814 Ry
     estimated scf accuracy    <       0.00873216 Ry

     iteration # 64     ecut=    30.00 Ry     beta=0.70
     Davidson diagonalization with overlap
     ethr =  1.09E-04,  avg # of iterations =  1.0

     total cpu time spent up to now is        2.5 secs

     total energy              =     -31.94498545 Ry
     Harris-Foulkes estimate   =     -31.94790329 Ry
     estimated scf accuracy    <       0.11614633 Ry

     iteration # 65     ecut=    30.00 Ry     beta=0.70
     Davidson diagonalization with overlap
     ethr =  1.09E-04,  avg # of iterations =  1.0

     total cpu time spent up to now is        2.5 secs

     total energy              =     -31.94617990 Ry
     Harris-Foulkes estimate   =     -31.94625313 Ry
     estimated scf accuracy    <       0.00112673 Ry

     iteration # 66     ecut=    30.00 Ry     beta=0.70
     Davidson diagonalization with overlap
     ethr =  1.41E-05,  avg # of iterations =  1.0

     total cpu time spent up to now is        2.5 secs

     total energy              =     -31.94629003 Ry
     Harris-Foulkes estimate   =     -31.94627354 Ry
     estimated scf accuracy    <       0.00272584 Ry

     iteration # 67     ecut=    30.00 Ry     beta=0.70
     Davidson diagonalization with overlap
     ethr =  1.41E-05,  avg # of iterations =  1.0

     negative rho (up, down):  2.744E-08 0.000E+00

     total cpu time spent up to now is        2.6 secs

     total energy              =     -31.94617204 Ry
     Harris-Foulkes estimate   =     -31.94629223 Ry
     estimated scf accuracy    <       0.00420923 Ry

     iteration # 68     ecut=    30.00 Ry     beta=0.70
     Davidson diagonalization with overlap
     ethr =  1.41E-05,  avg # of iterations =  1.0

     total cpu time spent up to now is        2.6 secs

     total energy              =     -31.94623818 Ry
     Harris-Foulkes estimate   =     -31.94623932 Ry
     estimated scf accuracy    <       0.00006320 Ry

     iteration # 69     ecut=    30.00 Ry     beta=0.70
     Davidson diagonalization with overlap
     ethr =  7.90E-07,  avg # of iterations =  4.0

     total cpu time spent up to now is        2.6 secs

     total energy              =     -31.94623875 Ry
     Harris-Foulkes estimate   =     -31.94623877 Ry
     estimated scf accuracy    <       0.00000153 Ry

     iteration # 70     ecut=    30.00 Ry     beta=0.70
     Davidson diagonalization with overlap
     ethr =  1.92E-08,  avg # of iterations =  1.0

     total cpu time spent up to now is        2.7 secs

     total energy              =     -31.94623877 Ry
     Harris-Foulkes estimate   =     -31.94623879 Ry
     estimated scf accuracy    <       0.00000013 Ry

     iteration # 71     ecut=    30.00 Ry     beta=0.70
     Davidson diagonalization with overlap
     ethr =  1.63E-09,  avg # of iterations =  1.0

     total cpu time spent up to now is        2.7 secs

     End of self-consistent calculation

          k = 0.0000 0.0000 0.0000 ( 22119 PWs)   bands (ev):

   -24.8059 -10.6552  -7.0656  -7.0654  -6.9266  -0.7210   0.3209   0.7965

     the Fermi energy is    -6.8953 ev

!    total energy              =     -31.94623876 Ry
     Harris-Foulkes estimate   =     -31.94623877 Ry
     estimated scf accuracy    <          4.2E-09 Ry

     convergence has been achieved in  71 iterations

     Forces acting on atoms (Ry/au):

     atom    1 type  1   force =    -0.00005787   -0.00021742   -0.00008715
     atom    2 type  1   force =    -0.00185575   -0.00957681    0.01144034
     atom    3 type  2   force =     0.00191362    0.00979423   -0.01135320

     Total force =     0.021321     Total SCF correction =     0.000029

     Molecular Dynamics Calculation

     Starting temperature  =  1000.00 K

     temperature is controlled by Andersen thermostat
     Collision frequency = 1.0000/timestep
     mass H                =     1.01
     mass O                =    16.00
     Time step             =   100.00 a.u.,  4.8378 femto-seconds

     Entering Dynamics:    iteration =     1
                           time      =   0.0048 pico-seconds


     Andersen thermostat:    3 collisions

ATOMIC_POSITIONS (bohr)
H       11.254198993   2.071807230  14.475918193
H       10.639241757   7.471564794   6.463927065
O       11.270864071   8.972423113   4.811281803


     kinetic energy (Ekin) =     0.01376442 Ry
     temperature           =   724.40910695 K 
     Ekin + Etot (const)   =   -31.93247434 Ry

     Linear momentum :   -0.0000000000    0.0000000000   -0.0000000000

     Writing output data file pwscf.save
     Check: negative starting charge=   -0.349724
     NEW-OLD atomic charge density approx. for the potential
     Check: negative starting charge=   -0.349213

     negative rho (up, down):  7.743E-02 0.000E+00

     total cpu time spent up to now is        2.9 secs

     per-process dynamical memory:    20.4 Mb

     Self-consistent Calculation

     iteration #  1     ecut=    30.00 Ry     beta=0.70
     Davidson diagonalization with overlap
     c_bands:  1 eigenvalues not converged
     ethr =  1.00E-06,  avg # of iterations = 20.0

     negative rho (up, down):  1.865E-02 0.000E+00

     total cpu time spent up to now is        3.1 secs

     total energy              =     -30.95437156 Ry
     Harris-Foulkes estimate   =     -31.86850722 Ry
     estimated scf accuracy    <       1.18880888 Ry

     iteration #  2     ecut=    30.00 Ry     beta=0.70
     Davidson diagonalization with overlap
     ethr =  1.00E-02,  avg # of iterations =  3.0

     negative rho (up, down):  1.406E-02 0.000E+00

     total cpu time spent up to now is        3.1 secs

     total energy              =     -32.22020695 Ry
     Harris-Foulkes estimate   =     -33.91690301 Ry
     estimated scf accuracy    <       4.57512301 Ry

     iteration #  3     ecut=    30.00 Ry     beta=0.70
     Davidson diagonalization with overlap
     ethr =  1.00E-02,  avg # of iterations =  2.0

     negative rho (up, down):  1.208E-02 0.000E+00

     total cpu time spent up to now is        3.1 secs

     total energy              =     -32.15211078 Ry
     Harris-Foulkes estimate   =     -32.40044940 Ry
     estimated scf accuracy    <       1.60046379 Ry

     iteration #  4     ecut=    30.00 Ry     beta=0.70
     Davidson diagonalization with overlap
     ethr =  1.00E-02,  avg # of iterations =  1.0

     negative rho (up, down):  9.396E-03 0.000E+00

     total cpu time spent up to now is        3.1 secs

     total energy              =     -31.84317828 Ry
     Harris-Foulkes estimate   =     -32.14520486 Ry
     estimated scf accuracy    <       1.27652964 Ry

     iteration #  5     ecut=    30.00 Ry     beta=0.70
     Davidson diagonalization with overlap
     ethr =  1.00E-02,  avg # of iterations =  1.0

     negative rho (up, down):  6.500E-04 0.000E+00

     total cpu time spent up to now is        3.2 secs

     total energy              =     -31.79942470 Ry
     Harris-Foulkes estimate   =     -31.93709145 Ry
     estimated scf accuracy    <       1.56158618 Ry

     iteration #  6     ecut=    30.00 Ry     beta=0.70
     Davidson diagonalization with overlap
     ethr =  1.00E-02,  avg # of iterations =  1.0

     negative rho (up, down):  2.175E-04 0.000E+00

     total cpu time spent up to now is        3.2 secs

     total energy              =     -31.94681721 Ry
     Harris-Foulkes estimate   =     -31.97100514 Ry
     estimated scf accuracy    <       0.97731463 Ry

     iteration #  7     ecut=    30.00 Ry     beta=0.70
     Davidson diagonalization with overlap
     ethr =  1.00E-02,  avg # of iterations =  1.0

     negative rho (up, down):  1.167E-05 0.000E+00

     total cpu time spent up to now is        3.2 secs

     total energy              =     -31.85274176 Ry
     Harris-Foulkes estimate   =     -31.94689387 Ry
     estimated scf accuracy    <       0.93705566 Ry

     iteration #  8     ecut=    30.00 Ry     beta=0.70
     Davidson diagonalization with overlap
     ethr =  1.00E-02,  avg # of iterations =  1.0

     negative rho (up, down):  1.442E-05 0.000E+00

     total cpu time spent up to now is        3.3 secs

     total energy              =     -31.90978799 Ry
     Harris-Foulkes estimate   =     -31.95390787 Ry
     estimated scf accuracy    <       1.54818508 Ry

     iteration #  9     ecut=    30.00 Ry     beta=0.70
     Davidson diagonalization with overlap
     ethr =  1.00E-02,  avg # of iterations =  1.0

     negative rho (up, down):  8.845E-06 0.000E+00

     total cpu time spent up to now is        3.3 secs

     total energy              =     -31.90444544 Ry
     Harris-Foulkes estimate   =     -31.91655432 Ry
     estimated scf accuracy    <       0.29605816 Ry

     iteration # 10     ecut=    30.00 Ry     beta=0.70
     Davidson diagonalization with overlap
     ethr =  3.70E-03,  avg # of iterations =  1.0

     negative rho (up, down):  2.569E-07 0.000E+00

     total cpu time spent up to now is        3.3 secs

     total energy              =     -31.90300433 Ry
     Harris-Foulkes estimate   =     -31.91440257 Ry
     estimated scf accuracy    <       0.10661922 Ry

     iteration # 11     ecut=    30.00 Ry     beta=0.70
     Davidson diagonalization with overlap
     ethr =  1.33E-03,  avg # of iterations =  1.0

     total cpu time spent up to now is        3.4 secs

     total energy              =     -31.89417429 Ry
     Harris-Foulkes estimate   =     -31.92745858 Ry
     estimated scf accuracy    <       1.04074824 Ry

     iteration # 12     ecut=    30.00 Ry     beta=0.70
     Davidson diagonalization with overlap
     ethr =  1.33E-03,  avg # of iterations =  1.0

     total cpu time spent up to now is        3.4 secs

     total energy              =     -31.91336132 Ry
     Harris-Foulkes estimate   =     -31.91351406 Ry
     estimated scf accuracy    <       0.04485502 Ry

     iteration # 13     ecut=    30.00 Ry     beta=0.70
     Davidson diagonalization with overlap
     ethr =  5.61E-04,  avg # of iterations =  1.0

     total cpu time spent up to now is        3.4 secs

     total energy              =     -31.91332710 Ry
     Harris-Foulkes estimate   =     -31.91337409 Ry
     estimated scf accuracy    <       0.03466205 Ry

     iteration # 14     ecut=    30.00 Ry     beta=0.70
     Davidson diagonalization with overlap
     ethr =  4.33E-04,  avg # of iterations =  1.0

     total cpu time spent up to now is        3.5 secs

     total energy              =     -31.91332728 Ry
     Harris-Foulkes estimate   =     -31.91332847 Ry
     estimated scf accuracy    <       0.03141777 Ry

     iteration # 15     ecut=    30.00 Ry     beta=0.70
     Davidson diagonalization with overlap
     ethr =  3.93E-04,  avg # of iterations =  1.0

     total cpu time spent up to now is        3.5 secs

     total energy              =     -31.91351032 Ry
     Harris-Foulkes estimate   =     -31.91332732 Ry
     estimated scf accuracy    <       0.03134988 Ry

     iteration # 16     ecut=    30.00 Ry     beta=0.70
     Davidson diagonalization with overlap
     ethr =  3.92E-04,  avg # of iterations =  1.0

     total cpu time spent up to now is        3.5 secs

     total energy              =     -31.91336048 Ry
     Harris-Foulkes estimate   =     -31.91352937 Ry
     estimated scf accuracy    <       0.04590033 Ry

     iteration # 17     ecut=    30.00 Ry     beta=0.70
     Davidson diagonalization with overlap
     ethr =  3.92E-04,  avg # of iterations =  1.0

     negative rho (up, down):  1.535E-08 0.000E+00

     total cpu time spent up to now is        3.6 secs

     total energy              =     -31.91251282 Ry
     Harris-Foulkes estimate   =     -31.91337149 Ry
     estimated scf accuracy    <       0.03457503 Ry

     iteration # 18     ecut=    30.00 Ry     beta=0.70
     Davidson diagonalization with overlap
     ethr =  3.92E-04,  avg # of iterations =  1.0

     total cpu time spent up to now is        3.6 secs

     total energy              =     -31.91290227 Ry
     Harris-Foulkes estimate   =     -31.91290678 Ry
     estimated scf accuracy    <       0.00014141 Ry

     iteration # 19     ecut=    30.00 Ry     beta=0.70
     Davidson diagonalization with overlap
     ethr =  1.77E-06,  avg # of iterations = 10.0

     total cpu time spent up to now is        3.6 secs

     total energy              =     -31.91290568 Ry
     Harris-Foulkes estimate   =     -31.91290561 Ry
     estimated scf accuracy    <       0.00001184 Ry

     iteration # 20     ecut=    30.00 Ry     beta=0.70
     Davidson diagonalization with overlap
     ethr =  1.48E-07,  avg # of iterations =  1.0

     total cpu time spent up to now is        3.7 secs

     total energy              =     -31.91290628 Ry
     Harris-Foulkes estimate   =     -31.91290588 Ry
     estimated scf accuracy    <       0.00000092 Ry

     iteration # 21     ecut=    30.00 Ry     beta=0.70
     Davidson diagonalization with overlap
     ethr =  1.15E-08,  avg # of iterations =  1.0

     total cpu time spent up to now is        3.7 secs

     total energy              =     -31.91290649 Ry
     Harris-Foulkes estimate   =     -31.91290632 Ry
     estimated scf accuracy    <       0.00000059 Ry

     iteration # 22     ecut=    30.00 Ry     beta=0.70
     Davidson diagonalization with overlap
     ethr =  7.42E-09,  avg # of iterations =  1.0

     total cpu time spent up to now is        3.7 secs

     total energy              =     -31.91290652 Ry
     Harris-Foulkes estimate   =     -31.91290650 Ry
     estimated scf accuracy    <       0.00000042 Ry

     iteration # 23     ecut=    30.00 Ry     beta=0.70
     Davidson diagonalization with overlap
     ethr =  5.21E-09,  avg # of iterations =  1.0

     total cpu time spent up to now is        3.8 secs

     total energy              =     -31.91290595 Ry
     Harris-Foulkes estimate   =     -31.91290653 Ry
     estimated scf accuracy    <       0.00000029 Ry

     iteration # 24     ecut=    30.00 Ry     beta=0.70
     Davidson diagonalization with overlap
     ethr =  3.64E-09,  avg # of iterations =  1.0

     total cpu time spent up to now is        3.8 secs

     total energy              =     -31.91290601 Ry
     Harris-Foulkes estimate   =     -31.91290603 Ry
     estimated scf accuracy    <       0.00000546 Ry

     iteration # 25     ecut=    30.00 Ry     beta=0.70
     Davidson diagonalization with overlap
     ethr =  3.64E-09,  avg # of iterations =  1.0

     total cpu time spent up to now is        3.8 secs

     total energy              =     -31.91290616 Ry
     Harris-Foulkes estimate   =     -31.91290611 Ry
     estimated scf accuracy    <       0.00000009 Ry

     iteration # 26     ecut=    30.00 Ry     beta=0.70
     Davidson diagonalization with overlap
     ethr =  1.18E-09,  avg # of iterations =  1.0

     total cpu time spent up to now is        3.9 secs

     End of self-consistent calculation

          k = 0.0000 0.0000 0.0000 ( 22119 PWs)   bands (ev):

   -24.1893 -10.1237  -7.0046  -7.0043  -6.8683  -1.3663   0.1174   0.7967

     the Fermi energy is    -6.8352 ev

!    total energy              =     -31.91290619 Ry
     Harris-Foulkes estimate   =     -31.91290616 Ry
     estimated scf accuracy    <          6.9E-09 Ry

     convergence has been achieved in  26 iterations

     Forces acting on atoms (Ry/au):

     atom    1 type  1   force =     0.00014415   -0.00025979   -0.00002219
     atom    2 type  1   force =     0.04823562    0.11412948   -0.12647957
     atom    3 type  2   force =    -0.04837977   -0.11386969    0.12650176

     Total force =     0.250318     Total SCF correction =     0.000064

     Entering Dynamics:    iteration =     2
                           time      =   0.0097 pico-seconds


     Andersen thermostat:    3 collisions

ATOMIC_POSITIONS (bohr)
H       11.179119694   1.981897256  14.399679752
H       11.387856597   8.540813309   5.466114472
O       11.228347140   8.910602368   4.879081274


     kinetic energy (Ekin) =     0.02808978 Ry
     temperature           =  1478.34030501 K 
     Ekin + Etot (const)   =   -31.88481641 Ry
     Message from routine dynamics:
     Total linear momentum <> 0

     Linear momentum :    0.2087019646   -0.1221705797   -0.2107919911

     Writing output data file pwscf.save

     first order wave-functions extrapolation
     Check: negative starting charge=   -0.349213
     first order charge density extrapolation
     Check: negative starting charge=   -0.352099

     negative rho (up, down):  3.697E-01 0.000E+00

     total cpu time spent up to now is        4.2 secs

     per-process dynamical memory:    20.4 Mb

     Self-consistent Calculation

     iteration #  1     ecut=    30.00 Ry     beta=0.70
     Davidson diagonalization with overlap
     c_bands:  1 eigenvalues not converged
     ethr =  1.00E-06,  avg # of iterations = 20.0

     negative rho (up, down):  8.942E-02 0.000E+00

     total cpu time spent up to now is        4.3 secs

     total energy              =      -4.12560459 Ry
     Harris-Foulkes estimate   =     -42.92138988 Ry
     estimated scf accuracy    <       6.65658761 Ry

     iteration #  2     ecut=    30.00 Ry     beta=0.70
     Davidson diagonalization with overlap
     ethr =  1.00E-02,  avg # of iterations =  3.0

     negative rho (up, down):  5.375E-02 0.000E+00

     total cpu time spent up to now is        4.3 secs

     total energy              =     -27.36825338 Ry
     Harris-Foulkes estimate   =     -30.12271842 Ry
     estimated scf accuracy    <       5.65335855 Ry

     iteration #  3     ecut=    30.00 Ry     beta=0.70
     Davidson diagonalization with overlap
     ethr =  1.00E-02,  avg # of iterations =  2.0

     negative rho (up, down):  4.621E-02 0.000E+00

     total cpu time spent up to now is        4.3 secs

     total energy              =     -27.61797746 Ry
     Harris-Foulkes estimate   =     -28.36261544 Ry
     estimated scf accuracy    <       3.19484445 Ry

     iteration #  4     ecut=    30.00 Ry     beta=0.70
     Davidson diagonalization with overlap
     ethr =  1.00E-02,  avg # of iterations =  1.0

     negative rho (up, down):  2.864E-02 0.000E+00

     total cpu time spent up to now is        4.4 secs

     total energy              =     -26.92065589 Ry
     Harris-Foulkes estimate   =     -27.63503008 Ry
     estimated scf accuracy    <       1.89551477 Ry

     iteration #  5     ecut=    30.00 Ry     beta=0.70
     Davidson diagonalization with overlap
     ethr =  1.00E-02,  avg # of iterations =  1.0

     negative rho (up, down):  1.039E-02 0.000E+00

     total cpu time spent up to now is        4.4 secs

     total energy              =     -27.29177204 Ry
     Harris-Foulkes estimate   =     -27.83705157 Ry
     estimated scf accuracy    <       2.62584463 Ry

     iteration #  6     ecut=    30.00 Ry     beta=0.70
     Davidson diagonalization with overlap
     ethr =  1.00E-02,  avg # of iterations =  1.0

     negative rho (up, down):  6.938E-03 0.000E+00

     total cpu time spent up to now is        4.4 secs

     total energy              =     -27.08417649 Ry
     Harris-Foulkes estimate   =     -27.30338801 Ry
     estimated scf accuracy    <       1.77367832 Ry

     iteration #  7     ecut=    30.00 Ry     beta=0.70
     Davidson diagonalization with overlap
     ethr =  1.00E-02,  avg # of iterations =  1.0

     negative rho (up, down):  4.707E-03 0.000E+00

     total cpu time spent up to now is        4.5 secs

     total energy              =     -26.76807520 Ry
     Harris-Foulkes estimate   =     -27.08413733 Ry
     estimated scf accuracy    <       1.77540847 Ry

     iteration #  8     ecut=    30.00 Ry     beta=0.70
     Davidson diagonalization with overlap
     ethr =  1.00E-02,  avg # of iterations =  1.0

     negative rho (up, down):  9.193E-04 0.000E+00

     total cpu time spent up to now is        4.5 secs

     total energy              =     -27.24386814 Ry
     Harris-Foulkes estimate   =     -27.24694133 Ry
     estimated scf accuracy    <       1.14685723 Ry

     iteration #  9     ecut=    30.00 Ry     beta=0.70
     Davidson diagonalization with overlap
     ethr =  1.00E-02,  avg # of iterations =  1.0

     negative rho (up, down):  1.128E-04 0.000E+00

     total cpu time spent up to now is        4.5 secs

     total energy              =     -27.11772676 Ry
     Harris-Foulkes estimate   =     -27.24445776 Ry
     estimated scf accuracy    <       1.10296156 Ry

     iteration # 10     ecut=    30.00 Ry     beta=0.70
     Davidson diagonalization with overlap
     ethr =  1.00E-02,  avg # of iterations =  1.0

     negative rho (up, down):  9.494E-08 0.000E+00

     total cpu time spent up to now is        4.6 secs

     total energy              =     -27.02591183 Ry
     Harris-Foulkes estimate   =     -27.11960175 Ry
     estimated scf accuracy    <       0.89756850 Ry

     iteration # 11     ecut=    30.00 Ry     beta=0.70
     Davidson diagonalization with overlap
     ethr =  1.00E-02,  avg # of iterations =  1.0

     total cpu time spent up to now is        4.6 secs

     total energy              =     -27.03105882 Ry
     Harris-Foulkes estimate   =     -27.07507035 Ry
     estimated scf accuracy    <       0.99669928 Ry

     iteration # 12     ecut=    30.00 Ry     beta=0.70
     Davidson diagonalization with overlap
     ethr =  1.00E-02,  avg # of iterations =  1.0

     total cpu time spent up to now is        4.6 secs

     total energy              =     -27.04114406 Ry
     Harris-Foulkes estimate   =     -27.06895883 Ry
     estimated scf accuracy    <       0.38893778 Ry

     iteration # 13     ecut=    30.00 Ry     beta=0.70
     Davidson diagonalization with overlap
     ethr =  4.86E-03,  avg # of iterations =  1.0

     total cpu time spent up to now is        4.7 secs

     total energy              =     -27.01839804 Ry
     Harris-Foulkes estimate   =     -27.07596982 Ry
     estimated scf accuracy    <       1.05908341 Ry

     iteration # 14     ecut=    30.00 Ry     beta=0.70
     Davidson diagonalization with overlap
     ethr =  4.86E-03,  avg # of iterations =  1.0

     total cpu time spent up to now is        4.7 secs

     total energy              =     -27.04124111 Ry
     Harris-Foulkes estimate   =     -27.07721852 Ry
     estimated scf accuracy    <       0.66624633 Ry

     iteration # 15     ecut=    30.00 Ry     beta=0.70
     Davidson diagonalization with overlap
     ethr =  4.86E-03,  avg # of iterations =  1.0

     total cpu time spent up to now is        4.7 secs

     total energy              =     -27.05651327 Ry
     Harris-Foulkes estimate   =     -27.06618994 Ry
     estimated scf accuracy    <       0.32930332 Ry

     iteration # 16     ecut=    30.00 Ry     beta=0.70
     Davidson diagonalization with overlap
     ethr =  4.12E-03,  avg # of iterations =  1.0

     total cpu time spent up to now is        4.8 secs

     total energy              =     -27.06185294 Ry
     Harris-Foulkes estimate   =     -27.06243469 Ry
     estimated scf accuracy    <       0.01458004 Ry

     iteration # 17     ecut=    30.00 Ry     beta=0.70
     Davidson diagonalization with overlap
     ethr =  1.82E-04,  avg # of iterations =  1.0

     total cpu time spent up to now is        4.8 secs

     total energy              =     -27.06222197 Ry
     Harris-Foulkes estimate   =     -27.06230469 Ry
     estimated scf accuracy    <       0.00480687 Ry

     iteration # 18     ecut=    30.00 Ry     beta=0.70
     Davidson diagonalization with overlap
     ethr =  6.01E-05,  avg # of iterations = 13.0

     total cpu time spent up to now is        4.8 secs

     total energy              =     -27.06224556 Ry
     Harris-Foulkes estimate   =     -27.06224976 Ry
     estimated scf accuracy    <       0.00047885 Ry

     iteration # 19     ecut=    30.00 Ry     beta=0.70
     Davidson diagonalization with overlap
     ethr =  5.99E-06,  avg # of iterations = 12.0

     total cpu time spent up to now is        4.9 secs

     total energy              =     -27.06223986 Ry
     Harris-Foulkes estimate   =     -27.06224614 Ry
     estimated scf accuracy    <       0.00022763 Ry

     iteration # 20     ecut=    30.00 Ry     beta=0.70
     Davidson diagonalization with overlap
     ethr =  2.85E-06,  avg # of iterations =  1.0

     total cpu time spent up to now is        4.9 secs

     total energy              =     -27.06224304 Ry
     Harris-Foulkes estimate   =     -27.06224314 Ry
     estimated scf accuracy    <       0.00000127 Ry

     iteration # 21     ecut=    30.00 Ry     beta=0.70
     Davidson diagonalization with overlap
     ethr =  1.58E-08,  avg # of iterations =  1.0

     total cpu time spent up to now is        5.0 secs

     total energy              =     -27.06224300 Ry
     Harris-Foulkes estimate   =     -27.06224305 Ry
     estimated scf accuracy    <       0.00000006 Ry

     iteration # 22     ecut=    30.00 Ry     beta=0.70
     Davidson diagonalization with overlap
     ethr =  7.79E-10,  avg # of iterations =  1.0

     total cpu time spent up to now is        5.0 secs

     total energy              =     -27.06224287 Ry
     Harris-Foulkes estimate   =     -27.06224311 Ry
     estimated scf accuracy    <       0.00000711 Ry

     iteration # 23     ecut=    30.00 Ry     beta=0.70
     Davidson diagonalization with overlap
     ethr =  7.79E-10,  avg # of iterations =  1.0

     total cpu time spent up to now is        5.0 secs

     total energy              =     -27.06224298 Ry
     Harris-Foulkes estimate   =     -27.06224298 Ry
     estimated scf accuracy    <       0.00000012 Ry

     iteration # 24     ecut=    30.00 Ry     beta=0.70
     Davidson diagonalization with overlap
     ethr =  7.79E-10,  avg # of iterations =  1.0

     total cpu time spent up to now is        5.0 secs

     End of self-consistent calculation

          k = 0.0000 0.0000 0.0000 ( 22119 PWs)   bands (ev):

   -31.2804 -11.8089  -7.5730  -7.5723  -7.4131  -0.3215   0.5782   0.7455

     the Fermi energy is    -7.3954 ev

!    total energy              =     -27.06224298 Ry
     Harris-Foulkes estimate   =     -27.06224298 Ry
     estimated scf accuracy    <          4.0E-11 Ry

     convergence has been achieved in  24 iterations

     Forces acting on atoms (Ry/au):

     atom    1 type  1   force =    -0.00006121    0.00005437   -0.00025441
     atom    2 type  1   force =     4.36004819  -10.10591827   16.04293430
     atom    3 type  2   force =    -4.35998698   10.10586391  -16.04267989

     Total force =    27.514013     Total SCF correction =     0.000001

     Entering Dynamics:    iteration =     3
                           time      =   0.0145 pico-seconds


     Andersen thermostat:    3 collisions

ATOMIC_POSITIONS (bohr)
H       11.348022367   1.899924831  14.413644219
H       58.766340304-100.987414438 179.656069553
O        8.226918375  15.829746254  -6.117541147


     kinetic energy (Ekin) =   544.44946190 Ry
     temperature           = ************** K 
     Ekin + Etot (const)   =   517.38721892 Ry
     Message from routine dynamics:
     Total linear momentum <> 0

     Linear momentum :   -0.0721707862    0.1973765866    0.2614270431

     Writing output data file pwscf.save

     second order wave-functions extrapolation
     Check: negative starting charge=   -0.352099
     second order charge density extrapolation
     Check: negative starting charge=   -0.343466

     negative rho (up, down):  9.124E+01 0.000E+00

     total cpu time spent up to now is        5.4 secs

     per-process dynamical memory:    20.4 Mb

     Self-consistent Calculation

     iteration #  1     ecut=    30.00 Ry     beta=0.70
     Davidson diagonalization with overlap
     c_bands:  5 eigenvalues not converged
     ethr =  1.00E-06,  avg # of iterations = 40.0

     negative rho (up, down):  2.656E+01 0.000E+00

     total cpu time spent up to now is        5.8 secs

     total energy              =    -286.40320961 Ry
     Harris-Foulkes estimate   =  -14064.13845404 Ry
     estimated scf accuracy    <    2981.39714518 Ry

     iteration #  2     ecut=    30.00 Ry     beta=0.70
     Davidson diagonalization with overlap
     ethr =  1.00E-02,  avg # of iterations = 18.0

     negative rho (up, down):  5.302E-02 0.000E+00

     total cpu time spent up to now is        5.9 secs

     total energy              =     162.48412650 Ry
     Harris-Foulkes estimate   =   -2212.84466979 Ry
     estimated scf accuracy    <     326.45981916 Ry

     iteration #  3     ecut=    30.00 Ry     beta=0.70
     Davidson diagonalization with overlap
     ethr =  1.00E-02,  avg # of iterations = 13.0

     negative rho (up, down):  1.550E-03 0.000E+00

     total cpu time spent up to now is        5.9 secs

     total energy              =      35.34423807 Ry
     Harris-Foulkes estimate   =    -184.31672762 Ry
     estimated scf accuracy    <      43.67638604 Ry

     iteration #  4     ecut=    30.00 Ry     beta=0.70
     Davidson diagonalization with overlap
     ethr =  1.00E-02,  avg # of iterations =  5.0

     negative rho (up, down):  1.281E-03 0.000E+00

     total cpu time spent up to now is        6.0 secs

     total energy              =     -73.67253991 Ry
     Harris-Foulkes estimate   =     -73.48181110 Ry
     estimated scf accuracy    <      56.06926576 Ry

     iteration #  5     ecut=    30.00 Ry     beta=0.70
     Davidson diagonalization with overlap
     ethr =  1.00E-02,  avg # of iterations =  1.0

     negative rho (up, down):  9.540E-01 0.000E+00

     total cpu time spent up to now is        6.0 secs

     total energy              =    -479.68655807 Ry
     Harris-Foulkes estimate   =     -73.67319485 Ry
     estimated scf accuracy    <      56.28268831 Ry

     iteration #  6     ecut=    30.00 Ry     beta=0.70
     Davidson diagonalization with overlap
     ethr =  1.00E-02,  avg # of iterations =  7.0

     negative rho (up, down):  9.941E-01 0.000E+00

     total cpu time spent up to now is        6.1 secs

     total energy              =      11.36195424 Ry
     Harris-Foulkes estimate   =   -5729.31673529 Ry
     estimated scf accuracy    <      42.89756926 Ry

     iteration #  7     ecut=    30.00 Ry     beta=0.70
     Davidson diagonalization with overlap
     ethr =  1.00E-02,  avg # of iterations =  7.0

     negative rho (up, down):  9.239E-01 0.000E+00

     total cpu time spent up to now is        6.1 secs

     total energy              =    -166.02590457 Ry
     Harris-Foulkes estimate   =    -351.42207296 Ry
     estimated scf accuracy    <      47.21798282 Ry

     iteration #  8     ecut=    30.00 Ry     beta=0.70
     Davidson diagonalization with overlap
     ethr =  1.00E-02,  avg # of iterations =  9.0

     negative rho (up, down):  7.684E-01 0.000E+00

     total cpu time spent up to now is        6.2 secs

     total energy              =    -100.96659218 Ry
     Harris-Foulkes estimate   =   -2157.35279557 Ry
     estimated scf accuracy    <      53.97483504 Ry

     iteration #  9     ecut=    30.00 Ry     beta=0.70
     Davidson diagonalization with overlap
     ethr =  1.00E-02,  avg # of iterations =  8.0

     negative rho (up, down):  5.913E-01 0.000E+00

     total cpu time spent up to now is        6.2 secs

     total energy              =     -21.17176364 Ry
     Harris-Foulkes estimate   =    -484.73823483 Ry
     estimated scf accuracy    <      81.18265804 Ry

     iteration # 10     ecut=    30.00 Ry     beta=0.70
     Davidson diagonalization with overlap
     ethr =  1.00E-02,  avg # of iterations = 10.0

     negative rho (up, down):  7.445E-01 0.000E+00

     total cpu time spent up to now is        6.3 secs

     total energy              =     392.35863789 Ry
     Harris-Foulkes estimate   =    -657.93679651 Ry
     estimated scf accuracy    <      67.35720123 Ry

     iteration # 11     ecut=    30.00 Ry     beta=0.70
     Davidson diagonalization with overlap
     ethr =  1.00E-02,  avg # of iterations =  9.0

     negative rho (up, down):  5.631E-01 0.000E+00

     total cpu time spent up to now is        6.4 secs

     total energy              =      17.02569274 Ry
     Harris-Foulkes estimate   =   -2270.57334847 Ry
     estimated scf accuracy    <     107.08083249 Ry

     iteration # 12     ecut=    30.00 Ry     beta=0.70
     Davidson diagonalization with overlap
     ethr =  1.00E-02,  avg # of iterations = 12.0

     negative rho (up, down):  1.110E-01 0.000E+00

     total cpu time spent up to now is        6.4 secs

     total energy              =      30.38681784 Ry
     Harris-Foulkes estimate   =    -284.77020417 Ry
     estimated scf accuracy    <      71.99595769 Ry

     iteration # 13     ecut=    30.00 Ry     beta=0.70
     Davidson diagonalization with overlap
     ethr =  1.00E-02,  avg # of iterations =  9.0

     negative rho (up, down):  1.218E-01 0.000E+00

     total cpu time spent up to now is        6.5 secs

     total energy              =    -105.48909246 Ry
     Harris-Foulkes estimate   =    -440.05394353 Ry
     estimated scf accuracy    <      47.99451457 Ry

     iteration # 14     ecut=    30.00 Ry     beta=0.70
     Davidson diagonalization with overlap
     ethr =  1.00E-02,  avg # of iterations =  6.0

     negative rho (up, down):  1.116E+00 0.000E+00

     total cpu time spent up to now is        6.6 secs

     total energy              =    -217.59902766 Ry
     Harris-Foulkes estimate   =    -934.97234091 Ry
     estimated scf accuracy    <      34.50877327 Ry

     iteration # 15     ecut=    30.00 Ry     beta=0.70
     Davidson diagonalization with overlap
     ethr =  1.00E-02,  avg # of iterations =  8.0

     negative rho (up, down):  1.202E+00 0.000E+00

     total cpu time spent up to now is        6.6 secs

     total energy              =      82.14274847 Ry
     Harris-Foulkes estimate   =   -8963.99841238 Ry
     estimated scf accuracy    <      36.20203546 Ry

     iteration # 16     ecut=    30.00 Ry     beta=0.70
     Davidson diagonalization with overlap
     ethr =  1.00E-02,  avg # of iterations =  7.0

     negative rho (up, down):  1.112E+00 0.000E+00

     total cpu time spent up to now is        6.7 secs

     total energy              =      63.79900316 Ry
     Harris-Foulkes estimate   =  -12632.65677773 Ry
     estimated scf accuracy    <      26.93701070 Ry

     iteration # 17     ecut=    30.00 Ry     beta=0.70
     Davidson diagonalization with overlap
     ethr =  1.00E-02,  avg # of iterations =  7.0

     negative rho (up, down):  8.546E-01 0.000E+00

     total cpu time spent up to now is        6.7 secs

     total energy              =    -804.75584837 Ry
     Harris-Foulkes estimate   =   -4698.93941243 Ry
     estimated scf accuracy    <      20.18829032 Ry

     iteration # 18     ecut=    30.00 Ry     beta=0.70
     Davidson diagonalization with overlap
     ethr =  1.00E-02,  avg # of iterations =  7.0

     negative rho (up, down):  4.670E-01 0.000E+00

     total cpu time spent up to now is        6.8 secs

     total energy              =      84.02136443 Ry
     Harris-Foulkes estimate   =   -8362.20159593 Ry
     estimated scf accuracy    <      27.68254925 Ry

     iteration # 19     ecut=    30.00 Ry     beta=0.70
     Davidson diagonalization with overlap
     ethr =  1.00E-02,  avg # of iterations =  8.0

     negative rho (up, down):  3.490E-02 0.000E+00

     total cpu time spent up to now is        6.8 secs

     total energy              =      53.91264144 Ry
     Harris-Foulkes estimate   =    -332.15424803 Ry
     estimated scf accuracy    <      20.25425215 Ry

     iteration # 20     ecut=    30.00 Ry     beta=0.70
     Davidson diagonalization with overlap
     ethr =  1.00E-02,  avg # of iterations =  7.0

     negative rho (up, down):  2.509E-02 0.000E+00

     total cpu time spent up to now is        6.9 secs

     total energy              =      43.96509351 Ry
     Harris-Foulkes estimate   =    -525.67452317 Ry
     estimated scf accuracy    <      26.84257508 Ry

     iteration # 21     ecut=    30.00 Ry     beta=0.70
     Davidson diagonalization with overlap
     ethr =  1.00E-02,  avg # of iterations =  8.0

     negative rho (up, down):  2.641E-03 0.000E+00

     total cpu time spent up to now is        6.9 secs

     total energy              =      23.44972694 Ry
     Harris-Foulkes estimate   =    -653.43472405 Ry
     estimated scf accuracy    <      19.95205241 Ry

     iteration # 22     ecut=    30.00 Ry     beta=0.70
     Davidson diagonalization with overlap
     ethr =  1.00E-02,  avg # of iterations =  7.0

     negative rho (up, down):  1.883E-04 0.000E+00

     total cpu time spent up to now is        7.0 secs

     total energy              =     -10.05101615 Ry
     Harris-Foulkes estimate   =     -72.46530920 Ry
     estimated scf accuracy    <      17.58996659 Ry

     iteration # 23     ecut=    30.00 Ry     beta=0.70
     Davidson diagonalization with overlap
     ethr =  1.00E-02,  avg # of iterations =  4.0

     negative rho (up, down):  1.984E-02 0.000E+00

     total cpu time spent up to now is        7.0 secs

     total energy              =     -49.66148888 Ry
     Harris-Foulkes estimate   =     -47.97457712 Ry
     estimated scf accuracy    <      26.72503357 Ry

     iteration # 24     ecut=    30.00 Ry     beta=0.70
     Davidson diagonalization with overlap
     ethr =  1.00E-02,  avg # of iterations =  7.0

     negative rho (up, down):  4.401E-02 0.000E+00

     total cpu time spent up to now is        7.1 secs

     total energy              =      88.87430488 Ry
     Harris-Foulkes estimate   =   -1777.96291574 Ry
     estimated scf accuracy    <      23.15766767 Ry

     iteration # 25     ecut=    30.00 Ry     beta=0.70
     Davidson diagonalization with overlap
     ethr =  1.00E-02,  avg # of iterations =  7.0

     negative rho (up, down):  1.321E-01 0.000E+00

     total cpu time spent up to now is        7.1 secs

     total energy              =    -224.73455489 Ry
     Harris-Foulkes estimate   =    -151.30252486 Ry
     estimated scf accuracy    <      20.98828350 Ry

     iteration # 26     ecut=    30.00 Ry     beta=0.70
     Davidson diagonalization with overlap
     ethr =  1.00E-02,  avg # of iterations =  5.0

     negative rho (up, down):  2.555E-01 0.000E+00

     total cpu time spent up to now is        7.2 secs

     total energy              =      35.98230584 Ry
     Harris-Foulkes estimate   =   -4043.08829090 Ry
     estimated scf accuracy    <      20.53719375 Ry

     iteration # 27     ecut=    30.00 Ry     beta=0.70
     Davidson diagonalization with overlap
     ethr =  1.00E-02,  avg # of iterations =  7.0

     negative rho (up, down):  3.133E-01 0.000E+00

     total cpu time spent up to now is        7.2 secs

     total energy              =      12.95492045 Ry
     Harris-Foulkes estimate   =    -315.17482454 Ry
     estimated scf accuracy    <      13.32873322 Ry

     iteration # 28     ecut=    30.00 Ry     beta=0.70
     Davidson diagonalization with overlap
     ethr =  1.00E-02,  avg # of iterations = 10.0

     negative rho (up, down):  3.293E-01 0.000E+00

     total cpu time spent up to now is        7.3 secs

     total energy              =      65.20643828 Ry
     Harris-Foulkes estimate   =    -410.54571411 Ry
     estimated scf accuracy    <      17.26344811 Ry

     iteration # 29     ecut=    30.00 Ry     beta=0.70
     Davidson diagonalization with overlap
     ethr =  1.00E-02,  avg # of iterations =  4.0

     negative rho (up, down):  3.092E-01 0.000E+00

     total cpu time spent up to now is        7.3 secs

     total energy              =     -37.32785491 Ry
     Harris-Foulkes estimate   =    -333.24773168 Ry
     estimated scf accuracy    <      21.99975672 Ry

     iteration # 30     ecut=    30.00 Ry     beta=0.70
     Davidson diagonalization with overlap
     ethr =  1.00E-02,  avg # of iterations =  6.0

     negative rho (up, down):  3.340E-06 0.000E+00

     total cpu time spent up to now is        7.4 secs

     total energy              =      27.83588855 Ry
     Harris-Foulkes estimate   =    -154.41092050 Ry
     estimated scf accuracy    <      10.56805535 Ry

     iteration # 31     ecut=    30.00 Ry     beta=0.70
     Davidson diagonalization with overlap
     ethr =  1.00E-02,  avg # of iterations =  8.0

     negative rho (up, down):  6.017E-02 0.000E+00

     total cpu time spent up to now is        7.4 secs

     total energy              =     -41.16236074 Ry
     Harris-Foulkes estimate   =     -41.88381620 Ry
     estimated scf accuracy    <      18.59261309 Ry

     iteration # 32     ecut=    30.00 Ry     beta=0.70
     Davidson diagonalization with overlap
     ethr =  1.00E-02,  avg # of iterations =  7.0

     negative rho (up, down):  2.246E-02 0.000E+00

     total cpu time spent up to now is        7.5 secs

     total energy              =      32.91191332 Ry
     Harris-Foulkes estimate   =    -107.63229634 Ry
     estimated scf accuracy    <      18.59952186 Ry

     iteration # 33     ecut=    30.00 Ry     beta=0.70
     Davidson diagonalization with overlap
     ethr =  1.00E-02,  avg # of iterations =  5.0

     negative rho (up, down):  1.356E-01 0.000E+00

     total cpu time spent up to now is        7.5 secs

     total energy              =     -22.20462916 Ry
     Harris-Foulkes estimate   =    -229.60721385 Ry
     estimated scf accuracy    <       9.46588107 Ry

     iteration # 34     ecut=    30.00 Ry     beta=0.70
     Davidson diagonalization with overlap
     ethr =  1.00E-02,  avg # of iterations = 10.0

     negative rho (up, down):  7.300E-02 0.000E+00

     total cpu time spent up to now is        7.6 secs

     total energy              =      30.58486031 Ry
     Harris-Foulkes estimate   =    -899.47508453 Ry
     estimated scf accuracy    <      44.67062029 Ry

     iteration # 35     ecut=    30.00 Ry     beta=0.70
     Davidson diagonalization with overlap
     ethr =  1.00E-02,  avg # of iterations =  9.0

     negative rho (up, down):  1.146E-01 0.000E+00

     total cpu time spent up to now is        7.6 secs

     total energy              =      41.26280718 Ry
     Harris-Foulkes estimate   =    -628.71481761 Ry
     estimated scf accuracy    <      11.32536291 Ry

     iteration # 36     ecut=    30.00 Ry     beta=0.70
     Davidson diagonalization with overlap
     ethr =  1.00E-02,  avg # of iterations = 10.0

     negative rho (up, down):  2.962E-02 0.000E+00

     total cpu time spent up to now is        7.7 secs

     total energy              =       3.45692751 Ry
     Harris-Foulkes estimate   =     -69.69889482 Ry
     estimated scf accuracy    <       9.86421192 Ry

     iteration # 37     ecut=    30.00 Ry     beta=0.70
     Davidson diagonalization with overlap
     ethr =  1.00E-02,  avg # of iterations =  9.0

     negative rho (up, down):  2.602E-02 0.000E+00

     total cpu time spent up to now is        7.7 secs

     total energy              =   -2679.05187985 Ry
     Harris-Foulkes estimate   =    -115.35366343 Ry
     estimated scf accuracy    <      32.30256552 Ry

     iteration # 38     ecut=    30.00 Ry     beta=0.70
     Davidson diagonalization with overlap
     ethr =  1.00E-02,  avg # of iterations =  7.0

     negative rho (up, down):  5.297E-02 0.000E+00

     total cpu time spent up to now is        7.8 secs

     total energy              =       5.27979256 Ry
     Harris-Foulkes estimate   =   -9622.71391401 Ry
     estimated scf accuracy    <       6.48814886 Ry

     iteration # 39     ecut=    30.00 Ry     beta=0.70
     Davidson diagonalization with overlap
     ethr =  1.00E-02,  avg # of iterations =  6.0

     negative rho (up, down):  1.265E-01 0.000E+00

     total cpu time spent up to now is        7.8 secs

     total energy              =      -5.98529912 Ry
     Harris-Foulkes estimate   =    -128.73711114 Ry
     estimated scf accuracy    <       9.58786844 Ry

     iteration # 40     ecut=    30.00 Ry     beta=0.70
     Davidson diagonalization with overlap
     ethr =  1.00E-02,  avg # of iterations =  5.0

     negative rho (up, down):  1.610E-01 0.000E+00

     total cpu time spent up to now is        7.9 secs

     total energy              =     -12.46435636 Ry
     Harris-Foulkes estimate   =     -57.80597535 Ry
     estimated scf accuracy    <       8.41676279 Ry

     iteration # 41     ecut=    30.00 Ry     beta=0.70
     Davidson diagonalization with overlap
     ethr =  1.00E-02,  avg # of iterations =  5.0

     negative rho (up, down):  1.079E-01 0.000E+00

     total cpu time spent up to now is        7.9 secs

     total energy              =      -4.85137476 Ry
     Harris-Foulkes estimate   =     -67.09413109 Ry
     estimated scf accuracy    <       7.86406763 Ry

     iteration # 42     ecut=    30.00 Ry     beta=0.70
     Davidson diagonalization with overlap
     ethr =  1.00E-02,  avg # of iterations =  9.0

     negative rho (up, down):  1.285E-01 0.000E+00

     total cpu time spent up to now is        7.9 secs

     total energy              =   -1068.14224522 Ry
     Harris-Foulkes estimate   =    -138.66561800 Ry
     estimated scf accuracy    <      25.34235724 Ry

     iteration # 43     ecut=    30.00 Ry     beta=0.70
     Davidson diagonalization with overlap
     ethr =  1.00E-02,  avg # of iterations =  5.0

     negative rho (up, down):  1.180E-01 0.000E+00

     total cpu time spent up to now is        8.0 secs

     total energy              =    -208.06430700 Ry
     Harris-Foulkes estimate   =   -4872.17417717 Ry
     estimated scf accuracy    <      55.34205747 Ry

     iteration # 44     ecut=    30.00 Ry     beta=0.70
     Davidson diagonalization with overlap
     ethr =  1.00E-02,  avg # of iterations =  7.0

     negative rho (up, down):  2.525E-01 0.000E+00

     total cpu time spent up to now is        8.0 secs

     total energy              =      30.77994090 Ry
     Harris-Foulkes estimate   =    -632.90258992 Ry
     estimated scf accuracy    <      10.26955304 Ry

     iteration # 45     ecut=    30.00 Ry     beta=0.70
     Davidson diagonalization with overlap
     ethr =  1.00E-02,  avg # of iterations =  8.0

     negative rho (up, down):  2.165E-01 0.000E+00

     total cpu time spent up to now is        8.1 secs

     total energy              =     -15.52597535 Ry
     Harris-Foulkes estimate   =    -579.74479356 Ry
     estimated scf accuracy    <      46.31757528 Ry

     iteration # 46     ecut=    30.00 Ry     beta=0.70
     Davidson diagonalization with overlap
     ethr =  1.00E-02,  avg # of iterations = 10.0

     negative rho (up, down):  4.251E-01 0.000E+00

     total cpu time spent up to now is        8.2 secs

     total energy              =    -760.54705012 Ry
     Harris-Foulkes estimate   =    -861.18684546 Ry
     estimated scf accuracy    <      23.20180442 Ry

     iteration # 47     ecut=    30.00 Ry     beta=0.70
     Davidson diagonalization with overlap
     ethr =  1.00E-02,  avg # of iterations =  5.0

     negative rho (up, down):  6.774E-01 0.000E+00

     total cpu time spent up to now is        8.2 secs

     total energy              =    -356.28708282 Ry
     Harris-Foulkes estimate   =   -4662.25924550 Ry
     estimated scf accuracy    <      45.43335909 Ry

     iteration # 48     ecut=    30.00 Ry     beta=0.70
     Davidson diagonalization with overlap
     ethr =  1.00E-02,  avg # of iterations =  7.0

     negative rho (up, down):  7.399E-01 0.000E+00

     total cpu time spent up to now is        8.3 secs

     total energy              =     -59.75215702 Ry
     Harris-Foulkes estimate   =   -2204.64236563 Ry
     estimated scf accuracy    <      65.16086172 Ry

     iteration # 49     ecut=    30.00 Ry     beta=0.70
     Davidson diagonalization with overlap
     ethr =  1.00E-02,  avg # of iterations =  8.0

     negative rho (up, down):  7.492E-01 0.000E+00

     total cpu time spent up to now is        8.3 secs

     total energy              =      51.11807305 Ry
     Harris-Foulkes estimate   =    -618.38087993 Ry
     estimated scf accuracy    <      47.63488240 Ry

     iteration # 50     ecut=    30.00 Ry     beta=0.70
     Davidson diagonalization with overlap
     ethr =  1.00E-02,  avg # of iterations =  5.0

     negative rho (up, down):  7.982E-01 0.000E+00

     total cpu time spent up to now is        8.4 secs

     total energy              =      30.74026223 Ry
     Harris-Foulkes estimate   =    -214.85717114 Ry
     estimated scf accuracy    <      59.31852024 Ry

     iteration # 51     ecut=    30.00 Ry     beta=0.70
     Davidson diagonalization with overlap
     ethr =  1.00E-02,  avg # of iterations =  7.0

     negative rho (up, down):  1.343E+00 0.000E+00

     total cpu time spent up to now is        8.4 secs

     total energy              =    -288.31972956 Ry
     Harris-Foulkes estimate   =    -762.35870305 Ry
     estimated scf accuracy    <      41.31782356 Ry

     iteration # 52     ecut=    30.00 Ry     beta=0.70
     Davidson diagonalization with overlap
     ethr =  1.00E-02,  avg # of iterations = 10.0

     negative rho (up, down):  1.136E+00 0.000E+00

     total cpu time spent up to now is        8.5 secs

     total energy              =      20.16839474 Ry
     Harris-Foulkes estimate   =   -1522.06961216 Ry
     estimated scf accuracy    <      35.92491112 Ry

     iteration # 53     ecut=    30.00 Ry     beta=0.70
     Davidson diagonalization with overlap
     ethr =  1.00E-02,  avg # of iterations =  9.0

[...]
     Harris-Foulkes estimate   =   -1765.63886632 Ry
     estimated scf accuracy    <      21.78988698 Ry

     iteration # 59     ecut=    30.00 Ry     beta=0.70
     Davidson diagonalization with overlap
     ethr =  1.00E-02,  avg # of iterations = 10.0

     negative rho (up, down):  6.671E-02 0.000E+00

     total cpu time spent up to now is        8.9 secs

     total energy              =     148.51913535 Ry
     Harris-Foulkes estimate   =    -484.03845892 Ry
     estimated scf accuracy    <      29.52654993 Ry

     iteration # 60     ecut=    30.00 Ry     beta=0.70
     Davidson diagonalization with overlap
     ethr =  1.00E-02,  avg # of iterations =  7.0

     negative rho (up, down):  1.288E-02 0.000E+00

     total cpu time spent up to now is        8.9 secs

     total energy              =     -22.99815656 Ry
     Harris-Foulkes estimate   =    -141.47490569 Ry
     estimated scf accuracy    <      51.27299707 Ry

     iteration # 61     ecut=    30.00 Ry     beta=0.70
     Davidson diagonalization with overlap
     ethr =  1.00E-02,  avg # of iterations =  7.0

     negative rho (up, down):  1.575E-02 0.000E+00

     total cpu time spent up to now is        9.0 secs

     total energy              =    -514.25335715 Ry
     Harris-Foulkes estimate   =    -165.28770805 Ry
     estimated scf accuracy    <      22.29845368 Ry

     iteration # 62     ecut=    30.00 Ry     beta=0.70
     Davidson diagonalization with overlap
     ethr =  1.00E-02,  avg # of iterations =  4.0

     negative rho (up, down):  1.394E-02 0.000E+00

     total cpu time spent up to now is        9.0 secs

     total energy              =     -86.43883950 Ry
     Harris-Foulkes estimate   =   -1154.70946725 Ry
     estimated scf accuracy    <      23.58255951 Ry

     iteration # 63     ecut=    30.00 Ry     beta=0.70
     Davidson diagonalization with overlap
     ethr =  1.00E-02,  avg # of iterations =  4.0

     negative rho (up, down):  2.756E-02 0.000E+00

     total cpu time spent up to now is        9.1 secs

     total energy              =     -40.24205126 Ry
     Harris-Foulkes estimate   =   -1382.65282007 Ry
     estimated scf accuracy    <      37.53166028 Ry

     iteration # 64     ecut=    30.00 Ry     beta=0.70
     Davidson diagonalization with overlap
     ethr =  1.00E-02,  avg # of iterations =  4.0

     negative rho (up, down):  2.024E-01 0.000E+00

     total cpu time spent up to now is        9.1 secs

     total energy              =     -84.28974597 Ry
     Harris-Foulkes estimate   =     -82.83442750 Ry
     estimated scf accuracy    <      67.11426784 Ry

     iteration # 65     ecut=    30.00 Ry     beta=0.70
     Davidson diagonalization with overlap
     ethr =  1.00E-02,  avg # of iterations =  1.0

     negative rho (up, down):  6.477E-01 0.000E+00

     total cpu time spent up to now is        9.2 secs

     total energy              =    -297.71683602 Ry
     Harris-Foulkes estimate   =     -84.30991639 Ry
     estimated scf accuracy    <      69.09789965 Ry

     iteration # 66     ecut=    30.00 Ry     beta=0.70
     Davidson diagonalization with overlap
     ethr =  1.00E-02,  avg # of iterations =  7.0

     negative rho (up, down):  7.920E-01 0.000E+00

     total cpu time spent up to now is        9.2 secs

     total energy              =       3.28275174 Ry
     Harris-Foulkes estimate   =  -42024.21372415 Ry
     estimated scf accuracy    <      32.11329116 Ry

     iteration # 67     ecut=    30.00 Ry     beta=0.70
     Davidson diagonalization with overlap
     ethr =  1.00E-02,  avg # of iterations = 10.0

     negative rho (up, down):  3.495E-01 0.000E+00

     total cpu time spent up to now is        9.3 secs

     total energy              =       8.14694257 Ry
     Harris-Foulkes estimate   =    -979.92931580 Ry
     estimated scf accuracy    <      76.89649353 Ry

     iteration # 68     ecut=    30.00 Ry     beta=0.70
     Davidson diagonalization with overlap
     ethr =  1.00E-02,  avg # of iterations =  7.0

     negative rho (up, down):  7.628E-01 0.000E+00

     total cpu time spent up to now is        9.3 secs

     total energy              =      10.44564463 Ry
     Harris-Foulkes estimate   =    -295.99783304 Ry
     estimated scf accuracy    <      43.65021918 Ry

     iteration # 69     ecut=    30.00 Ry     beta=0.70
     Davidson diagonalization with overlap
     ethr =  1.00E-02,  avg # of iterations =  8.0

     negative rho (up, down):  6.798E-01 0.000E+00

     total cpu time spent up to now is        9.4 secs

     total energy              =     -39.18211992 Ry
     Harris-Foulkes estimate   =   -1234.10941517 Ry
     estimated scf accuracy    <      32.34588523 Ry

     iteration # 70     ecut=    30.00 Ry     beta=0.70
     Davidson diagonalization with overlap
     ethr =  1.00E-02,  avg # of iterations =  8.0

     negative rho (up, down):  6.109E-01 0.000E+00

     total cpu time spent up to now is        9.4 secs

     total energy              =      60.68459483 Ry
     Harris-Foulkes estimate   =    -789.93802616 Ry
     estimated scf accuracy    <      26.49403988 Ry

     iteration # 71     ecut=    30.00 Ry     beta=0.70
     Davidson diagonalization with overlap
     ethr =  1.00E-02,  avg # of iterations =  8.0

     negative rho (up, down):  6.607E-01 0.000E+00

     total cpu time spent up to now is        9.5 secs

     total energy              =     129.83553650 Ry
     Harris-Foulkes estimate   =    -501.19147696 Ry
     estimated scf accuracy    <      35.13280685 Ry

     iteration # 72     ecut=    30.00 Ry     beta=0.70
     Davidson diagonalization with overlap
     ethr =  1.00E-02,  avg # of iterations =  8.0

     negative rho (up, down):  7.647E-01 0.000E+00

     total cpu time spent up to now is        9.6 secs

     total energy              =    -681.11343806 Ry
     Harris-Foulkes estimate   =   -2665.22572026 Ry
     estimated scf accuracy    <      30.32598937 Ry

     iteration # 73     ecut=    30.00 Ry     beta=0.70
     Davidson diagonalization with overlap
     ethr =  1.00E-02,  avg # of iterations =  8.0

     negative rho (up, down):  6.491E-01 0.000E+00

     total cpu time spent up to now is        9.6 secs

     total energy              =     -33.54251318 Ry
     Harris-Foulkes estimate   =   -4451.76272318 Ry
     estimated scf accuracy    <      36.52009706 Ry

     iteration # 74     ecut=    30.00 Ry     beta=0.70
     Davidson diagonalization with overlap
     ethr =  1.00E-02,  avg # of iterations =  8.0

     negative rho (up, down):  7.592E-01 0.000E+00

     total cpu time spent up to now is        9.7 secs

     total energy              =      69.70288020 Ry
     Harris-Foulkes estimate   =   -1206.33394411 Ry
     estimated scf accuracy    <      28.10595188 Ry

     iteration # 75     ecut=    30.00 Ry     beta=0.70
     Davidson diagonalization with overlap
     ethr =  1.00E-02,  avg # of iterations =  8.0

     negative rho (up, down):  3.280E-01 0.000E+00

     total cpu time spent up to now is        9.7 secs

     total energy              =     -19.01738711 Ry
     Harris-Foulkes estimate   =    -644.14713995 Ry
     estimated scf accuracy    <      42.72272530 Ry

     iteration # 76     ecut=    30.00 Ry     beta=0.70
     Davidson diagonalization with overlap
     ethr =  1.00E-02,  avg # of iterations =  7.0

     negative rho (up, down):  1.961E-01 0.000E+00

     total cpu time spent up to now is        9.8 secs

     total energy              =      -1.84692894 Ry
     Harris-Foulkes estimate   =    -680.80960836 Ry
     estimated scf accuracy    <      21.33145418 Ry

     iteration # 77     ecut=    30.00 Ry     beta=0.70
     Davidson diagonalization with overlap
     ethr =  1.00E-02,  avg # of iterations =  7.0

     negative rho (up, down):  1.130E-01 0.000E+00

     total cpu time spent up to now is        9.9 secs

     total energy              =     266.14761944 Ry
     Harris-Foulkes estimate   =   -2357.75153245 Ry
     estimated scf accuracy    <      34.88571357 Ry

     iteration # 78     ecut=    30.00 Ry     beta=0.70
     Davidson diagonalization with overlap
     ethr =  1.00E-02,  avg # of iterations =  7.0

     negative rho (up, down):  9.336E-02 0.000E+00

     total cpu time spent up to now is       10.0 secs

     total energy              =      -5.67643676 Ry
     Harris-Foulkes estimate   =    -692.03664249 Ry
     estimated scf accuracy    <      17.78059105 Ry

     iteration # 79     ecut=    30.00 Ry     beta=0.70
     Davidson diagonalization with overlap
     ethr =  1.00E-02,  avg # of iterations =  5.0

     negative rho (up, down):  9.497E-02 0.000E+00

     total cpu time spent up to now is       10.0 secs

     total energy              =      22.34215691 Ry
     Harris-Foulkes estimate   =    -932.63770136 Ry
     estimated scf accuracy    <      18.56390422 Ry

     iteration # 80     ecut=    30.00 Ry     beta=0.70
     Davidson diagonalization with overlap
     ethr =  1.00E-02,  avg # of iterations =  4.0

     negative rho (up, down):  1.149E-01 0.000E+00

     total cpu time spent up to now is       10.1 secs

     total energy              =    -382.53006582 Ry
     Harris-Foulkes estimate   =     -93.23328498 Ry
     estimated scf accuracy    <      21.36706334 Ry

     iteration # 81     ecut=    30.00 Ry     beta=0.70
     Davidson diagonalization with overlap
     ethr =  1.00E-02,  avg # of iterations =  7.0

     negative rho (up, down):  1.739E-01 0.000E+00

     total cpu time spent up to now is       10.1 secs

     total energy              =    -130.48933865 Ry
     Harris-Foulkes estimate   =   -1361.40887706 Ry
     estimated scf accuracy    <      13.72232044 Ry

     iteration # 82     ecut=    30.00 Ry     beta=0.70
     Davidson diagonalization with overlap
     ethr =  1.00E-02,  avg # of iterations =  7.0

     negative rho (up, down):  1.303E-01 0.000E+00

     total cpu time spent up to now is       10.2 secs

     total energy              =    2698.84260277 Ry
     Harris-Foulkes estimate   =   -2383.62414444 Ry
     estimated scf accuracy    <      21.21259621 Ry

     iteration # 83     ecut=    30.00 Ry     beta=0.70
     Davidson diagonalization with overlap
     ethr =  1.00E-02,  avg # of iterations =  7.0

     negative rho (up, down):  1.562E-01 0.000E+00

     total cpu time spent up to now is       10.2 secs

     total energy              =      63.84622234 Ry
     Harris-Foulkes estimate   =   -1840.55051684 Ry
     estimated scf accuracy    <      22.86084549 Ry

     iteration # 84     ecut=    30.00 Ry     beta=0.70
     Davidson diagonalization with overlap
     ethr =  1.00E-02,  avg # of iterations =  7.0

     negative rho (up, down):  2.754E-02 0.000E+00

     total cpu time spent up to now is       10.3 secs

     total energy              =      15.39264389 Ry
     Harris-Foulkes estimate   =    -220.63330577 Ry
     estimated scf accuracy    <      17.40430859 Ry

     iteration # 85     ecut=    30.00 Ry     beta=0.70
     Davidson diagonalization with overlap
     ethr =  1.00E-02,  avg # of iterations =  8.0

     negative rho (up, down):  1.626E-02 0.000E+00

     total cpu time spent up to now is       10.3 secs

     total energy              =      38.86743264 Ry
     Harris-Foulkes estimate   =    -174.57209356 Ry
     estimated scf accuracy    <      23.77372305 Ry

     iteration # 86     ecut=    30.00 Ry     beta=0.70
     Davidson diagonalization with overlap
     ethr =  1.00E-02,  avg # of iterations =  8.0

     negative rho (up, down):  1.056E-01 0.000E+00

     total cpu time spent up to now is       10.4 secs

     total energy              =      -6.49452236 Ry
     Harris-Foulkes estimate   =     -56.62491428 Ry
     estimated scf accuracy    <      13.29552576 Ry

     iteration # 87     ecut=    30.00 Ry     beta=0.70
     Davidson diagonalization with overlap
     ethr =  1.00E-02,  avg # of iterations = 13.0

     negative rho (up, down):  3.023E-06 0.000E+00

     total cpu time spent up to now is       10.5 secs

     total energy              =      62.44546911 Ry
     Harris-Foulkes estimate   =     -80.93731309 Ry
     estimated scf accuracy    <      69.24664292 Ry

     iteration # 88     ecut=    30.00 Ry     beta=0.70
     Davidson diagonalization with overlap
     ethr =  1.00E-02,  avg # of iterations =  7.0

     negative rho (up, down):  6.736E-06 0.000E+00

     total cpu time spent up to now is       10.5 secs

     total energy              =     -33.51497353 Ry
     Harris-Foulkes estimate   =     -34.44557608 Ry
     estimated scf accuracy    <       9.83790940 Ry

     iteration # 89     ecut=    30.00 Ry     beta=0.70
     Davidson diagonalization with overlap
     ethr =  1.00E-02,  avg # of iterations =  2.0

     negative rho (up, down):  8.621E-06 0.000E+00

     total cpu time spent up to now is       10.5 secs

     total energy              =     -33.22981571 Ry
     Harris-Foulkes estimate   =     -33.86641049 Ry
     estimated scf accuracy    <       3.80816901 Ry

     iteration # 90     ecut=    30.00 Ry     beta=0.70
     Davidson diagonalization with overlap
     ethr =  1.00E-02,  avg # of iterations =  5.0

     negative rho (up, down):  1.331E-03 0.000E+00

     total cpu time spent up to now is       10.6 secs

     total energy              =     -33.01284511 Ry
     Harris-Foulkes estimate   =     -33.56061823 Ry
     estimated scf accuracy    <       4.10416306 Ry

     iteration # 91     ecut=    30.00 Ry     beta=0.70
     Davidson diagonalization with overlap
     ethr =  1.00E-02,  avg # of iterations =  1.0

     negative rho (up, down):  1.782E-02 0.000E+00

     total cpu time spent up to now is       10.6 secs

     total energy              =     -33.50674362 Ry
     Harris-Foulkes estimate   =     -33.32183339 Ry
     estimated scf accuracy    <       4.15277240 Ry

     iteration # 92     ecut=    30.00 Ry     beta=0.70
     Davidson diagonalization with overlap
     ethr =  1.00E-02,  avg # of iterations =  3.0

     negative rho (up, down):  1.482E-04 0.000E+00

     total cpu time spent up to now is       10.7 secs

     total energy              =      -1.25034356 Ry
     Harris-Foulkes estimate   =    -184.40188332 Ry
     estimated scf accuracy    <       8.70893171 Ry

     iteration # 93     ecut=    30.00 Ry     beta=0.70
     Davidson diagonalization with overlap
     ethr =  1.00E-02,  avg # of iterations =  5.0

     negative rho (up, down):  1.423E-03 0.000E+00

     total cpu time spent up to now is       10.7 secs

     total energy              =     -32.21759706 Ry
     Harris-Foulkes estimate   =     -32.81412185 Ry
     estimated scf accuracy    <       2.67608217 Ry

     iteration # 94     ecut=    30.00 Ry     beta=0.70
     Davidson diagonalization with overlap
     ethr =  1.00E-02,  avg # of iterations =  1.0

     negative rho (up, down):  4.860E-03 0.000E+00

     total cpu time spent up to now is       10.7 secs

     total energy              =     -32.36444483 Ry
     Harris-Foulkes estimate   =     -32.63092493 Ry
     estimated scf accuracy    <       5.43619706 Ry

     iteration # 95     ecut=    30.00 Ry     beta=0.70
     Davidson diagonalization with overlap
     ethr =  1.00E-02,  avg # of iterations =  1.0

     negative rho (up, down):  1.381E-03 0.000E+00

     total cpu time spent up to now is       10.8 secs

     total energy              =     -32.36424154 Ry
     Harris-Foulkes estimate   =     -32.37015747 Ry
     estimated scf accuracy    <       3.34455457 Ry

     iteration # 96     ecut=    30.00 Ry     beta=0.70
     Davidson diagonalization with overlap
     ethr =  1.00E-02,  avg # of iterations =  1.0

     negative rho (up, down):  1.108E-01 0.000E+00

     total cpu time spent up to now is       10.8 secs

     total energy              =     -30.70922592 Ry
     Harris-Foulkes estimate   =     -32.38506029 Ry
     estimated scf accuracy    <       5.32059894 Ry

     iteration # 97     ecut=    30.00 Ry     beta=0.70
     Davidson diagonalization with overlap
     ethr =  1.00E-02,  avg # of iterations =  6.0

     negative rho (up, down):  2.270E-02 0.000E+00

     total cpu time spent up to now is       10.9 secs

     total energy              =     -15.12890740 Ry
     Harris-Foulkes estimate   =     -41.94784729 Ry
     estimated scf accuracy    <       9.61101624 Ry

     iteration # 98     ecut=    30.00 Ry     beta=0.70
     Davidson diagonalization with overlap
     ethr =  1.00E-02,  avg # of iterations =  4.0

     negative rho (up, down):  3.278E-02 0.000E+00

     total cpu time spent up to now is       10.9 secs

     total energy              =     -36.05429031 Ry
     Harris-Foulkes estimate   =     -32.61066186 Ry
     estimated scf accuracy    <       4.23867804 Ry

     iteration # 99     ecut=    30.00 Ry     beta=0.70
     Davidson diagonalization with overlap
     ethr =  1.00E-02,  avg # of iterations =  4.0

     negative rho (up, down):  2.981E-02 0.000E+00

     total cpu time spent up to now is       10.9 secs

     total energy              =      18.06439560 Ry
     Harris-Foulkes estimate   =    -281.12927171 Ry
     estimated scf accuracy    <      16.38875122 Ry

     iteration #100     ecut=    30.00 Ry     beta=0.70
     Davidson diagonalization with overlap
     ethr =  1.00E-02,  avg # of iterations =  4.0

     negative rho (up, down):  2.578E-02 0.000E+00

     total cpu time spent up to now is       11.0 secs

     total energy              =     -33.17481873 Ry
     Harris-Foulkes estimate   =     -32.63653573 Ry
     estimated scf accuracy    <       3.84124079 Ry

     End of self-consistent calculation

     convergence NOT achieved after 100 iterations: stopping

     Writing output data file pwscf.save
 
     init_run     :      0.09s CPU      0.11s WALL (       1 calls)
     electrons    :      8.23s CPU     10.07s WALL (       4 calls)
     update_pot   :      0.32s CPU      0.42s WALL (       3 calls)
     forces       :      0.08s CPU      0.08s WALL (       3 calls)

     Called by init_run:
     wfcinit      :      0.01s CPU      0.02s WALL (       1 calls)
     potinit      :      0.02s CPU      0.03s WALL (       1 calls)

     Called by electrons:
     c_bands      :      4.16s CPU      4.38s WALL (     221 calls)
     sum_band     :      0.64s CPU      0.70s WALL (     221 calls)
     v_of_rho     :      1.59s CPU      1.68s WALL (     225 calls)
     mix_rho      :      1.56s CPU      2.69s WALL (     221 calls)

     Called by c_bands:
     init_us_2    :      0.02s CPU      0.03s WALL (     443 calls)
     cegterg      :      4.11s CPU      4.26s WALL (     222 calls)

     Called by sum_band:

     Called by *egterg:
     h_psi        :      3.45s CPU      3.58s WALL (    1184 calls)
     g_psi        :      0.04s CPU      0.04s WALL (     961 calls)
     cdiaghg      :      0.24s CPU      0.25s WALL (    1179 calls)

     Called by h_psi:
     h_psi:pot    :      3.43s CPU      3.56s WALL (    1184 calls)
     h_psi:calbec :      0.06s CPU      0.06s WALL (    1184 calls)
     vloc_psi     :      3.35s CPU      3.48s WALL (    1184 calls)
     add_vuspsi   :      0.01s CPU      0.01s WALL (    1184 calls)

     General routines
     calbec       :      0.07s CPU      0.08s WALL (    1198 calls)
     fft          :      1.02s CPU      1.09s WALL (    2481 calls)
     fftw         :      3.44s CPU      3.60s WALL (   15240 calls)
     davcio       :      0.24s CPU      0.95s WALL (    4077 calls)
 
     Parallel routines
     fft_scatter  :      1.76s CPU      1.92s WALL (   17721 calls)
 
     PWSCF        :     8.90s CPU        11.06s WALL

 
   This run was terminated on:   8:44:47  14Feb2018            

=------------------------------------------------------------------------------=
   JOB DONE.
=------------------------------------------------------------------------------=
