
     Program PWSCF v.6.0 (svn rev. 13079) starts on 14Feb2018 at  8:45:41 

     This program is part of the open-source Quantum ESPRESSO suite
     for quantum simulation of materials; please cite
         "P. Giannozzi et al., J. Phys.:Condens. Matter 21 395502 (2009);
          URL http://www.quantum-espresso.org", 
     in publications or presentations arising from this work. More details at
     http://www.quantum-espresso.org/quote

     Parallel version (MPI), running on    28 processors
     R & G space division:  proc/nbgrp/npool/nimage =      28
     Reading input from inputs/MD-H2O-2/449.in

     Current dimensions of program PWSCF are:
     Max number of different atomic species (ntypx) = 10
     Max number of k-points (npk) =  40000
     Max angular momentum in pseudopotentials (lmaxx) =  3

     Subspace diagonalization in iterative solution of the eigenvalue problem:
     a serial algorithm will be used

 
     Parallelization info
     --------------------
     sticks:   dense  smooth     PW     G-vecs:    dense   smooth      PW
     Min         136     136     33                 6338     6338     787
     Max         137     137     34                 6341     6341     792
     Sum        3809    3809    949               177509   177509   22119
 


     bravais-lattice index     =            1
     lattice parameter (alat)  =      20.0000  a.u.
     unit-cell volume          =    8000.0000 (a.u.)^3
     number of atoms/cell      =            3
     number of atomic types    =            2
     number of electrons       =         8.00
     number of Kohn-Sham states=            8
     kinetic-energy cutoff     =      30.0000  Ry
     charge density cutoff     =     120.0000  Ry
     convergence threshold     =      1.0E-08
     mixing beta               =       0.7000
     number of iterations used =            8  plain     mixing
     Exchange-correlation      = BLYP ( 1  3  1  3 0 0)
     nstep                     =         5000


     celldm(1)=  20.000000  celldm(2)=   0.000000  celldm(3)=   0.000000
     celldm(4)=   0.000000  celldm(5)=   0.000000  celldm(6)=   0.000000

     crystal axes: (cart. coord. in units of alat)
               a(1) = (   1.000000   0.000000   0.000000 )  
               a(2) = (   0.000000   1.000000   0.000000 )  
               a(3) = (   0.000000   0.000000   1.000000 )  

     reciprocal axes: (cart. coord. in units 2 pi/alat)
               b(1) = (  1.000000  0.000000  0.000000 )  
               b(2) = (  0.000000  1.000000  0.000000 )  
               b(3) = (  0.000000  0.000000  1.000000 )  


     PseudoPot. # 1 for  H read from file:
     ./H.blyp-hgh.UPF
     MD5 check sum: c576e69559cde411e611be972c763230
     Pseudo is Norm-conserving, Zval =  1.0
     Generated in analytical, separable form
     Using radial grid of  929 points,  0 beta functions with: 

     PseudoPot. # 2 for  O read from file:
     ./O.blyp-hgh.UPF
     MD5 check sum: d0b7156309aa9befef28faac7bc56342
     Pseudo is Norm-conserving, Zval =  6.0
     Generated in analytical, separable form
     Using radial grid of 1095 points,  1 beta functions with: 
                l(1) =   0

     atomic species   valence    mass     pseudopotential
        H              1.00     1.01000      H( 1.00)
        O              6.00    16.00000      O( 1.00)

     No symmetry found



   Cartesian axes

     site n.     atom                  positions (alat units)
         1           H   tau(   1) = (   0.6926180   0.5313752   0.6946138  )
         2           H   tau(   2) = (   0.7613448   0.3797459   0.2512549  )
         3           O   tau(   3) = (   0.7267065   0.5641858   0.7818898  )

     number of k points=     1  Marzari-Vanderbilt smearing, width (Ry)=  0.0250
                       cart. coord. in units 2pi/alat
        k(    1) = (   0.0000000   0.0000000   0.0000000), wk =   2.0000000

     Dense  grid:   177509 G-vectors     FFT dimensions: (  72,  72,  72)

     Estimated max dynamical RAM per process >       6.09Mb

     Estimated total allocated dynamical RAM >     170.64Mb

     Initial potential from superposition of free atoms
     Check: negative starting charge=   -0.347290

     starting charge    7.99998, renormalised to    8.00000

     negative rho (up, down):  3.473E-01 0.000E+00
     Starting wfc are    6 randomized atomic wfcs +    2 random wfc

     total cpu time spent up to now is        0.2 secs

     per-process dynamical memory:    18.8 Mb

     Self-consistent Calculation

     iteration #  1     ecut=    30.00 Ry     beta=0.70
     Davidson diagonalization with overlap
     ethr =  1.00E-02,  avg # of iterations =  6.0

     negative rho (up, down):  9.044E-02 0.000E+00

     total cpu time spent up to now is        0.3 secs

     total energy              =     -30.39678277 Ry
     Harris-Foulkes estimate   =     -32.23314022 Ry
     estimated scf accuracy    <       2.11621876 Ry

     iteration #  2     ecut=    30.00 Ry     beta=0.70
     Davidson diagonalization with overlap
     ethr =  1.00E-02,  avg # of iterations =  3.0

     negative rho (up, down):  6.584E-02 0.000E+00

     total cpu time spent up to now is        0.3 secs

     total energy              =     -32.27305761 Ry
     Harris-Foulkes estimate   =     -34.50776003 Ry
     estimated scf accuracy    <       5.45720103 Ry

     iteration #  3     ecut=    30.00 Ry     beta=0.70
     Davidson diagonalization with overlap
     ethr =  1.00E-02,  avg # of iterations =  3.0

     negative rho (up, down):  6.334E-02 0.000E+00

     total cpu time spent up to now is        0.4 secs

     total energy              =     -32.42238408 Ry
     Harris-Foulkes estimate   =     -32.50497560 Ry
     estimated scf accuracy    <       1.76334860 Ry

     iteration #  4     ecut=    30.00 Ry     beta=0.70
     Davidson diagonalization with overlap
     ethr =  1.00E-02,  avg # of iterations =  1.0

     negative rho (up, down):  1.189E-02 0.000E+00

     total cpu time spent up to now is        0.4 secs

     total energy              =     -31.31603837 Ry
     Harris-Foulkes estimate   =     -32.42271020 Ry
     estimated scf accuracy    <       1.64850355 Ry

     iteration #  5     ecut=    30.00 Ry     beta=0.70
     Davidson diagonalization with overlap
     ethr =  1.00E-02,  avg # of iterations =  3.0

     negative rho (up, down):  1.978E-02 0.000E+00

     total cpu time spent up to now is        0.4 secs

     total energy              =     -33.25019386 Ry
     Harris-Foulkes estimate   =     -33.14803357 Ry
     estimated scf accuracy    <       5.98935757 Ry

     iteration #  6     ecut=    30.00 Ry     beta=0.70
     Davidson diagonalization with overlap
     ethr =  1.00E-02,  avg # of iterations =  1.0

     negative rho (up, down):  1.075E-02 0.000E+00

     total cpu time spent up to now is        0.4 secs

     total energy              =     -32.78732267 Ry
     Harris-Foulkes estimate   =     -33.26914796 Ry
     estimated scf accuracy    <       8.40059994 Ry

     iteration #  7     ecut=    30.00 Ry     beta=0.70
     Davidson diagonalization with overlap
     ethr =  1.00E-02,  avg # of iterations =  1.0

     negative rho (up, down):  2.508E-02 0.000E+00

     total cpu time spent up to now is        0.5 secs

     total energy              =     -32.58226293 Ry
     Harris-Foulkes estimate   =     -32.92071312 Ry
     estimated scf accuracy    <       2.99314411 Ry

     iteration #  8     ecut=    30.00 Ry     beta=0.70
     Davidson diagonalization with overlap
     ethr =  1.00E-02,  avg # of iterations =  1.0

     negative rho (up, down):  4.268E-02 0.000E+00

     total cpu time spent up to now is        0.5 secs

     total energy              =     -32.18552420 Ry
     Harris-Foulkes estimate   =     -32.58929596 Ry
     estimated scf accuracy    <       2.34119861 Ry

     iteration #  9     ecut=    30.00 Ry     beta=0.70
     Davidson diagonalization with overlap
     ethr =  1.00E-02,  avg # of iterations =  1.0

     negative rho (up, down):  2.298E-02 0.000E+00

     total cpu time spent up to now is        0.5 secs

     total energy              =     -31.92253933 Ry
     Harris-Foulkes estimate   =     -32.19784046 Ry
     estimated scf accuracy    <       1.59991753 Ry

     iteration # 10     ecut=    30.00 Ry     beta=0.70
     Davidson diagonalization with overlap
     ethr =  1.00E-02,  avg # of iterations =  1.0

     negative rho (up, down):  3.216E-02 0.000E+00

     total cpu time spent up to now is        0.6 secs

     total energy              =     -31.92610137 Ry
     Harris-Foulkes estimate   =     -31.94638729 Ry
     estimated scf accuracy    <       0.02650039 Ry

     iteration # 11     ecut=    30.00 Ry     beta=0.70
     Davidson diagonalization with overlap
     ethr =  3.31E-04,  avg # of iterations =  3.0

     negative rho (up, down):  3.321E-02 0.000E+00

     total cpu time spent up to now is        0.6 secs

     total energy              =     -32.03422846 Ry
     Harris-Foulkes estimate   =     -32.06506256 Ry
     estimated scf accuracy    <       1.34374189 Ry

     iteration # 12     ecut=    30.00 Ry     beta=0.70
     Davidson diagonalization with overlap
     ethr =  3.31E-04,  avg # of iterations =  1.0

     negative rho (up, down):  3.597E-02 0.000E+00

     total cpu time spent up to now is        0.6 secs

     total energy              =     -31.95949762 Ry
     Harris-Foulkes estimate   =     -32.03430360 Ry
     estimated scf accuracy    <       1.29594141 Ry

     iteration # 13     ecut=    30.00 Ry     beta=0.70
     Davidson diagonalization with overlap
     ethr =  3.31E-04,  avg # of iterations =  1.0

     negative rho (up, down):  2.791E-02 0.000E+00

     total cpu time spent up to now is        0.7 secs

     total energy              =     -31.94448993 Ry
     Harris-Foulkes estimate   =     -31.95669000 Ry
     estimated scf accuracy    <       0.82849005 Ry

     iteration # 14     ecut=    30.00 Ry     beta=0.70
     Davidson diagonalization with overlap
     ethr =  3.31E-04,  avg # of iterations =  1.0

     negative rho (up, down):  1.853E-02 0.000E+00

     total cpu time spent up to now is        0.7 secs

     total energy              =     -31.94826019 Ry
     Harris-Foulkes estimate   =     -31.94844741 Ry
     estimated scf accuracy    <       0.14009299 Ry

     iteration # 15     ecut=    30.00 Ry     beta=0.70
     Davidson diagonalization with overlap
     ethr =  3.31E-04,  avg # of iterations =  1.0

     negative rho (up, down):  2.440E-03 0.000E+00

     total cpu time spent up to now is        0.7 secs

     total energy              =     -31.98042266 Ry
     Harris-Foulkes estimate   =     -31.94858139 Ry
     estimated scf accuracy    <       0.15278885 Ry

     iteration # 16     ecut=    30.00 Ry     beta=0.70
     Davidson diagonalization with overlap
     ethr =  3.31E-04,  avg # of iterations =  1.0

     negative rho (up, down):  1.629E-03 0.000E+00

     total cpu time spent up to now is        0.8 secs

     total energy              =     -32.01809681 Ry
     Harris-Foulkes estimate   =     -32.03046638 Ry
     estimated scf accuracy    <       1.27515564 Ry

     iteration # 17     ecut=    30.00 Ry     beta=0.70
     Davidson diagonalization with overlap
     ethr =  3.31E-04,  avg # of iterations =  1.0

     negative rho (up, down):  1.037E-03 0.000E+00

     total cpu time spent up to now is        0.8 secs

     total energy              =     -31.98107147 Ry
     Harris-Foulkes estimate   =     -32.01809739 Ry
     estimated scf accuracy    <       1.27416798 Ry

     iteration # 18     ecut=    30.00 Ry     beta=0.70
     Davidson diagonalization with overlap
     ethr =  3.31E-04,  avg # of iterations =  1.0

     negative rho (up, down):  2.739E-04 0.000E+00

     total cpu time spent up to now is        0.8 secs

     total energy              =     -31.95925889 Ry
     Harris-Foulkes estimate   =     -31.97883810 Ry
     estimated scf accuracy    <       1.57478934 Ry

     iteration # 19     ecut=    30.00 Ry     beta=0.70
     Davidson diagonalization with overlap
     ethr =  3.31E-04,  avg # of iterations =  1.0

     negative rho (up, down):  4.011E-03 0.000E+00

     total cpu time spent up to now is        0.9 secs

     total energy              =     -32.06032488 Ry
     Harris-Foulkes estimate   =     -31.96062431 Ry
     estimated scf accuracy    <       1.00797198 Ry

     iteration # 20     ecut=    30.00 Ry     beta=0.70
     Davidson diagonalization with overlap
     ethr =  3.31E-04,  avg # of iterations =  2.0

     negative rho (up, down):  1.068E-03 0.000E+00

     total cpu time spent up to now is        0.9 secs

     total energy              =     -31.99905390 Ry
     Harris-Foulkes estimate   =     -32.07327545 Ry
     estimated scf accuracy    <       1.36389271 Ry

     iteration # 21     ecut=    30.00 Ry     beta=0.70
     Davidson diagonalization with overlap
     ethr =  3.31E-04,  avg # of iterations =  1.0

     negative rho (up, down):  2.972E-04 0.000E+00

     total cpu time spent up to now is        0.9 secs

     total energy              =     -31.96071154 Ry
     Harris-Foulkes estimate   =     -31.99928152 Ry
     estimated scf accuracy    <       1.40065043 Ry

     iteration # 22     ecut=    30.00 Ry     beta=0.70
     Davidson diagonalization with overlap
     ethr =  3.31E-04,  avg # of iterations =  1.0

     negative rho (up, down):  3.770E-04 0.000E+00

     total cpu time spent up to now is        1.0 secs

     total energy              =     -31.94094348 Ry
     Harris-Foulkes estimate   =     -31.95999870 Ry
     estimated scf accuracy    <       0.98364768 Ry

     iteration # 23     ecut=    30.00 Ry     beta=0.70
     Davidson diagonalization with overlap
     ethr =  3.31E-04,  avg # of iterations =  1.0

     negative rho (up, down):  1.023E-04 0.000E+00

     total cpu time spent up to now is        1.0 secs

     total energy              =     -31.94389500 Ry
     Harris-Foulkes estimate   =     -31.94727327 Ry
     estimated scf accuracy    <       0.08540633 Ry

     iteration # 24     ecut=    30.00 Ry     beta=0.70
     Davidson diagonalization with overlap
     ethr =  3.31E-04,  avg # of iterations =  1.0

     negative rho (up, down):  2.772E-05 0.000E+00

     total cpu time spent up to now is        1.0 secs

     total energy              =     -31.94590548 Ry
     Harris-Foulkes estimate   =     -31.94653432 Ry
     estimated scf accuracy    <       0.02422867 Ry

     iteration # 25     ecut=    30.00 Ry     beta=0.70
     Davidson diagonalization with overlap
     ethr =  3.03E-04,  avg # of iterations =  1.0

     negative rho (up, down):  1.494E-06 0.000E+00

     total cpu time spent up to now is        1.1 secs

     total energy              =     -31.94617478 Ry
     Harris-Foulkes estimate   =     -31.94620260 Ry
     estimated scf accuracy    <       0.00004830 Ry

     iteration # 26     ecut=    30.00 Ry     beta=0.70
     Davidson diagonalization with overlap
     ethr =  6.04E-07,  avg # of iterations = 10.0

     negative rho (up, down):  4.635E-07 0.000E+00

     total cpu time spent up to now is        1.1 secs

     total energy              =     -31.94626817 Ry
     Harris-Foulkes estimate   =     -31.94673386 Ry
     estimated scf accuracy    <       0.04131104 Ry

     iteration # 27     ecut=    30.00 Ry     beta=0.70
     Davidson diagonalization with overlap
     ethr =  6.04E-07,  avg # of iterations =  1.0

     negative rho (up, down):  1.467E-07 0.000E+00

     total cpu time spent up to now is        1.1 secs

     total energy              =     -31.94622075 Ry
     Harris-Foulkes estimate   =     -31.94637020 Ry
     estimated scf accuracy    <       0.01286683 Ry

     iteration # 28     ecut=    30.00 Ry     beta=0.70
     Davidson diagonalization with overlap
     ethr =  6.04E-07,  avg # of iterations =  1.0

     total cpu time spent up to now is        1.2 secs

     total energy              =     -31.94616368 Ry
     Harris-Foulkes estimate   =     -31.94625434 Ry
     estimated scf accuracy    <       0.00387369 Ry

     iteration # 29     ecut=    30.00 Ry     beta=0.70
     Davidson diagonalization with overlap
     ethr =  6.04E-07,  avg # of iterations =  1.0

     total cpu time spent up to now is        1.2 secs

     total energy              =     -31.94620438 Ry
     Harris-Foulkes estimate   =     -31.94620474 Ry
     estimated scf accuracy    <       0.00003541 Ry

     iteration # 30     ecut=    30.00 Ry     beta=0.70
     Davidson diagonalization with overlap
     ethr =  4.43E-07,  avg # of iterations =  1.0

     total cpu time spent up to now is        1.3 secs

     total energy              =     -31.94620408 Ry
     Harris-Foulkes estimate   =     -31.94620448 Ry
     estimated scf accuracy    <       0.00001174 Ry

     iteration # 31     ecut=    30.00 Ry     beta=0.70
     Davidson diagonalization with overlap
     ethr =  1.47E-07,  avg # of iterations =  1.0

     total cpu time spent up to now is        1.3 secs

     total energy              =     -31.94620422 Ry
     Harris-Foulkes estimate   =     -31.94620432 Ry
     estimated scf accuracy    <       0.00000080 Ry

     iteration # 32     ecut=    30.00 Ry     beta=0.70
     Davidson diagonalization with overlap
     ethr =  1.00E-08,  avg # of iterations =  1.0

     total cpu time spent up to now is        1.3 secs

     End of self-consistent calculation

          k = 0.0000 0.0000 0.0000 ( 22119 PWs)   bands (ev):

   -24.8062 -10.6516  -7.0560  -7.0549  -6.9144  -0.7069   0.3329   0.7893

     the Fermi energy is    -6.8845 ev

!    total energy              =     -31.94620423 Ry
     Harris-Foulkes estimate   =     -31.94620424 Ry
     estimated scf accuracy    <          9.9E-09 Ry

     convergence has been achieved in  32 iterations

     Forces acting on atoms (Ry/au):

     atom    1 type  1   force =    -0.00698466   -0.00596825   -0.01674618
     atom    2 type  1   force =    -0.00029887    0.00027391   -0.00052959
     atom    3 type  2   force =     0.00728353    0.00569434    0.01727577

     Total force =     0.027372     Total SCF correction =     0.000082

     Molecular Dynamics Calculation

     Starting temperature  =  1000.00 K

     temperature is controlled by Andersen thermostat
     Collision frequency = 1.0000/timestep
     mass H                =     1.01
     mass O                =    16.00
     Time step             =   100.00 a.u.,  4.8378 femto-seconds

     Entering Dynamics:    iteration =     1
                           time      =   0.0048 pico-seconds


     Andersen thermostat:    3 collisions

ATOMIC_POSITIONS (bohr)
H       14.045981016  10.871627690  13.603192521
H       15.231805059   7.825419750   4.833326405
O       14.521596852  11.253755269  15.668151103


     kinetic energy (Ekin) =     0.01319564 Ry
     temperature           =   694.47456190 K 
     Ekin + Etot (const)   =   -31.93300859 Ry

     Linear momentum :   -0.0000000000   -0.0000000000   -0.0000000000

     Writing output data file pwscf.save
     Check: negative starting charge=   -0.347290
     NEW-OLD atomic charge density approx. for the potential
     Check: negative starting charge=   -0.347417

     negative rho (up, down):  8.719E-02 0.000E+00

     total cpu time spent up to now is        1.6 secs

     per-process dynamical memory:    20.4 Mb

     Self-consistent Calculation

     iteration #  1     ecut=    30.00 Ry     beta=0.70
     Davidson diagonalization with overlap
     c_bands:  1 eigenvalues not converged
     ethr =  1.00E-06,  avg # of iterations = 20.0

     negative rho (up, down):  2.105E-02 0.000E+00

     total cpu time spent up to now is        1.7 secs

     total energy              =     -31.63069120 Ry
     Harris-Foulkes estimate   =     -31.87577546 Ry
     estimated scf accuracy    <       0.36802552 Ry

     iteration #  2     ecut=    30.00 Ry     beta=0.70
     Davidson diagonalization with overlap
     ethr =  4.60E-03,  avg # of iterations =  3.0

     negative rho (up, down):  1.681E-02 0.000E+00

     total cpu time spent up to now is        1.7 secs

     total energy              =     -32.04490672 Ry
     Harris-Foulkes estimate   =     -32.82175777 Ry
     estimated scf accuracy    <       2.52119617 Ry

     iteration #  3     ecut=    30.00 Ry     beta=0.70
     Davidson diagonalization with overlap
     ethr =  4.60E-03,  avg # of iterations =  2.0

     negative rho (up, down):  1.532E-02 0.000E+00

     total cpu time spent up to now is        1.8 secs

     total energy              =     -31.99985866 Ry
     Harris-Foulkes estimate   =     -32.10311816 Ry
     estimated scf accuracy    <       1.12273784 Ry

     iteration #  4     ecut=    30.00 Ry     beta=0.70
     Davidson diagonalization with overlap
     ethr =  4.60E-03,  avg # of iterations =  1.0

     negative rho (up, down):  1.055E-02 0.000E+00

     total cpu time spent up to now is        1.8 secs

     total energy              =     -31.70327964 Ry
     Harris-Foulkes estimate   =     -32.00016369 Ry
     estimated scf accuracy    <       0.98304446 Ry

     iteration #  5     ecut=    30.00 Ry     beta=0.70
     Davidson diagonalization with overlap
     ethr =  4.60E-03,  avg # of iterations =  2.0

     negative rho (up, down):  3.268E-03 0.000E+00

     total cpu time spent up to now is        1.8 secs

     total energy              =     -32.20383581 Ry
     Harris-Foulkes estimate   =     -32.20483090 Ry
     estimated scf accuracy    <       1.60551868 Ry

     iteration #  6     ecut=    30.00 Ry     beta=0.70
     Davidson diagonalization with overlap
     ethr =  4.60E-03,  avg # of iterations =  1.0

     negative rho (up, down):  3.792E-04 0.000E+00

     total cpu time spent up to now is        1.8 secs

     total energy              =     -32.05128549 Ry
     Harris-Foulkes estimate   =     -32.20409662 Ry
     estimated scf accuracy    <       1.59357500 Ry

     iteration #  7     ecut=    30.00 Ry     beta=0.70
     Davidson diagonalization with overlap
     ethr =  4.60E-03,  avg # of iterations =  1.0

     negative rho (up, down):  1.010E-04 0.000E+00

     total cpu time spent up to now is        1.9 secs

     total energy              =     -31.97865279 Ry
     Harris-Foulkes estimate   =     -32.05314653 Ry
     estimated scf accuracy    <       1.33184483 Ry

     iteration #  8     ecut=    30.00 Ry     beta=0.70
     Davidson diagonalization with overlap
     ethr =  4.60E-03,  avg # of iterations =  1.0

     negative rho (up, down):  4.246E-05 0.000E+00

     total cpu time spent up to now is        1.9 secs

     total energy              =     -32.00761906 Ry
     Harris-Foulkes estimate   =     -31.97752799 Ry
     estimated scf accuracy    <       1.54943548 Ry

     iteration #  9     ecut=    30.00 Ry     beta=0.70
     Davidson diagonalization with overlap
     ethr =  4.60E-03,  avg # of iterations =  1.0

     negative rho (up, down):  1.969E-05 0.000E+00

     total cpu time spent up to now is        1.9 secs

     total energy              =     -32.02453320 Ry
     Harris-Foulkes estimate   =     -32.00579848 Ry
     estimated scf accuracy    <       1.27412760 Ry

     iteration # 10     ecut=    30.00 Ry     beta=0.70
     Davidson diagonalization with overlap
     ethr =  4.60E-03,  avg # of iterations =  1.0

     negative rho (up, down):  9.849E-04 0.000E+00

     total cpu time spent up to now is        2.0 secs

     total energy              =     -32.18250408 Ry
     Harris-Foulkes estimate   =     -32.02443897 Ry
     estimated scf accuracy    <       1.27818062 Ry

     iteration # 11     ecut=    30.00 Ry     beta=0.70
     Davidson diagonalization with overlap
     ethr =  4.60E-03,  avg # of iterations =  1.0

     negative rho (up, down):  3.013E-04 0.000E+00

     total cpu time spent up to now is        2.0 secs

     total energy              =     -32.15848220 Ry
     Harris-Foulkes estimate   =     -32.18506742 Ry
     estimated scf accuracy    <       1.56562073 Ry

     iteration # 12     ecut=    30.00 Ry     beta=0.70
     Davidson diagonalization with overlap
     ethr =  4.60E-03,  avg # of iterations =  1.0

     negative rho (up, down):  4.778E-04 0.000E+00

     total cpu time spent up to now is        2.0 secs

     total energy              =     -32.13626181 Ry
     Harris-Foulkes estimate   =     -32.15864589 Ry
     estimated scf accuracy    <       1.52069858 Ry

     iteration # 13     ecut=    30.00 Ry     beta=0.70
     Davidson diagonalization with overlap
     ethr =  4.60E-03,  avg # of iterations =  1.0

     negative rho (up, down):  3.242E-03 0.000E+00

     total cpu time spent up to now is        2.1 secs

     total energy              =     -31.43006169 Ry
     Harris-Foulkes estimate   =     -32.13633356 Ry
     estimated scf accuracy    <       1.47829878 Ry

     iteration # 14     ecut=    30.00 Ry     beta=0.70
     Davidson diagonalization with overlap
     ethr =  4.60E-03,  avg # of iterations =  2.0

     negative rho (up, down):  4.170E-04 0.000E+00

     total cpu time spent up to now is        2.1 secs

     total energy              =     -32.40799309 Ry
     Harris-Foulkes estimate   =     -32.52702681 Ry
     estimated scf accuracy    <       1.75216200 Ry

     iteration # 15     ecut=    30.00 Ry     beta=0.70
     Davidson diagonalization with overlap
     ethr =  4.60E-03,  avg # of iterations =  1.0

     negative rho (up, down):  3.714E-04 0.000E+00

     total cpu time spent up to now is        2.2 secs

     total energy              =     -32.41237982 Ry
     Harris-Foulkes estimate   =     -32.40900305 Ry
     estimated scf accuracy    <       1.58158392 Ry

     iteration # 16     ecut=    30.00 Ry     beta=0.70
     Davidson diagonalization with overlap
     ethr =  4.60E-03,  avg # of iterations =  1.0

     negative rho (up, down):  2.914E-05 0.000E+00

     total cpu time spent up to now is        2.2 secs

     total energy              =     -32.22320481 Ry
     Harris-Foulkes estimate   =     -32.41242640 Ry
     estimated scf accuracy    <       1.58257564 Ry

     iteration # 17     ecut=    30.00 Ry     beta=0.70
     Davidson diagonalization with overlap
     ethr =  4.60E-03,  avg # of iterations =  1.0

     negative rho (up, down):  1.452E-06 0.000E+00

     total cpu time spent up to now is        2.2 secs

     total energy              =     -32.11367921 Ry
     Harris-Foulkes estimate   =     -32.21693429 Ry
     estimated scf accuracy    <       1.29238129 Ry

     iteration # 18     ecut=    30.00 Ry     beta=0.70
     Davidson diagonalization with overlap
     ethr =  4.60E-03,  avg # of iterations =  1.0

     negative rho (up, down):  6.555E-07 0.000E+00

     total cpu time spent up to now is        2.3 secs

     total energy              =     -32.08603318 Ry
     Harris-Foulkes estimate   =     -32.11426049 Ry
     estimated scf accuracy    <       1.13417893 Ry

     iteration # 19     ecut=    30.00 Ry     beta=0.70
     Davidson diagonalization with overlap
     ethr =  4.60E-03,  avg # of iterations =  1.0

     negative rho (up, down):  3.942E-07 0.000E+00

     total cpu time spent up to now is        2.3 secs

     total energy              =     -31.93572623 Ry
     Harris-Foulkes estimate   =     -32.08606768 Ry
     estimated scf accuracy    <       1.09256276 Ry

     iteration # 20     ecut=    30.00 Ry     beta=0.70
     Davidson diagonalization with overlap
     ethr =  4.60E-03,  avg # of iterations =  1.0

     negative rho (up, down):  7.137E-07 0.000E+00

     total cpu time spent up to now is        2.3 secs

     total energy              =     -31.94331737 Ry
     Harris-Foulkes estimate   =     -31.94222683 Ry
     estimated scf accuracy    <       0.27492766 Ry

     iteration # 21     ecut=    30.00 Ry     beta=0.70
     Davidson diagonalization with overlap
     ethr =  3.44E-03,  avg # of iterations =  1.0

     negative rho (up, down):  1.764E-07 0.000E+00

     total cpu time spent up to now is        2.3 secs

     total energy              =     -31.92621443 Ry
     Harris-Foulkes estimate   =     -31.94342979 Ry
     estimated scf accuracy    <       0.33199019 Ry

     iteration # 22     ecut=    30.00 Ry     beta=0.70
     Davidson diagonalization with overlap
     ethr =  3.44E-03,  avg # of iterations =  1.0

     negative rho (up, down):  3.566E-07 0.000E+00

     total cpu time spent up to now is        2.4 secs

     total energy              =     -31.87371941 Ry
     Harris-Foulkes estimate   =     -31.94063504 Ry
     estimated scf accuracy    <       0.22339516 Ry

     iteration # 23     ecut=    30.00 Ry     beta=0.70
     Davidson diagonalization with overlap
     ethr =  2.79E-03,  avg # of iterations =  1.0

     negative rho (up, down):  3.054E-08 0.000E+00

     total cpu time spent up to now is        2.4 secs

     total energy              =     -32.04081214 Ry
     Harris-Foulkes estimate   =     -32.06593681 Ry
     estimated scf accuracy    <       1.05103599 Ry

     iteration # 24     ecut=    30.00 Ry     beta=0.70
     Davidson diagonalization with overlap
     ethr =  2.79E-03,  avg # of iterations =  1.0

     negative rho (up, down):  3.035E-08 0.000E+00

     total cpu time spent up to now is        2.5 secs

     total energy              =     -32.03645824 Ry
     Harris-Foulkes estimate   =     -32.04088579 Ry
     estimated scf accuracy    <       1.01690124 Ry

     iteration # 25     ecut=    30.00 Ry     beta=0.70
     Davidson diagonalization with overlap
     ethr =  2.79E-03,  avg # of iterations =  1.0

     total cpu time spent up to now is        2.5 secs

     total energy              =     -31.99279580 Ry
     Harris-Foulkes estimate   =     -32.03646120 Ry
     estimated scf accuracy    <       1.01068110 Ry

     iteration # 26     ecut=    30.00 Ry     beta=0.70
     Davidson diagonalization with overlap
     ethr =  2.79E-03,  avg # of iterations =  1.0

     total cpu time spent up to now is        2.5 secs

     total energy              =     -31.93698848 Ry
     Harris-Foulkes estimate   =     -31.99288549 Ry
     estimated scf accuracy    <       0.94568904 Ry

     iteration # 27     ecut=    30.00 Ry     beta=0.70
     Davidson diagonalization with overlap
     ethr =  2.79E-03,  avg # of iterations =  1.0

     total cpu time spent up to now is        2.6 secs

     total energy              =     -31.92958911 Ry
     Harris-Foulkes estimate   =     -31.94194192 Ry
     estimated scf accuracy    <       0.26541072 Ry

     iteration # 28     ecut=    30.00 Ry     beta=0.70
     Davidson diagonalization with overlap
     ethr =  2.79E-03,  avg # of iterations =  1.0

     total cpu time spent up to now is        2.6 secs

     total energy              =     -31.93687990 Ry
     Harris-Foulkes estimate   =     -31.93911044 Ry
     estimated scf accuracy    <       0.11303246 Ry

     iteration # 29     ecut=    30.00 Ry     beta=0.70
     Davidson diagonalization with overlap
     ethr =  1.41E-03,  avg # of iterations =  1.0

     total cpu time spent up to now is        2.6 secs

     total energy              =     -31.93793570 Ry
     Harris-Foulkes estimate   =     -31.93774453 Ry
     estimated scf accuracy    <       0.00566682 Ry

     iteration # 30     ecut=    30.00 Ry     beta=0.70
     Davidson diagonalization with overlap
     ethr =  7.08E-05,  avg # of iterations =  1.0

     total cpu time spent up to now is        2.7 secs

     total energy              =     -31.93737168 Ry
     Harris-Foulkes estimate   =     -31.93806061 Ry
     estimated scf accuracy    <       0.03040566 Ry

     iteration # 31     ecut=    30.00 Ry     beta=0.70
     Davidson diagonalization with overlap
     ethr =  7.08E-05,  avg # of iterations =  1.0

     total cpu time spent up to now is        2.7 secs

     total energy              =     -31.93776527 Ry
     Harris-Foulkes estimate   =     -31.93767695 Ry
     estimated scf accuracy    <       0.00042877 Ry

     iteration # 32     ecut=    30.00 Ry     beta=0.70
     Davidson diagonalization with overlap
     ethr =  5.36E-06,  avg # of iterations = 10.0

     total cpu time spent up to now is        2.7 secs

     total energy              =     -31.94331633 Ry
     Harris-Foulkes estimate   =     -31.93811147 Ry
     estimated scf accuracy    <       0.03439660 Ry

     iteration # 33     ecut=    30.00 Ry     beta=0.70
     Davidson diagonalization with overlap
     ethr =  5.36E-06,  avg # of iterations =  2.0

     total cpu time spent up to now is        2.8 secs

     total energy              =     -31.99183099 Ry
     Harris-Foulkes estimate   =     -31.95658854 Ry
     estimated scf accuracy    <       1.23685203 Ry

     iteration # 34     ecut=    30.00 Ry     beta=0.70
     Davidson diagonalization with overlap
     ethr =  5.36E-06,  avg # of iterations =  3.0

     total cpu time spent up to now is        2.8 secs

     total energy              =     -31.80609119 Ry
     Harris-Foulkes estimate   =     -31.99458988 Ry
     estimated scf accuracy    <       1.33890682 Ry

     iteration # 35     ecut=    30.00 Ry     beta=0.70
     Davidson diagonalization with overlap
     ethr =  5.36E-06,  avg # of iterations =  9.0

     total cpu time spent up to now is        2.9 secs

     total energy              =     -32.02366824 Ry
     Harris-Foulkes estimate   =     -32.02595570 Ry
     estimated scf accuracy    <       0.99612538 Ry

     iteration # 36     ecut=    30.00 Ry     beta=0.70
     Davidson diagonalization with overlap
     ethr =  5.36E-06,  avg # of iterations =  1.0

     total cpu time spent up to now is        2.9 secs

     total energy              =     -32.01899937 Ry
     Harris-Foulkes estimate   =     -32.02366846 Ry
     estimated scf accuracy    <       0.99358746 Ry

     iteration # 37     ecut=    30.00 Ry     beta=0.70
     Davidson diagonalization with overlap
     ethr =  5.36E-06,  avg # of iterations =  1.0

     total cpu time spent up to now is        2.9 secs

     total energy              =     -31.98397595 Ry
     Harris-Foulkes estimate   =     -32.01899967 Ry
     estimated scf accuracy    <       0.98726933 Ry

     iteration # 38     ecut=    30.00 Ry     beta=0.70
     Davidson diagonalization with overlap
     ethr =  5.36E-06,  avg # of iterations =  4.0

     total cpu time spent up to now is        3.0 secs

     total energy              =     -31.99722952 Ry
     Harris-Foulkes estimate   =     -31.98402998 Ry
     estimated scf accuracy    <       0.93395781 Ry

     iteration # 39     ecut=    30.00 Ry     beta=0.70
     Davidson diagonalization with overlap
     ethr =  5.36E-06,  avg # of iterations =  1.0

     total cpu time spent up to now is        3.0 secs

     total energy              =     -31.99348004 Ry
     Harris-Foulkes estimate   =     -31.99724240 Ry
     estimated scf accuracy    <       0.95452510 Ry

     iteration # 40     ecut=    30.00 Ry     beta=0.70
     Davidson diagonalization with overlap
     ethr =  5.36E-06,  avg # of iterations =  1.0

     total cpu time spent up to now is        3.0 secs

     total energy              =     -31.94394212 Ry
     Harris-Foulkes estimate   =     -31.99348176 Ry
     estimated scf accuracy    <       0.94861961 Ry

     iteration # 41     ecut=    30.00 Ry     beta=0.70
     Davidson diagonalization with overlap
     ethr =  5.36E-06,  avg # of iterations =  3.0

     total cpu time spent up to now is        3.1 secs

     total energy              =     -31.95002825 Ry
     Harris-Foulkes estimate   =     -31.94651223 Ry
     estimated scf accuracy    <       0.47587966 Ry

     iteration # 42     ecut=    30.00 Ry     beta=0.70
     Davidson diagonalization with overlap
     ethr =  5.36E-06,  avg # of iterations =  1.0

     total cpu time spent up to now is        3.1 secs

     total energy              =     -31.93951710 Ry
     Harris-Foulkes estimate   =     -31.95025940 Ry
     estimated scf accuracy    <       0.60774009 Ry

     iteration # 43     ecut=    30.00 Ry     beta=0.70
     Davidson diagonalization with overlap
     ethr =  5.36E-06,  avg # of iterations =  1.0

     total cpu time spent up to now is        3.1 secs

     total energy              =     -31.97881899 Ry
     Harris-Foulkes estimate   =     -31.94133993 Ry
     estimated scf accuracy    <       0.22977958 Ry

     iteration # 44     ecut=    30.00 Ry     beta=0.70
     Davidson diagonalization with overlap
     ethr =  5.36E-06,  avg # of iterations =  4.0

     negative rho (up, down):  7.640E-08 0.000E+00

     total cpu time spent up to now is        3.2 secs

     total energy              =     -32.06616249 Ry
     Harris-Foulkes estimate   =     -32.00702918 Ry
     estimated scf accuracy    <       0.96731917 Ry

     iteration # 45     ecut=    30.00 Ry     beta=0.70
     Davidson diagonalization with overlap
     ethr =  5.36E-06,  avg # of iterations =  4.0

     negative rho (up, down):  1.325E-08 0.000E+00

     total cpu time spent up to now is        3.2 secs

     total energy              =     -32.02276070 Ry
     Harris-Foulkes estimate   =     -32.06634307 Ry
     estimated scf accuracy    <       1.05755305 Ry

     iteration # 46     ecut=    30.00 Ry     beta=0.70
     Davidson diagonalization with overlap
     ethr =  5.36E-06,  avg # of iterations =  3.0

     negative rho (up, down):  3.070E-08 0.000E+00

     total cpu time spent up to now is        3.3 secs

     total energy              =     -32.05910268 Ry
     Harris-Foulkes estimate   =     -32.02285083 Ry
     estimated scf accuracy    <       0.99188300 Ry

     iteration # 47     ecut=    30.00 Ry     beta=0.70
     Davidson diagonalization with overlap
     ethr =  5.36E-06,  avg # of iterations =  2.0

     negative rho (up, down):  1.021E-06 0.000E+00

     total cpu time spent up to now is        3.3 secs

     total energy              =     -32.17001013 Ry
     Harris-Foulkes estimate   =     -32.05916552 Ry
     estimated scf accuracy    <       1.04660031 Ry

     iteration # 48     ecut=    30.00 Ry     beta=0.70
     Davidson diagonalization with overlap
     ethr =  5.36E-06,  avg # of iterations =  5.0

     negative rho (up, down):  1.543E-04 0.000E+00

     total cpu time spent up to now is        3.3 secs

     total energy              =     -32.35076503 Ry
     Harris-Foulkes estimate   =     -32.17053412 Ry
     estimated scf accuracy    <       1.21330687 Ry

     iteration # 49     ecut=    30.00 Ry     beta=0.70
     Davidson diagonalization with overlap
     ethr =  5.36E-06,  avg # of iterations = 10.0

     total cpu time spent up to now is        3.4 secs

     total energy              =     -31.79009560 Ry
     Harris-Foulkes estimate   =     -32.35987733 Ry
     estimated scf accuracy    <       1.47549586 Ry

     iteration # 50     ecut=    30.00 Ry     beta=0.70
     Davidson diagonalization with overlap
     ethr =  5.36E-06,  avg # of iterations = 13.0

     total cpu time spent up to now is        3.5 secs

     total energy              =     -31.80170758 Ry
     Harris-Foulkes estimate   =     -32.09161398 Ry
     estimated scf accuracy    <       1.39815352 Ry

     iteration # 51     ecut=    30.00 Ry     beta=0.70
     Davidson diagonalization with overlap
     ethr =  5.36E-06,  avg # of iterations = 13.0

     negative rho (up, down):  8.776E-07 0.000E+00

     total cpu time spent up to now is        3.5 secs

     total energy              =     -31.59045566 Ry
     Harris-Foulkes estimate   =     -32.03479159 Ry
     estimated scf accuracy    <       1.00589408 Ry

     iteration # 52     ecut=    30.00 Ry     beta=0.70
     Davidson diagonalization with overlap
     ethr =  5.36E-06,  avg # of iterations = 12.0

     negative rho (up, down):  4.252E-02 0.000E+00

     total cpu time spent up to now is        3.6 secs

     total energy              =     -30.95153252 Ry
     Harris-Foulkes estimate   =     -32.45223014 Ry
     estimated scf accuracy    <       2.03121732 Ry

     iteration # 53     ecut=    30.00 Ry     beta=0.70
     Davidson diagonalization with overlap
     ethr =  5.36E-06,  avg # of iterations = 18.0

     negative rho (up, down):  7.283E-02 0.000E+00

     total cpu time spent up to now is        3.6 secs

     total energy              =     -34.18360760 Ry
     Harris-Foulkes estimate   =     -33.73185453 Ry
     estimated scf accuracy    <       3.37576258 Ry

     iteration # 54     ecut=    30.00 Ry     beta=0.70
     Davidson diagonalization with overlap
     ethr =  5.36E-06,  avg # of iterations =  5.0

     negative rho (up, down):  4.183E-02 0.000E+00

     total cpu time spent up to now is        3.7 secs

     total energy              =     -33.69598466 Ry
     Harris-Foulkes estimate   =     -34.18484674 Ry
     estimated scf accuracy    <       3.96631707 Ry

     iteration # 55     ecut=    30.00 Ry     beta=0.70
     Davidson diagonalization with overlap
     ethr =  5.36E-06,  avg # of iterations =  6.0

     total cpu time spent up to now is        3.7 secs

     total energy              =     -31.78972301 Ry
     Harris-Foulkes estimate   =     -33.69753663 Ry
     estimated scf accuracy    <       3.32710951 Ry

     iteration # 56     ecut=    30.00 Ry     beta=0.70
     Davidson diagonalization with overlap
     ethr =  5.36E-06,  avg # of iterations = 17.0

     total cpu time spent up to now is        3.8 secs

     total energy              =     -32.05486234 Ry
     Harris-Foulkes estimate   =     -32.02053212 Ry
     estimated scf accuracy    <       1.27233863 Ry

     iteration # 57     ecut=    30.00 Ry     beta=0.70
     Davidson diagonalization with overlap
     ethr =  5.36E-06,  avg # of iterations =  3.0

     total cpu time spent up to now is        3.8 secs

     total energy              =     -32.00048179 Ry
     Harris-Foulkes estimate   =     -32.05494126 Ry
     estimated scf accuracy    <       1.32803909 Ry

     iteration # 58     ecut=    30.00 Ry     beta=0.70
     Davidson diagonalization with overlap
     ethr =  5.36E-06,  avg # of iterations =  4.0

     total cpu time spent up to now is        3.9 secs

     total energy              =     -31.98070207 Ry
     Harris-Foulkes estimate   =     -32.00057159 Ry
     estimated scf accuracy    <       1.29484168 Ry

     iteration # 59     ecut=    30.00 Ry     beta=0.70
     Davidson diagonalization with overlap
     ethr =  5.36E-06,  avg # of iterations =  2.0

     total cpu time spent up to now is        3.9 secs

     total energy              =     -32.01295125 Ry
     Harris-Foulkes estimate   =     -31.97988117 Ry
     estimated scf accuracy    <       1.52109404 Ry

     iteration # 60     ecut=    30.00 Ry     beta=0.70
     Davidson diagonalization with overlap
     ethr =  5.36E-06,  avg # of iterations =  2.0

     negative rho (up, down):  2.628E-03 0.000E+00

     total cpu time spent up to now is        4.0 secs

     total energy              =     -32.33451343 Ry
     Harris-Foulkes estimate   =     -32.01084763 Ry
     estimated scf accuracy    <       1.26836424 Ry

     iteration # 61     ecut=    30.00 Ry     beta=0.70
     Davidson diagonalization with overlap
     ethr =  5.36E-06,  avg # of iterations = 13.0

     negative rho (up, down):  1.976E-06 0.000E+00

     total cpu time spent up to now is        4.0 secs

     total energy              =     -32.01454763 Ry
     Harris-Foulkes estimate   =     -32.34218311 Ry
     estimated scf accuracy    <       1.84718602 Ry

     iteration # 62     ecut=    30.00 Ry     beta=0.70
     Davidson diagonalization with overlap
     ethr =  5.36E-06,  avg # of iterations =  9.0

     negative rho (up, down):  1.344E-03 0.000E+00

     total cpu time spent up to now is        4.1 secs

     total energy              =     -32.13350818 Ry
     Harris-Foulkes estimate   =     -32.02309991 Ry
     estimated scf accuracy    <       1.27901239 Ry

     iteration # 63     ecut=    30.00 Ry     beta=0.70
     Davidson diagonalization with overlap
     ethr =  5.36E-06,  avg # of iterations =  5.0

     negative rho (up, down):  1.765E-02 0.000E+00

     total cpu time spent up to now is        4.1 secs

     total energy              =     -32.28724587 Ry
     Harris-Foulkes estimate   =     -32.13476526 Ry
     estimated scf accuracy    <       1.47886988 Ry

     iteration # 64     ecut=    30.00 Ry     beta=0.70
     Davidson diagonalization with overlap
     ethr =  5.36E-06,  avg # of iterations = 10.0

     negative rho (up, down):  3.382E-06 0.000E+00

     total cpu time spent up to now is        4.2 secs

     total energy              =     -31.92927778 Ry
     Harris-Foulkes estimate   =     -32.28974147 Ry
     estimated scf accuracy    <       1.76849729 Ry

     iteration # 65     ecut=    30.00 Ry     beta=0.70
     Davidson diagonalization with overlap
     ethr =  5.36E-06,  avg # of iterations =  9.0

     negative rho (up, down):  4.674E-05 0.000E+00

     total cpu time spent up to now is        4.2 secs

     total energy              =     -31.84647369 Ry
     Harris-Foulkes estimate   =     -31.94172738 Ry
     estimated scf accuracy    <       0.31882108 Ry

     iteration # 66     ecut=    30.00 Ry     beta=0.70
     Davidson diagonalization with overlap
     ethr =  5.36E-06,  avg # of iterations = 11.0

     negative rho (up, down):  1.435E-05 0.000E+00

     total cpu time spent up to now is        4.3 secs

     total energy              =     -32.13981024 Ry
     Harris-Foulkes estimate   =     -32.09455539 Ry
     estimated scf accuracy    <       1.11552511 Ry

     iteration # 67     ecut=    30.00 Ry     beta=0.70
     Davidson diagonalization with overlap
     ethr =  5.36E-06,  avg # of iterations =  4.0

     negative rho (up, down):  7.168E-06 0.000E+00

     total cpu time spent up to now is        4.3 secs

     total energy              =     -32.11928134 Ry
     Harris-Foulkes estimate   =     -32.13985449 Ry
     estimated scf accuracy    <       1.17995972 Ry

     iteration # 68     ecut=    30.00 Ry     beta=0.70
     Davidson diagonalization with overlap
     ethr =  5.36E-06,  avg # of iterations =  2.0

     negative rho (up, down):  6.782E-07 0.000E+00

     total cpu time spent up to now is        4.3 secs

     total energy              =     -32.04606519 Ry
     Harris-Foulkes estimate   =     -32.11932053 Ry
     estimated scf accuracy    <       1.14654072 Ry

     iteration # 69     ecut=    30.00 Ry     beta=0.70
     Davidson diagonalization with overlap
     ethr =  5.36E-06,  avg # of iterations =  5.0

     negative rho (up, down):  1.330E-08 0.000E+00

     total cpu time spent up to now is        4.4 secs

     total energy              =     -32.00216988 Ry
     Harris-Foulkes estimate   =     -32.04645347 Ry
     estimated scf accuracy    <       1.03068825 Ry

     iteration # 70     ecut=    30.00 Ry     beta=0.70
     Davidson diagonalization with overlap
     ethr =  5.36E-06,  avg # of iterations =  4.0

     negative rho (up, down):  3.779E-07 0.000E+00

     total cpu time spent up to now is        4.4 secs

     total energy              =     -32.01528825 Ry
     Harris-Foulkes estimate   =     -32.00234350 Ry
     estimated scf accuracy    <       0.95946273 Ry

     iteration # 71     ecut=    30.00 Ry     beta=0.70
     Davidson diagonalization with overlap
     ethr =  5.36E-06,  avg # of iterations =  1.0

     negative rho (up, down):  2.588E-08 0.000E+00

     total cpu time spent up to now is        4.5 secs

     total energy              =     -31.96840436 Ry
     Harris-Foulkes estimate   =     -32.01530824 Ry
     estimated scf accuracy    <       0.98071527 Ry

     iteration # 72     ecut=    30.00 Ry     beta=0.70
     Davidson diagonalization with overlap
     ethr =  5.36E-06,  avg # of iterations =  4.0

     total cpu time spent up to now is        4.5 secs

     total energy              =     -31.96915083 Ry
     Harris-Foulkes estimate   =     -31.96865047 Ry
     estimated scf accuracy    <       0.88537517 Ry

     iteration # 73     ecut=    30.00 Ry     beta=0.70
     Davidson diagonalization with overlap
     ethr =  5.36E-06,  avg # of iterations =  1.0

     total cpu time spent up to now is        4.5 secs

     total energy              =     -32.00471478 Ry
     Harris-Foulkes estimate   =     -31.96916039 Ry
     estimated scf accuracy    <       0.88399743 Ry

     iteration # 74     ecut=    30.00 Ry     beta=0.70
     Davidson diagonalization with overlap
     ethr =  5.36E-06,  avg # of iterations =  4.0

     negative rho (up, down):  1.788E-05 0.000E+00

     total cpu time spent up to now is        4.6 secs

     total energy              =     -31.46463165 Ry
     Harris-Foulkes estimate   =     -32.00520050 Ry
     estimated scf accuracy    <       0.96316097 Ry

     iteration # 75     ecut=    30.00 Ry     beta=0.70
     Davidson diagonalization with overlap
     ethr =  5.36E-06,  avg # of iterations = 12.0

     total cpu time spent up to now is        4.6 secs

     total energy              =     -32.23008844 Ry
     Harris-Foulkes estimate   =     -32.79776369 Ry
     estimated scf accuracy    <       2.67475512 Ry

     iteration # 76     ecut=    30.00 Ry     beta=0.70
     Davidson diagonalization with overlap
     ethr =  5.36E-06,  avg # of iterations = 13.0

     total cpu time spent up to now is        4.7 secs

     total energy              =     -32.07298204 Ry
     Harris-Foulkes estimate   =     -32.24488456 Ry
     estimated scf accuracy    <       1.66529724 Ry

     iteration # 77     ecut=    30.00 Ry     beta=0.70
     Davidson diagonalization with overlap
     ethr =  5.36E-06,  avg # of iterations =  8.0

     total cpu time spent up to now is        4.7 secs

     total energy              =     -31.94736147 Ry
     Harris-Foulkes estimate   =     -32.07532344 Ry
     estimated scf accuracy    <       1.36536886 Ry

     iteration # 78     ecut=    30.00 Ry     beta=0.70
     Davidson diagonalization with overlap
     ethr =  5.36E-06,  avg # of iterations =  6.0

     total cpu time spent up to now is        4.8 secs

     total energy              =     -31.89679033 Ry
     Harris-Foulkes estimate   =     -31.94607554 Ry
     estimated scf accuracy    <       0.63334141 Ry

     iteration # 79     ecut=    30.00 Ry     beta=0.70
     Davidson diagonalization with overlap
     ethr =  5.36E-06,  avg # of iterations =  5.0

     total cpu time spent up to now is        4.8 secs

     total energy              =     -31.90618314 Ry
     Harris-Foulkes estimate   =     -31.96279316 Ry
     estimated scf accuracy    <       0.84395605 Ry

     iteration # 80     ecut=    30.00 Ry     beta=0.70
     Davidson diagonalization with overlap
     ethr =  5.36E-06,  avg # of iterations =  4.0

     total cpu time spent up to now is        4.9 secs

     total energy              =     -31.94043704 Ry
     Harris-Foulkes estimate   =     -31.94554682 Ry
     estimated scf accuracy    <       0.59758233 Ry

     iteration # 81     ecut=    30.00 Ry     beta=0.70
     Davidson diagonalization with overlap
     ethr =  5.36E-06,  avg # of iterations =  1.0

     negative rho (up, down):  5.384E-08 0.000E+00

     total cpu time spent up to now is        4.9 secs

     total energy              =     -31.91071209 Ry
     Harris-Foulkes estimate   =     -31.94122467 Ry
     estimated scf accuracy    <       0.27831442 Ry

     iteration # 82     ecut=    30.00 Ry     beta=0.70
     Davidson diagonalization with overlap
     ethr =  5.36E-06,  avg # of iterations =  4.0

     total cpu time spent up to now is        5.0 secs

     total energy              =     -31.93300113 Ry
     Harris-Foulkes estimate   =     -31.96624524 Ry
     estimated scf accuracy    <       0.87476584 Ry

     iteration # 83     ecut=    30.00 Ry     beta=0.70
     Davidson diagonalization with overlap
     ethr =  5.36E-06,  avg # of iterations =  3.0

     total cpu time spent up to now is        5.0 secs

     total energy              =     -31.93496422 Ry
     Harris-Foulkes estimate   =     -31.93966684 Ry
     estimated scf accuracy    <       0.13370648 Ry

     iteration # 84     ecut=    30.00 Ry     beta=0.70
     Davidson diagonalization with overlap
     ethr =  5.36E-06,  avg # of iterations =  1.0

     total cpu time spent up to now is        5.1 secs

     total energy              =     -31.93875307 Ry
     Harris-Foulkes estimate   =     -31.93779023 Ry
     estimated scf accuracy    <       0.00882287 Ry

     iteration # 85     ecut=    30.00 Ry     beta=0.70
     Davidson diagonalization with overlap
     ethr =  5.36E-06,  avg # of iterations =  1.0

     total cpu time spent up to now is        5.1 secs

     total energy              =     -31.93794985 Ry
     Harris-Foulkes estimate   =     -31.94067405 Ry
     estimated scf accuracy    <       0.23548570 Ry

     iteration # 86     ecut=    30.00 Ry     beta=0.70
     Davidson diagonalization with overlap
     ethr =  5.36E-06,  avg # of iterations =  1.0

     total cpu time spent up to now is        5.1 secs

     total energy              =     -31.93398604 Ry
     Harris-Foulkes estimate   =     -31.93856364 Ry
     estimated scf accuracy    <       0.06959122 Ry

     iteration # 87     ecut=    30.00 Ry     beta=0.70
     Davidson diagonalization with overlap
     ethr =  5.36E-06,  avg # of iterations =  2.0

     total cpu time spent up to now is        5.2 secs

     total energy              =     -31.93834751 Ry
     Harris-Foulkes estimate   =     -31.93981559 Ry
     estimated scf accuracy    <       0.14319114 Ry

     iteration # 88     ecut=    30.00 Ry     beta=0.70
     Davidson diagonalization with overlap
     ethr =  5.36E-06,  avg # of iterations =  1.0

     total cpu time spent up to now is        5.2 secs

     total energy              =     -31.93855060 Ry
     Harris-Foulkes estimate   =     -31.93858361 Ry
     estimated scf accuracy    <       0.06406679 Ry

     iteration # 89     ecut=    30.00 Ry     beta=0.70
     Davidson diagonalization with overlap
     ethr =  5.36E-06,  avg # of iterations =  1.0

     total cpu time spent up to now is        5.2 secs

     total energy              =     -31.93855554 Ry
     Harris-Foulkes estimate   =     -31.93855097 Ry
     estimated scf accuracy    <       0.06184329 Ry

     iteration # 90     ecut=    30.00 Ry     beta=0.70
     Davidson diagonalization with overlap
     ethr =  5.36E-06,  avg # of iterations =  1.0

     total cpu time spent up to now is        5.3 secs

     total energy              =     -31.93785040 Ry
     Harris-Foulkes estimate   =     -31.93855556 Ry
     estimated scf accuracy    <       0.06215469 Ry

     iteration # 91     ecut=    30.00 Ry     beta=0.70
     Davidson diagonalization with overlap
     ethr =  5.36E-06,  avg # of iterations =  1.0

     total cpu time spent up to now is        5.3 secs

     total energy              =     -31.93736955 Ry
     Harris-Foulkes estimate   =     -31.93798634 Ry
     estimated scf accuracy    <       0.02275392 Ry

     iteration # 92     ecut=    30.00 Ry     beta=0.70
     Davidson diagonalization with overlap
     ethr =  5.36E-06,  avg # of iterations =  1.0

     total cpu time spent up to now is        5.3 secs

     total energy              =     -31.93767457 Ry
     Harris-Foulkes estimate   =     -31.93767449 Ry
     estimated scf accuracy    <       0.00000063 Ry

     iteration # 93     ecut=    30.00 Ry     beta=0.70
     Davidson diagonalization with overlap
     ethr =  7.88E-09,  avg # of iterations =  2.0

     total cpu time spent up to now is        5.4 secs

     total energy              =     -31.93767461 Ry
     Harris-Foulkes estimate   =     -31.93767460 Ry
     estimated scf accuracy    <       0.00000004 Ry

     iteration # 94     ecut=    30.00 Ry     beta=0.70
     Davidson diagonalization with overlap
     ethr =  4.54E-10,  avg # of iterations =  1.0

     total cpu time spent up to now is        5.4 secs

     total energy              =     -31.93767464 Ry
     Harris-Foulkes estimate   =     -31.93767463 Ry
     estimated scf accuracy    <       0.00000101 Ry

     iteration # 95     ecut=    30.00 Ry     beta=0.70
     Davidson diagonalization with overlap
     ethr =  4.54E-10,  avg # of iterations =  1.0

     total cpu time spent up to now is        5.4 secs

     total energy              =     -31.93767466 Ry
     Harris-Foulkes estimate   =     -31.93767464 Ry
     estimated scf accuracy    <       0.00000163 Ry

     iteration # 96     ecut=    30.00 Ry     beta=0.70
     Davidson diagonalization with overlap
     ethr =  4.54E-10,  avg # of iterations =  1.0

     total cpu time spent up to now is        5.5 secs

     total energy              =     -31.93767460 Ry
     Harris-Foulkes estimate   =     -31.93767466 Ry
     estimated scf accuracy    <       0.00000258 Ry

     iteration # 97     ecut=    30.00 Ry     beta=0.70
     Davidson diagonalization with overlap
     ethr =  4.54E-10,  avg # of iterations =  1.0

     total cpu time spent up to now is        5.5 secs

     End of self-consistent calculation

          k = 0.0000 0.0000 0.0000 ( 22119 PWs)   bands (ev):

   -24.4388 -10.3925  -7.0189  -7.0176  -6.8785  -0.9606   0.2248   0.8091

     the Fermi energy is    -6.8478 ev

!    total energy              =     -31.93767464 Ry
     Harris-Foulkes estimate   =     -31.93767463 Ry
     estimated scf accuracy    <          9.4E-09 Ry

     convergence has been achieved in  97 iterations

     Forces acting on atoms (Ry/au):

     atom    1 type  1   force =     0.02430844    0.01996051    0.10584160
     atom    2 type  1   force =    -0.00027729    0.00000459   -0.00046238
     atom    3 type  2   force =    -0.02403114   -0.01996510   -0.10537922

     Total force =     0.155798     Total SCF correction =     0.000043

     Entering Dynamics:    iteration =     2
                           time      =   0.0097 pico-seconds


     Andersen thermostat:    3 collisions

ATOMIC_POSITIONS (bohr)
H       14.362456473  11.264607923  14.898077171
H       15.292049286   7.671618916   5.004544773
O       14.497816422  11.238657070  15.575603350


     kinetic energy (Ekin) =     0.03726087 Ry
     temperature           =  1961.00621589 K 
     Ekin + Etot (const)   =   -31.90041377 Ry
     Message from routine dynamics:
     Total linear momentum <> 0

     Linear momentum :   -0.0482643422    0.4839037204    0.0463385468

     Writing output data file pwscf.save

     first order wave-functions extrapolation
     Check: negative starting charge=   -0.347417
     first order charge density extrapolation
     Check: negative starting charge=   -0.349228

     negative rho (up, down):  3.328E-01 0.000E+00

     total cpu time spent up to now is        5.8 secs

     per-process dynamical memory:    20.4 Mb

     Self-consistent Calculation

     iteration #  1     ecut=    30.00 Ry     beta=0.70
     Davidson diagonalization with overlap
     ethr =  1.00E-06,  avg # of iterations = 11.0

     negative rho (up, down):  5.720E-02 0.000E+00

     total cpu time spent up to now is        5.9 secs

     total energy              =      36.57248338 Ry
     Harris-Foulkes estimate   =    -443.80097059 Ry
     estimated scf accuracy    <      15.39378331 Ry

     iteration #  2     ecut=    30.00 Ry     beta=0.70
     Davidson diagonalization with overlap
     ethr =  1.00E-02,  avg # of iterations =  4.0

     negative rho (up, down):  3.509E-02 0.000E+00

     total cpu time spent up to now is        5.9 secs

     total energy              =     -28.04262218 Ry
     Harris-Foulkes estimate   =     -34.48967222 Ry
     estimated scf accuracy    <      12.33931064 Ry

     iteration #  3     ecut=    30.00 Ry     beta=0.70
     Davidson diagonalization with overlap
     ethr =  1.00E-02,  avg # of iterations =  3.0

     negative rho (up, down):  2.816E-02 0.000E+00

     total cpu time spent up to now is        6.0 secs

     total energy              =     -28.12152963 Ry
     Harris-Foulkes estimate   =     -29.74071686 Ry
     estimated scf accuracy    <       5.86965355 Ry

     iteration #  4     ecut=    30.00 Ry     beta=0.70
     Davidson diagonalization with overlap
     ethr =  1.00E-02,  avg # of iterations =  2.0

     negative rho (up, down):  1.694E-02 0.000E+00

     total cpu time spent up to now is        6.0 secs

     total energy              =     -27.04620905 Ry
     Harris-Foulkes estimate   =     -28.30068421 Ry
     estimated scf accuracy    <       3.65545752 Ry

     iteration #  5     ecut=    30.00 Ry     beta=0.70
     Davidson diagonalization with overlap
     ethr =  1.00E-02,  avg # of iterations =  1.0

     negative rho (up, down):  9.797E-03 0.000E+00

     total cpu time spent up to now is        6.0 secs

     total energy              =     -26.71033136 Ry
     Harris-Foulkes estimate   =     -27.31914455 Ry
     estimated scf accuracy    <       2.36458877 Ry

     iteration #  6     ecut=    30.00 Ry     beta=0.70
     Davidson diagonalization with overlap
     ethr =  1.00E-02,  avg # of iterations =  1.0

     negative rho (up, down):  2.585E-03 0.000E+00

     total cpu time spent up to now is        6.0 secs

     total energy              =     -26.62823553 Ry
     Harris-Foulkes estimate   =     -26.86275201 Ry
     estimated scf accuracy    <       1.36080762 Ry

     iteration #  7     ecut=    30.00 Ry     beta=0.70
     Davidson diagonalization with overlap
     ethr =  1.00E-02,  avg # of iterations =  1.0

     negative rho (up, down):  1.295E-03 0.000E+00

     total cpu time spent up to now is        6.1 secs

     total energy              =     -26.63412707 Ry
     Harris-Foulkes estimate   =     -26.65032140 Ry
     estimated scf accuracy    <       0.09153747 Ry

     iteration #  8     ecut=    30.00 Ry     beta=0.70
     Davidson diagonalization with overlap
     ethr =  1.14E-03,  avg # of iterations =  1.0

     negative rho (up, down):  9.908E-04 0.000E+00

     total cpu time spent up to now is        6.1 secs

     total energy              =     -26.66162262 Ry
     Harris-Foulkes estimate   =     -26.68733010 Ry
     estimated scf accuracy    <       1.78003172 Ry

     iteration #  9     ecut=    30.00 Ry     beta=0.70
     Davidson diagonalization with overlap
     ethr =  1.14E-03,  avg # of iterations =  1.0

     negative rho (up, down):  4.486E-04 0.000E+00

     total cpu time spent up to now is        6.1 secs

     total energy              =     -26.53188940 Ry
     Harris-Foulkes estimate   =     -26.66220582 Ry
     estimated scf accuracy    <       1.36204317 Ry

     iteration # 10     ecut=    30.00 Ry     beta=0.70
     Davidson diagonalization with overlap
     ethr =  1.14E-03,  avg # of iterations =  1.0

     total cpu time spent up to now is        6.2 secs

     total energy              =     -26.66131192 Ry
     Harris-Foulkes estimate   =     -26.70671182 Ry
     estimated scf accuracy    <       0.89850454 Ry

     iteration # 11     ecut=    30.00 Ry     beta=0.70
     Davidson diagonalization with overlap
     ethr =  1.14E-03,  avg # of iterations =  1.0

     total cpu time spent up to now is        6.2 secs

     total energy              =     -26.66436407 Ry
     Harris-Foulkes estimate   =     -26.66299511 Ry
     estimated scf accuracy    <       0.66423647 Ry

     iteration # 12     ecut=    30.00 Ry     beta=0.70
     Davidson diagonalization with overlap
     ethr =  1.14E-03,  avg # of iterations =  1.0

     total cpu time spent up to now is        6.2 secs

     total energy              =     -26.64034704 Ry
     Harris-Foulkes estimate   =     -26.66441863 Ry
     estimated scf accuracy    <       0.68933762 Ry

     iteration # 13     ecut=    30.00 Ry     beta=0.70
     Davidson diagonalization with overlap
     ethr =  1.14E-03,  avg # of iterations =  1.0

     total cpu time spent up to now is        6.3 secs

     total energy              =     -26.64695906 Ry
     Harris-Foulkes estimate   =     -26.64773556 Ry
     estimated scf accuracy    <       0.02997484 Ry

     iteration # 14     ecut=    30.00 Ry     beta=0.70
     Davidson diagonalization with overlap
     ethr =  3.75E-04,  avg # of iterations =  1.0

     total cpu time spent up to now is        6.3 secs

     total energy              =     -26.64736936 Ry
     Harris-Foulkes estimate   =     -26.64733464 Ry
     estimated scf accuracy    <       0.00003229 Ry

     iteration # 15     ecut=    30.00 Ry     beta=0.70
     Davidson diagonalization with overlap
     ethr =  4.04E-07,  avg # of iterations = 14.0

     total cpu time spent up to now is        6.4 secs

     total energy              =     -26.64665436 Ry
     Harris-Foulkes estimate   =     -26.64795965 Ry
     estimated scf accuracy    <       0.04511336 Ry

     iteration # 16     ecut=    30.00 Ry     beta=0.70
     Davidson diagonalization with overlap
     ethr =  4.04E-07,  avg # of iterations =  2.0

     total cpu time spent up to now is        6.4 secs

     total energy              =     -26.64740120 Ry
     Harris-Foulkes estimate   =     -26.64734723 Ry
     estimated scf accuracy    <       0.00033436 Ry

     iteration # 17     ecut=    30.00 Ry     beta=0.70
     Davidson diagonalization with overlap
     ethr =  4.04E-07,  avg # of iterations =  1.0

     total cpu time spent up to now is        6.4 secs

     total energy              =     -26.64730429 Ry
     Harris-Foulkes estimate   =     -26.64757197 Ry
     estimated scf accuracy    <       0.01835940 Ry

     iteration # 18     ecut=    30.00 Ry     beta=0.70
     Davidson diagonalization with overlap
     ethr =  4.04E-07,  avg # of iterations =  1.0

     total cpu time spent up to now is        6.5 secs

     total energy              =     -26.64726926 Ry
     Harris-Foulkes estimate   =     -26.64738054 Ry
     estimated scf accuracy    <       0.00327352 Ry

     iteration # 19     ecut=    30.00 Ry     beta=0.70
     Davidson diagonalization with overlap
     ethr =  4.04E-07,  avg # of iterations =  1.0

     total cpu time spent up to now is        6.5 secs

     total energy              =     -26.64734245 Ry
     Harris-Foulkes estimate   =     -26.64734252 Ry
     estimated scf accuracy    <       0.00034753 Ry

     iteration # 20     ecut=    30.00 Ry     beta=0.70
     Davidson diagonalization with overlap
     ethr =  4.04E-07,  avg # of iterations =  1.0

     total cpu time spent up to now is        6.5 secs

     total energy              =     -26.64733364 Ry
     Harris-Foulkes estimate   =     -26.64734250 Ry
     estimated scf accuracy    <       0.00041079 Ry

     iteration # 21     ecut=    30.00 Ry     beta=0.70
     Davidson diagonalization with overlap
     ethr =  4.04E-07,  avg # of iterations =  1.0

     total cpu time spent up to now is        6.6 secs

     total energy              =     -26.64733465 Ry
     Harris-Foulkes estimate   =     -26.64733597 Ry
     estimated scf accuracy    <       0.00004925 Ry

     iteration # 22     ecut=    30.00 Ry     beta=0.70
     Davidson diagonalization with overlap
     ethr =  4.04E-07,  avg # of iterations =  1.0

     total cpu time spent up to now is        6.6 secs

     total energy              =     -26.64733543 Ry
     Harris-Foulkes estimate   =     -26.64733538 Ry
     estimated scf accuracy    <       0.00000026 Ry

     iteration # 23     ecut=    30.00 Ry     beta=0.70
     Davidson diagonalization with overlap
     ethr =  3.24E-09,  avg # of iterations =  1.0

     total cpu time spent up to now is        6.6 secs

     total energy              =     -26.64733548 Ry
     Harris-Foulkes estimate   =     -26.64733544 Ry
     estimated scf accuracy    <       0.00000002 Ry

     iteration # 24     ecut=    30.00 Ry     beta=0.70
     Davidson diagonalization with overlap
     ethr =  2.37E-10,  avg # of iterations =  1.0

     total cpu time spent up to now is        6.6 secs

     End of self-consistent calculation

          k = 0.0000 0.0000 0.0000 ( 22119 PWs)   bands (ev):

   -31.2451 -11.7477  -7.5723  -7.5715  -7.4089  -0.3107   0.6002   0.7883

     the Fermi energy is    -7.3935 ev

!    total energy              =     -26.64733548 Ry
     Harris-Foulkes estimate   =     -26.64733548 Ry
     estimated scf accuracy    <          3.5E-11 Ry

     convergence has been achieved in  24 iterations

     Forces acting on atoms (Ry/au):

     atom    1 type  1   force =    -4.13132152    0.79237675  -20.67315794
     atom    2 type  1   force =    -0.00025033    0.00003956   -0.00234617
     atom    3 type  2   force =     4.13157185   -0.79241630   20.67550411

     Total force =    29.837048     Total SCF correction =     0.000003

     Entering Dynamics:    iteration =     3
                           time      =   0.0145 pico-seconds


     Andersen thermostat:    3 collisions

ATOMIC_POSITIONS (bohr)
H      -30.294346555  19.589452431-209.585338769
H       15.432687061   7.744605680   5.318008587
O       17.307899354  10.708543970  29.726331578


     kinetic energy (Ekin) =   640.71351323 Ry
     temperature           = ************** K 
     Ekin + Etot (const)   =   614.06617775 Ry
     Message from routine dynamics:
     Total linear momentum <> 0

     Linear momentum :    0.3047675616   -0.3500624036   -0.1369358232

     Writing output data file pwscf.save

     second order wave-functions extrapolation
     Message from extrapolate_wfcs: 
     the matrix <psi(t-dt)|psi(t)> has  1 small (< 0.1) eigenvalues
     Check: negative starting charge=   -0.349228
     second order charge density extrapolation
     Check: negative starting charge=   -0.343822

     negative rho (up, down):  1.372E+02 0.000E+00

     total cpu time spent up to now is        7.0 secs

     per-process dynamical memory:    20.4 Mb

     Self-consistent Calculation

     iteration #  1     ecut=    30.00 Ry     beta=0.70
     Davidson diagonalization with overlap
     c_bands:  5 eigenvalues not converged
     ethr =  1.00E-06,  avg # of iterations = 20.0

     negative rho (up, down):  4.023E+01 0.000E+00

     total cpu time spent up to now is        7.2 secs

     total energy              =    -742.32587566 Ry
     Harris-Foulkes estimate   = -316246.30754279 Ry
     estimated scf accuracy    <    6799.45901631 Ry

     iteration #  2     ecut=    30.00 Ry     beta=0.70
     Davidson diagonalization with overlap
     ethr =  1.00E-02,  avg # of iterations = 15.0

     negative rho (up, down):  3.434E-03 0.000E+00

     total cpu time spent up to now is        7.3 secs

     total energy              =     156.04410735 Ry
     Harris-Foulkes estimate   =  -11549.81353872 Ry
     estimated scf accuracy    <     661.37042795 Ry

     iteration #  3     ecut=    30.00 Ry     beta=0.70
     Davidson diagonalization with overlap
     ethr =  1.00E-02,  avg # of iterations = 11.0

     negative rho (up, down):  6.430E-02 0.000E+00

     total cpu time spent up to now is        7.4 secs

     total energy              =     -18.51893108 Ry
     Harris-Foulkes estimate   =    -102.88430028 Ry
     estimated scf accuracy    <      59.66633214 Ry

     iteration #  4     ecut=    30.00 Ry     beta=0.70
     Davidson diagonalization with overlap
     ethr =  1.00E-02,  avg # of iterations =  8.0

     negative rho (up, down):  2.213E-01 0.000E+00

     total cpu time spent up to now is        7.4 secs

     total energy              =      81.95756499 Ry
     Harris-Foulkes estimate   =    -193.27360794 Ry
     estimated scf accuracy    <      23.03381057 Ry

     iteration #  5     ecut=    30.00 Ry     beta=0.70
     Davidson diagonalization with overlap
     ethr =  1.00E-02,  avg # of iterations =  9.0

     negative rho (up, down):  1.644E-02 0.000E+00

     total cpu time spent up to now is        7.5 secs

     total energy              =      69.43285748 Ry
     Harris-Foulkes estimate   =    -173.18179733 Ry
     estimated scf accuracy    <      24.55017670 Ry

     iteration #  6     ecut=    30.00 Ry     beta=0.70
     Davidson diagonalization with overlap
     ethr =  1.00E-02,  avg # of iterations =  5.0

     negative rho (up, down):  1.948E-01 0.000E+00

     total cpu time spent up to now is        7.5 secs

     total energy              =     -56.10545446 Ry
     Harris-Foulkes estimate   =     -67.26290068 Ry
     estimated scf accuracy    <      49.11700020 Ry

     iteration #  7     ecut=    30.00 Ry     beta=0.70
     Davidson diagonalization with overlap
     ethr =  1.00E-02,  avg # of iterations =  7.0

     negative rho (up, down):  1.910E-01 0.000E+00

     total cpu time spent up to now is        7.6 secs

     total energy              =      78.08026369 Ry
     Harris-Foulkes estimate   =   -7558.94670948 Ry
     estimated scf accuracy    <      17.50221091 Ry

     iteration #  8     ecut=    30.00 Ry     beta=0.70
     Davidson diagonalization with overlap
     ethr =  1.00E-02,  avg # of iterations =  5.0

     negative rho (up, down):  1.091E-01 0.000E+00

     total cpu time spent up to now is        7.6 secs

     total energy              =     -28.55793597 Ry
     Harris-Foulkes estimate   =    -217.15859425 Ry
     estimated scf accuracy    <      14.23424709 Ry

     iteration #  9     ecut=    30.00 Ry     beta=0.70
     Davidson diagonalization with overlap
     ethr =  1.00E-02,  avg # of iterations =  4.0

     negative rho (up, down):  6.264E-02 0.000E+00

     total cpu time spent up to now is        7.6 secs

     total energy              =      -7.17579186 Ry
     Harris-Foulkes estimate   =    -118.67972714 Ry
     estimated scf accuracy    <      14.39955933 Ry

     iteration # 10     ecut=    30.00 Ry     beta=0.70
     Davidson diagonalization with overlap
     ethr =  1.00E-02,  avg # of iterations =  5.0

     negative rho (up, down):  2.665E-02 0.000E+00

     total cpu time spent up to now is        7.7 secs

     total energy              =     -45.46692186 Ry
     Harris-Foulkes estimate   =     -50.08016987 Ry
     estimated scf accuracy    <      26.75081212 Ry

     iteration # 11     ecut=    30.00 Ry     beta=0.70
     Davidson diagonalization with overlap
     ethr =  1.00E-02,  avg # of iterations =  4.0

     negative rho (up, down):  2.236E-02 0.000E+00

     total cpu time spent up to now is        7.7 secs

     total energy              =      45.64913932 Ry
     Harris-Foulkes estimate   =    -787.45292155 Ry
     estimated scf accuracy    <      10.76169195 Ry

     iteration # 12     ecut=    30.00 Ry     beta=0.70
     Davidson diagonalization with overlap
     ethr =  1.00E-02,  avg # of iterations = 10.0

     negative rho (up, down):  6.443E-03 0.000E+00

     total cpu time spent up to now is        7.8 secs

     total energy              =     -36.27640482 Ry
     Harris-Foulkes estimate   =     -44.95593749 Ry
     estimated scf accuracy    <      20.10850295 Ry

     iteration # 13     ecut=    30.00 Ry     beta=0.70
     Davidson diagonalization with overlap
     ethr =  1.00E-02,  avg # of iterations =  2.0

     negative rho (up, down):  7.944E-01 0.000E+00

     total cpu time spent up to now is        7.8 secs

     total energy              =     -30.56827016 Ry
     Harris-Foulkes estimate   =     -36.42510903 Ry
     estimated scf accuracy    <       8.92851576 Ry

     iteration # 14     ecut=    30.00 Ry     beta=0.70
     Davidson diagonalization with overlap
     ethr =  1.00E-02,  avg # of iterations =  8.0

     negative rho (up, down):  1.125E-01 0.000E+00

     total cpu time spent up to now is        7.9 secs

     total energy              =      -4.63204776 Ry
     Harris-Foulkes estimate   =    -499.64784094 Ry
     estimated scf accuracy    <      71.57033224 Ry

     iteration # 15     ecut=    30.00 Ry     beta=0.70
     Davidson diagonalization with overlap
     ethr =  1.00E-02,  avg # of iterations =  8.0

     negative rho (up, down):  1.534E-01 0.000E+00

     total cpu time spent up to now is        7.9 secs

     total energy              =    -450.30157608 Ry
     Harris-Foulkes estimate   =    -565.59335605 Ry
     estimated scf accuracy    <      61.68088452 Ry

     iteration # 16     ecut=    30.00 Ry     beta=0.70
     Davidson diagonalization with overlap
     ethr =  1.00E-02,  avg # of iterations = 10.0

     negative rho (up, down):  7.049E-02 0.000E+00

     total cpu time spent up to now is        8.0 secs

     total energy              =     145.88294073 Ry
     Harris-Foulkes estimate   =   -1507.51374703 Ry
     estimated scf accuracy    <      52.37628571 Ry

     iteration # 17     ecut=    30.00 Ry     beta=0.70
     Davidson diagonalization with overlap
     ethr =  1.00E-02,  avg # of iterations =  8.0

     negative rho (up, down):  5.467E-02 0.000E+00

     total cpu time spent up to now is        8.0 secs

     total energy              =     -10.91157244 Ry
     Harris-Foulkes estimate   =     -73.57896601 Ry
     estimated scf accuracy    <      24.67270913 Ry

     iteration # 18     ecut=    30.00 Ry     beta=0.70
     Davidson diagonalization with overlap
     ethr =  1.00E-02,  avg # of iterations =  5.0

     negative rho (up, down):  2.226E-02 0.000E+00

     total cpu time spent up to now is        8.1 secs

     total energy              =      96.37793339 Ry
     Harris-Foulkes estimate   =    -619.92476420 Ry
     estimated scf accuracy    <      55.95864772 Ry

     iteration # 19     ecut=    30.00 Ry     beta=0.70
     Davidson diagonalization with overlap
     ethr =  1.00E-02,  avg # of iterations =  7.0

     negative rho (up, down):  2.389E-02 0.000E+00

     total cpu time spent up to now is        8.1 secs

     total energy              =     -34.63457023 Ry
     Harris-Foulkes estimate   =     -34.42292446 Ry
     estimated scf accuracy    <       8.83965524 Ry

     iteration # 20     ecut=    30.00 Ry     beta=0.70
     Davidson diagonalization with overlap
     ethr =  1.00E-02,  avg # of iterations =  5.0

     negative rho (up, down):  1.861E-02 0.000E+00

     total cpu time spent up to now is        8.2 secs

     total energy              =     -34.64342363 Ry
     Harris-Foulkes estimate   =     -34.64694084 Ry
     estimated scf accuracy    <       8.58690978 Ry

     iteration # 21     ecut=    30.00 Ry     beta=0.70
     Davidson diagonalization with overlap
     ethr =  1.00E-02,  avg # of iterations =  4.0

     negative rho (up, down):  1.315E-02 0.000E+00

     total cpu time spent up to now is        8.2 secs

     total energy              =     -35.11891803 Ry
     Harris-Foulkes estimate   =     -34.70133829 Ry
     estimated scf accuracy    <       8.06107267 Ry

     iteration # 22     ecut=    30.00 Ry     beta=0.70
     Davidson diagonalization with overlap
     ethr =  1.00E-02,  avg # of iterations =  1.0

     negative rho (up, down):  1.249E-02 0.000E+00

     total cpu time spent up to now is        8.2 secs

     total energy              =     -35.06510177 Ry
     Harris-Foulkes estimate   =     -36.06579243 Ry
     estimated scf accuracy    <       8.75730631 Ry

     iteration # 23     ecut=    30.00 Ry     beta=0.70
     Davidson diagonalization with overlap
     ethr =  1.00E-02,  avg # of iterations =  1.0

     negative rho (up, down):  1.035E-02 0.000E+00

     total cpu time spent up to now is        8.3 secs

     total energy              =     -34.55501441 Ry
     Harris-Foulkes estimate   =     -35.07869358 Ry
     estimated scf accuracy    <       6.64905946 Ry

[...]

     total cpu time spent up to now is       18.5 secs

     total energy              =     768.65212410 Ry
     Harris-Foulkes estimate   =   -4323.94023071 Ry
     estimated scf accuracy    <      30.85459044 Ry

     iteration # 59     ecut=    30.00 Ry     beta=0.70
     Davidson diagonalization with overlap
     ethr =  1.00E-02,  avg # of iterations =  6.0

     negative rho (up, down):  4.106E-01 0.000E+00

     total cpu time spent up to now is       18.5 secs

     total energy              =      23.14947983 Ry
     Harris-Foulkes estimate   =    -858.58969125 Ry
     estimated scf accuracy    <      30.09300399 Ry

     iteration # 60     ecut=    30.00 Ry     beta=0.70
     Davidson diagonalization with overlap
     ethr =  1.00E-02,  avg # of iterations =  7.0

     negative rho (up, down):  2.905E-01 0.000E+00

     total cpu time spent up to now is       18.6 secs

     total energy              =      65.60941261 Ry
     Harris-Foulkes estimate   =    -557.08201974 Ry
     estimated scf accuracy    <      38.93657318 Ry

     iteration # 61     ecut=    30.00 Ry     beta=0.70
     Davidson diagonalization with overlap
     ethr =  1.00E-02,  avg # of iterations =  8.0

     negative rho (up, down):  5.251E-01 0.000E+00

     total cpu time spent up to now is       18.6 secs

     total energy              =      32.35693685 Ry
     Harris-Foulkes estimate   =    -843.73444971 Ry
     estimated scf accuracy    <      27.10078440 Ry

     iteration # 62     ecut=    30.00 Ry     beta=0.70
     Davidson diagonalization with overlap
     ethr =  1.00E-02,  avg # of iterations = 10.0

     negative rho (up, down):  4.575E-01 0.000E+00

     total cpu time spent up to now is       18.7 secs

     total energy              =      88.71894717 Ry
     Harris-Foulkes estimate   =   -1904.05480615 Ry
     estimated scf accuracy    <      26.71018141 Ry

     iteration # 63     ecut=    30.00 Ry     beta=0.70
     Davidson diagonalization with overlap
     ethr =  1.00E-02,  avg # of iterations =  6.0

     negative rho (up, down):  1.284E-05 0.000E+00

     total cpu time spent up to now is       18.7 secs

     total energy              =     139.43372831 Ry
     Harris-Foulkes estimate   =   -3171.11416070 Ry
     estimated scf accuracy    <      28.56224369 Ry

     iteration # 64     ecut=    30.00 Ry     beta=0.70
     Davidson diagonalization with overlap
     ethr =  1.00E-02,  avg # of iterations = 10.0

     negative rho (up, down):  3.879E-03 0.000E+00

     total cpu time spent up to now is       18.8 secs

     total energy              =     -59.99836979 Ry
     Harris-Foulkes estimate   =     -76.35063307 Ry
     estimated scf accuracy    <      63.18491013 Ry

     iteration # 65     ecut=    30.00 Ry     beta=0.70
     Davidson diagonalization with overlap
     ethr =  1.00E-02,  avg # of iterations =  2.0

     negative rho (up, down):  3.421E-02 0.000E+00

     total cpu time spent up to now is       18.9 secs

     total energy              =     -46.37737859 Ry
     Harris-Foulkes estimate   =     -60.16874620 Ry
     estimated scf accuracy    <      40.98599510 Ry

     iteration # 66     ecut=    30.00 Ry     beta=0.70
     Davidson diagonalization with overlap
     ethr =  1.00E-02,  avg # of iterations =  5.0

     negative rho (up, down):  2.636E-02 0.000E+00

     total cpu time spent up to now is       18.9 secs

     total energy              =     -10.63398824 Ry
     Harris-Foulkes estimate   =     -97.36555275 Ry
     estimated scf accuracy    <      12.80818546 Ry

     iteration # 67     ecut=    30.00 Ry     beta=0.70
     Davidson diagonalization with overlap
     ethr =  1.00E-02,  avg # of iterations = 10.0

     negative rho (up, down):  1.056E-01 0.000E+00

     total cpu time spent up to now is       18.9 secs

     total energy              =     -71.52874942 Ry
     Harris-Foulkes estimate   =    -161.41732752 Ry
     estimated scf accuracy    <      18.57131333 Ry

     iteration # 68     ecut=    30.00 Ry     beta=0.70
     Davidson diagonalization with overlap
     ethr =  1.00E-02,  avg # of iterations =  6.0

     negative rho (up, down):  5.535E-02 0.000E+00

     total cpu time spent up to now is       19.0 secs

     total energy              =      75.58095030 Ry
     Harris-Foulkes estimate   =    -521.45630435 Ry
     estimated scf accuracy    <      23.37457054 Ry

     iteration # 69     ecut=    30.00 Ry     beta=0.70
     Davidson diagonalization with overlap
     ethr =  1.00E-02,  avg # of iterations =  4.0

     negative rho (up, down):  2.224E-01 0.000E+00

     total cpu time spent up to now is       19.0 secs

     total energy              =     -43.00598701 Ry
     Harris-Foulkes estimate   =     -49.74236245 Ry
     estimated scf accuracy    <      27.78816849 Ry

     iteration # 70     ecut=    30.00 Ry     beta=0.70
     Davidson diagonalization with overlap
     ethr =  1.00E-02,  avg # of iterations =  8.0

     negative rho (up, down):  1.831E-01 0.000E+00

     total cpu time spent up to now is       19.1 secs

     total energy              =    -753.32225184 Ry
     Harris-Foulkes estimate   =    -137.10907132 Ry
     estimated scf accuracy    <      20.94949128 Ry

     iteration # 71     ecut=    30.00 Ry     beta=0.70
     Davidson diagonalization with overlap
     ethr =  1.00E-02,  avg # of iterations =  7.0

     negative rho (up, down):  1.203E-01 0.000E+00

     total cpu time spent up to now is       19.1 secs

     total energy              =      64.84631896 Ry
     Harris-Foulkes estimate   =   -2645.76082616 Ry
     estimated scf accuracy    <      33.22623309 Ry

     iteration # 72     ecut=    30.00 Ry     beta=0.70
     Davidson diagonalization with overlap
     ethr =  1.00E-02,  avg # of iterations =  7.0

     negative rho (up, down):  1.277E-01 0.000E+00

     total cpu time spent up to now is       19.2 secs

     total energy              =    -477.90654458 Ry
     Harris-Foulkes estimate   =    -840.61623387 Ry
     estimated scf accuracy    <      36.14369513 Ry

     iteration # 73     ecut=    30.00 Ry     beta=0.70
     Davidson diagonalization with overlap
     ethr =  1.00E-02,  avg # of iterations =  8.0

     negative rho (up, down):  8.742E-02 0.000E+00

     total cpu time spent up to now is       19.3 secs

     total energy              =    -350.84380829 Ry
     Harris-Foulkes estimate   =   -2298.90853300 Ry
     estimated scf accuracy    <      34.95544866 Ry

     iteration # 74     ecut=    30.00 Ry     beta=0.70
     Davidson diagonalization with overlap
     ethr =  1.00E-02,  avg # of iterations =  6.0

     negative rho (up, down):  1.373E-01 0.000E+00

     total cpu time spent up to now is       19.3 secs

     total energy              =     -48.91653991 Ry
     Harris-Foulkes estimate   =   -1786.90686471 Ry
     estimated scf accuracy    <      34.33141940 Ry

     iteration # 75     ecut=    30.00 Ry     beta=0.70
     Davidson diagonalization with overlap
     ethr =  1.00E-02,  avg # of iterations = 11.0

     negative rho (up, down):  3.200E-01 0.000E+00

     total cpu time spent up to now is       19.4 secs

     total energy              =      32.64936159 Ry
     Harris-Foulkes estimate   =    -671.45054099 Ry
     estimated scf accuracy    <      17.94774563 Ry

     iteration # 76     ecut=    30.00 Ry     beta=0.70
     Davidson diagonalization with overlap
     ethr =  1.00E-02,  avg # of iterations =  7.0

     negative rho (up, down):  4.604E-01 0.000E+00

     total cpu time spent up to now is       19.4 secs

     total energy              =    3588.95175321 Ry
     Harris-Foulkes estimate   =    -615.45564594 Ry
     estimated scf accuracy    <      31.72232164 Ry

     iteration # 77     ecut=    30.00 Ry     beta=0.70
     Davidson diagonalization with overlap
     ethr =  1.00E-02,  avg # of iterations =  7.0

     negative rho (up, down):  5.344E-01 0.000E+00

     total cpu time spent up to now is       19.5 secs

     total energy              =   -7674.47887962 Ry
     Harris-Foulkes estimate   =   -3193.17200379 Ry
     estimated scf accuracy    <      35.00527625 Ry

     iteration # 78     ecut=    30.00 Ry     beta=0.70
     Davidson diagonalization with overlap
     ethr =  1.00E-02,  avg # of iterations =  8.0

     negative rho (up, down):  1.100E+00 0.000E+00

     total cpu time spent up to now is       19.5 secs

     total energy              =     107.36489553 Ry
     Harris-Foulkes estimate   =  -23151.97501171 Ry
     estimated scf accuracy    <      26.34061200 Ry

     iteration # 79     ecut=    30.00 Ry     beta=0.70
     Davidson diagonalization with overlap
     ethr =  1.00E-02,  avg # of iterations = 11.0

     negative rho (up, down):  1.215E+00 0.000E+00

     total cpu time spent up to now is       19.6 secs

     total energy              =    -263.38989612 Ry
     Harris-Foulkes estimate   =    -424.86837634 Ry
     estimated scf accuracy    <      31.75022067 Ry

     iteration # 80     ecut=    30.00 Ry     beta=0.70
     Davidson diagonalization with overlap
     ethr =  1.00E-02,  avg # of iterations =  9.0

     negative rho (up, down):  9.047E-01 0.000E+00

     total cpu time spent up to now is       19.7 secs

     total energy              =     111.10188267 Ry
     Harris-Foulkes estimate   =  -22897.96719898 Ry
     estimated scf accuracy    <      29.37667499 Ry

     iteration # 81     ecut=    30.00 Ry     beta=0.70
     Davidson diagonalization with overlap
     ethr =  1.00E-02,  avg # of iterations =  8.0

     negative rho (up, down):  2.826E-01 0.000E+00

     total cpu time spent up to now is       19.7 secs

     total energy              =      58.32121053 Ry
     Harris-Foulkes estimate   =    -411.32471827 Ry
     estimated scf accuracy    <      24.59136091 Ry

     iteration # 82     ecut=    30.00 Ry     beta=0.70
     Davidson diagonalization with overlap
     ethr =  1.00E-02,  avg # of iterations =  8.0

     negative rho (up, down):  3.927E-01 0.000E+00

     total cpu time spent up to now is       19.8 secs

     total energy              =    -188.91904932 Ry
     Harris-Foulkes estimate   =   -1686.69578047 Ry
     estimated scf accuracy    <      26.62190530 Ry

     iteration # 83     ecut=    30.00 Ry     beta=0.70
     Davidson diagonalization with overlap
     ethr =  1.00E-02,  avg # of iterations = 11.0

     negative rho (up, down):  2.035E-01 0.000E+00

     total cpu time spent up to now is       19.8 secs

     total energy              =     121.13432083 Ry
     Harris-Foulkes estimate   =   -3129.49177444 Ry
     estimated scf accuracy    <      18.33217945 Ry

     iteration # 84     ecut=    30.00 Ry     beta=0.70
     Davidson diagonalization with overlap
     ethr =  1.00E-02,  avg # of iterations =  8.0

     negative rho (up, down):  1.944E-01 0.000E+00

     total cpu time spent up to now is       19.9 secs

     total energy              =      86.50708576 Ry
     Harris-Foulkes estimate   =   -3949.10760190 Ry
     estimated scf accuracy    <      25.18410080 Ry

     iteration # 85     ecut=    30.00 Ry     beta=0.70
     Davidson diagonalization with overlap
     ethr =  1.00E-02,  avg # of iterations = 10.0

     negative rho (up, down):  8.589E-04 0.000E+00

     total cpu time spent up to now is       20.0 secs

     total energy              =      68.46886532 Ry
     Harris-Foulkes estimate   =    -289.28966621 Ry
     estimated scf accuracy    <      22.24585715 Ry

     iteration # 86     ecut=    30.00 Ry     beta=0.70
     Davidson diagonalization with overlap
     ethr =  1.00E-02,  avg # of iterations =  8.0

     negative rho (up, down):  5.351E-03 0.000E+00

     total cpu time spent up to now is       20.0 secs

     total energy              =     -58.21407583 Ry
     Harris-Foulkes estimate   =     -69.94854687 Ry
     estimated scf accuracy    <      54.87311270 Ry

     iteration # 87     ecut=    30.00 Ry     beta=0.70
     Davidson diagonalization with overlap
     ethr =  1.00E-02,  avg # of iterations =  8.0

     negative rho (up, down):  7.507E-02 0.000E+00

     total cpu time spent up to now is       20.1 secs

     total energy              =     -70.85027765 Ry
     Harris-Foulkes estimate   =     -58.32787383 Ry
     estimated scf accuracy    <      39.05463254 Ry

     iteration # 88     ecut=    30.00 Ry     beta=0.70
     Davidson diagonalization with overlap
     ethr =  1.00E-02,  avg # of iterations =  9.0

     negative rho (up, down):  7.394E-02 0.000E+00

     total cpu time spent up to now is       20.1 secs

     total energy              =     -93.68009217 Ry
     Harris-Foulkes estimate   =     -74.81403813 Ry
     estimated scf accuracy    <      55.68018343 Ry

     iteration # 89     ecut=    30.00 Ry     beta=0.70
     Davidson diagonalization with overlap
     ethr =  1.00E-02,  avg # of iterations =  6.0

     negative rho (up, down):  3.725E-02 0.000E+00

     total cpu time spent up to now is       20.2 secs

     total energy              =      40.17829646 Ry
     Harris-Foulkes estimate   =    -406.30942968 Ry
     estimated scf accuracy    <      47.51290045 Ry

     iteration # 90     ecut=    30.00 Ry     beta=0.70
     Davidson diagonalization with overlap
     ethr =  1.00E-02,  avg # of iterations =  7.0

     negative rho (up, down):  1.042E-01 0.000E+00

     total cpu time spent up to now is       20.2 secs

     total energy              =     -90.02086981 Ry
     Harris-Foulkes estimate   =     -73.34131390 Ry
     estimated scf accuracy    <      57.65772139 Ry

     iteration # 91     ecut=    30.00 Ry     beta=0.70
     Davidson diagonalization with overlap
     ethr =  1.00E-02,  avg # of iterations =  7.0

     negative rho (up, down):  5.908E-02 0.000E+00

     total cpu time spent up to now is       20.3 secs

     total energy              =     108.61118792 Ry
     Harris-Foulkes estimate   =   -1172.09481095 Ry
     estimated scf accuracy    <      20.47042246 Ry

     iteration # 92     ecut=    30.00 Ry     beta=0.70
     Davidson diagonalization with overlap
     ethr =  1.00E-02,  avg # of iterations =  7.0

     negative rho (up, down):  3.023E-02 0.000E+00

     total cpu time spent up to now is       20.4 secs

     total energy              =       7.18284600 Ry
     Harris-Foulkes estimate   =    -171.98843622 Ry
     estimated scf accuracy    <      30.17771933 Ry

     iteration # 93     ecut=    30.00 Ry     beta=0.70
     Davidson diagonalization with overlap
     ethr =  1.00E-02,  avg # of iterations =  5.0

     negative rho (up, down):  1.139E-01 0.000E+00

     total cpu time spent up to now is       20.4 secs

     total energy              =     -17.49858667 Ry
     Harris-Foulkes estimate   =    -100.26927246 Ry
     estimated scf accuracy    <      21.57617268 Ry

     iteration # 94     ecut=    30.00 Ry     beta=0.70
     Davidson diagonalization with overlap
     ethr =  1.00E-02,  avg # of iterations = 11.0

     negative rho (up, down):  8.419E-02 0.000E+00

     total cpu time spent up to now is       20.5 secs

     total energy              =      99.86492741 Ry
     Harris-Foulkes estimate   =    -497.06290655 Ry
     estimated scf accuracy    <      36.25726046 Ry

     iteration # 95     ecut=    30.00 Ry     beta=0.70
     Davidson diagonalization with overlap
     ethr =  1.00E-02,  avg # of iterations =  8.0

     negative rho (up, down):  7.118E-02 0.000E+00

     total cpu time spent up to now is       20.5 secs

     total energy              =      64.53623550 Ry
     Harris-Foulkes estimate   =    -640.16243795 Ry
     estimated scf accuracy    <      35.77668951 Ry

     iteration # 96     ecut=    30.00 Ry     beta=0.70
     Davidson diagonalization with overlap
     ethr =  1.00E-02,  avg # of iterations =  9.0

     total cpu time spent up to now is       20.6 secs

     total energy              =      40.46607527 Ry
     Harris-Foulkes estimate   =   -1666.84798015 Ry
     estimated scf accuracy    <      16.16681363 Ry

     iteration # 97     ecut=    30.00 Ry     beta=0.70
     Davidson diagonalization with overlap
     ethr =  1.00E-02,  avg # of iterations =  5.0

     negative rho (up, down):  6.433E-02 0.000E+00

     total cpu time spent up to now is       20.6 secs

     total energy              =     -39.67498483 Ry
     Harris-Foulkes estimate   =     -45.05078565 Ry
     estimated scf accuracy    <      23.55730123 Ry

     iteration # 98     ecut=    30.00 Ry     beta=0.70
     Davidson diagonalization with overlap
     ethr =  1.00E-02,  avg # of iterations =  8.0

     negative rho (up, down):  1.367E-01 0.000E+00

     total cpu time spent up to now is       20.7 secs

     total energy              =    -228.00164787 Ry
     Harris-Foulkes estimate   =    -130.28394328 Ry
     estimated scf accuracy    <      44.52570803 Ry

     iteration # 99     ecut=    30.00 Ry     beta=0.70
     Davidson diagonalization with overlap
     ethr =  1.00E-02,  avg # of iterations =  9.0

     total cpu time spent up to now is       20.7 secs

     total energy              =      50.99052103 Ry
     Harris-Foulkes estimate   =    -684.10703234 Ry
     estimated scf accuracy    <      17.50817584 Ry

     iteration #100     ecut=    30.00 Ry     beta=0.70
     Davidson diagonalization with overlap
     ethr =  1.00E-02,  avg # of iterations =  5.0

     negative rho (up, down):  7.779E-02 0.000E+00

     total cpu time spent up to now is       20.8 secs

     total energy              =     -61.99236945 Ry
     Harris-Foulkes estimate   =     -43.13545023 Ry
     estimated scf accuracy    <      20.11203216 Ry

     End of self-consistent calculation

     convergence NOT achieved after 100 iterations: stopping

     Writing output data file pwscf.save
 
     init_run     :      0.09s CPU      0.10s WALL (       1 calls)
     electrons    :     15.12s CPU     18.74s WALL (       8 calls)
     update_pot   :      0.84s CPU      1.21s WALL (       7 calls)
     forces       :      0.19s CPU      0.19s WALL (       7 calls)

     Called by init_run:
     wfcinit      :      0.01s CPU      0.02s WALL (       1 calls)
     potinit      :      0.02s CPU      0.03s WALL (       1 calls)

     Called by electrons:
     c_bands      :      7.20s CPU      7.59s WALL (     440 calls)
     sum_band     :      1.29s CPU      1.37s WALL (     440 calls)
     v_of_rho     :      3.11s CPU      3.34s WALL (     448 calls)
     mix_rho      :      3.03s CPU      5.24s WALL (     440 calls)

     Called by c_bands:
     init_us_2    :      0.04s CPU      0.05s WALL (     881 calls)
     cegterg      :      7.11s CPU      7.37s WALL (     440 calls)

     Called by sum_band:

     Called by *egterg:
     h_psi        :      5.95s CPU      6.17s WALL (    2082 calls)
     g_psi        :      0.06s CPU      0.06s WALL (    1641 calls)
     cdiaghg      :      0.41s CPU      0.42s WALL (    2074 calls)

     Called by h_psi:
     h_psi:pot    :      5.92s CPU      6.13s WALL (    2082 calls)
     h_psi:calbec :      0.09s CPU      0.12s WALL (    2082 calls)
     vloc_psi     :      5.80s CPU      5.99s WALL (    2082 calls)
     add_vuspsi   :      0.02s CPU      0.02s WALL (    2082 calls)

     General routines
     calbec       :      0.13s CPU      0.17s WALL (    2116 calls)
     fft          :      2.18s CPU      2.31s WALL (    4942 calls)
     fftw         :      6.05s CPU      6.28s WALL (   26828 calls)
     davcio       :      0.50s CPU      1.89s WALL (    8101 calls)
 
     Parallel routines
     fft_scatter  :      3.17s CPU      3.40s WALL (   31770 calls)
 
     PWSCF        :    16.47s CPU        20.87s WALL

 
   This run was terminated on:   8:46: 2  14Feb2018            

=------------------------------------------------------------------------------=
   JOB DONE.
=------------------------------------------------------------------------------=
