
     Program PWSCF v.6.0 (svn rev. 13079) starts on 14Feb2018 at  8:48: 9 

     This program is part of the open-source Quantum ESPRESSO suite
     for quantum simulation of materials; please cite
         "P. Giannozzi et al., J. Phys.:Condens. Matter 21 395502 (2009);
          URL http://www.quantum-espresso.org", 
     in publications or presentations arising from this work. More details at
     http://www.quantum-espresso.org/quote

     Parallel version (MPI), running on    28 processors
     R & G space division:  proc/nbgrp/npool/nimage =      28
     Reading input from inputs/MD-H2O-2/456.in

     Current dimensions of program PWSCF are:
     Max number of different atomic species (ntypx) = 10
     Max number of k-points (npk) =  40000
     Max angular momentum in pseudopotentials (lmaxx) =  3

     Subspace diagonalization in iterative solution of the eigenvalue problem:
     a serial algorithm will be used

 
     Parallelization info
     --------------------
     sticks:   dense  smooth     PW     G-vecs:    dense   smooth      PW
     Min         136     136     33                 6338     6338     787
     Max         137     137     34                 6341     6341     792
     Sum        3809    3809    949               177509   177509   22119
 


     bravais-lattice index     =            1
     lattice parameter (alat)  =      20.0000  a.u.
     unit-cell volume          =    8000.0000 (a.u.)^3
     number of atoms/cell      =            3
     number of atomic types    =            2
     number of electrons       =         8.00
     number of Kohn-Sham states=            8
     kinetic-energy cutoff     =      30.0000  Ry
     charge density cutoff     =     120.0000  Ry
     convergence threshold     =      1.0E-08
     mixing beta               =       0.7000
     number of iterations used =            8  plain     mixing
     Exchange-correlation      = BLYP ( 1  3  1  3 0 0)
     nstep                     =         5000


     celldm(1)=  20.000000  celldm(2)=   0.000000  celldm(3)=   0.000000
     celldm(4)=   0.000000  celldm(5)=   0.000000  celldm(6)=   0.000000

     crystal axes: (cart. coord. in units of alat)
               a(1) = (   1.000000   0.000000   0.000000 )  
               a(2) = (   0.000000   1.000000   0.000000 )  
               a(3) = (   0.000000   0.000000   1.000000 )  

     reciprocal axes: (cart. coord. in units 2 pi/alat)
               b(1) = (  1.000000  0.000000  0.000000 )  
               b(2) = (  0.000000  1.000000  0.000000 )  
               b(3) = (  0.000000  0.000000  1.000000 )  


     PseudoPot. # 1 for  H read from file:
     ./H.blyp-hgh.UPF
     MD5 check sum: c576e69559cde411e611be972c763230
     Pseudo is Norm-conserving, Zval =  1.0
     Generated in analytical, separable form
     Using radial grid of  929 points,  0 beta functions with: 

     PseudoPot. # 2 for  O read from file:
     ./O.blyp-hgh.UPF
     MD5 check sum: d0b7156309aa9befef28faac7bc56342
     Pseudo is Norm-conserving, Zval =  6.0
     Generated in analytical, separable form
     Using radial grid of 1095 points,  1 beta functions with: 
                l(1) =   0

     atomic species   valence    mass     pseudopotential
        H              1.00     1.01000      H( 1.00)
        O              6.00    16.00000      O( 1.00)

     No symmetry found



   Cartesian axes

     site n.     atom                  positions (alat units)
         1           H   tau(   1) = (   0.5812403   0.1943969   0.7431709  )
         2           H   tau(   2) = (   0.9273631   0.3159530   0.3963113  )
         3           O   tau(   3) = (   0.5676777   0.0959654   0.7376455  )

     number of k points=     1  Marzari-Vanderbilt smearing, width (Ry)=  0.0250
                       cart. coord. in units 2pi/alat
        k(    1) = (   0.0000000   0.0000000   0.0000000), wk =   2.0000000

     Dense  grid:   177509 G-vectors     FFT dimensions: (  72,  72,  72)

     Estimated max dynamical RAM per process >       6.09Mb

     Estimated total allocated dynamical RAM >     170.64Mb

     Initial potential from superposition of free atoms
     Check: negative starting charge=   -0.347396

     starting charge    7.99998, renormalised to    8.00000

     negative rho (up, down):  3.474E-01 0.000E+00
     Starting wfc are    6 randomized atomic wfcs +    2 random wfc

     total cpu time spent up to now is        0.2 secs

     per-process dynamical memory:    18.8 Mb

     Self-consistent Calculation

     iteration #  1     ecut=    30.00 Ry     beta=0.70
     Davidson diagonalization with overlap
     ethr =  1.00E-02,  avg # of iterations =  6.0

     negative rho (up, down):  9.086E-02 0.000E+00

     total cpu time spent up to now is        0.3 secs

     total energy              =     -30.33732511 Ry
     Harris-Foulkes estimate   =     -32.24068157 Ry
     estimated scf accuracy    <       2.18676579 Ry

     iteration #  2     ecut=    30.00 Ry     beta=0.70
     Davidson diagonalization with overlap
     ethr =  1.00E-02,  avg # of iterations =  3.0

     negative rho (up, down):  6.608E-02 0.000E+00

     total cpu time spent up to now is        0.3 secs

     total energy              =     -32.29862297 Ry
     Harris-Foulkes estimate   =     -34.60572312 Ry
     estimated scf accuracy    <       5.61216038 Ry

     iteration #  3     ecut=    30.00 Ry     beta=0.70
     Davidson diagonalization with overlap
     ethr =  1.00E-02,  avg # of iterations =  2.0

     negative rho (up, down):  6.345E-02 0.000E+00

     total cpu time spent up to now is        0.4 secs

     total energy              =     -32.44430862 Ry
     Harris-Foulkes estimate   =     -32.53482786 Ry
     estimated scf accuracy    <       1.82368224 Ry

     iteration #  4     ecut=    30.00 Ry     beta=0.70
     Davidson diagonalization with overlap
     ethr =  1.00E-02,  avg # of iterations =  1.0

     negative rho (up, down):  1.218E-02 0.000E+00

     total cpu time spent up to now is        0.4 secs

     total energy              =     -31.30007264 Ry
     Harris-Foulkes estimate   =     -32.44463653 Ry
     estimated scf accuracy    <       1.69840240 Ry

     iteration #  5     ecut=    30.00 Ry     beta=0.70
     Davidson diagonalization with overlap
     ethr =  1.00E-02,  avg # of iterations =  4.0

     negative rho (up, down):  2.405E-02 0.000E+00

     total cpu time spent up to now is        0.4 secs

     total energy              =     -33.35628299 Ry
     Harris-Foulkes estimate   =     -33.20201161 Ry
     estimated scf accuracy    <       7.84704569 Ry

     iteration #  6     ecut=    30.00 Ry     beta=0.70
     Davidson diagonalization with overlap
     ethr =  1.00E-02,  avg # of iterations =  1.0

     negative rho (up, down):  1.963E-02 0.000E+00

     total cpu time spent up to now is        0.4 secs

     total energy              =     -33.17471804 Ry
     Harris-Foulkes estimate   =     -33.36721047 Ry
     estimated scf accuracy    <       9.36691957 Ry

     iteration #  7     ecut=    30.00 Ry     beta=0.70
     Davidson diagonalization with overlap
     ethr =  1.00E-02,  avg # of iterations =  1.0

     negative rho (up, down):  2.266E-02 0.000E+00

     total cpu time spent up to now is        0.5 secs

     total energy              =     -32.78341913 Ry
     Harris-Foulkes estimate   =     -33.18252900 Ry
     estimated scf accuracy    <       7.31289358 Ry

     iteration #  8     ecut=    30.00 Ry     beta=0.70
     Davidson diagonalization with overlap
     ethr =  1.00E-02,  avg # of iterations =  1.0

     negative rho (up, down):  4.079E-02 0.000E+00

     total cpu time spent up to now is        0.5 secs

     total energy              =     -32.81399042 Ry
     Harris-Foulkes estimate   =     -32.88643271 Ry
     estimated scf accuracy    <       2.93176590 Ry

     iteration #  9     ecut=    30.00 Ry     beta=0.70
     Davidson diagonalization with overlap
     ethr =  1.00E-02,  avg # of iterations =  1.0

     negative rho (up, down):  6.460E-02 0.000E+00

     total cpu time spent up to now is        0.5 secs

     total energy              =     -32.75747261 Ry
     Harris-Foulkes estimate   =     -32.81472724 Ry
     estimated scf accuracy    <       2.80973623 Ry

     iteration # 10     ecut=    30.00 Ry     beta=0.70
     Davidson diagonalization with overlap
     ethr =  1.00E-02,  avg # of iterations =  1.0

     negative rho (up, down):  1.699E-01 0.000E+00

     total cpu time spent up to now is        0.6 secs

     total energy              =     -32.36061551 Ry
     Harris-Foulkes estimate   =     -32.75785950 Ry
     estimated scf accuracy    <       2.69975310 Ry

     iteration # 11     ecut=    30.00 Ry     beta=0.70
     Davidson diagonalization with overlap
     ethr =  1.00E-02,  avg # of iterations =  1.0

     negative rho (up, down):  2.185E-01 0.000E+00

     total cpu time spent up to now is        0.6 secs

     total energy              =     -32.09448729 Ry
     Harris-Foulkes estimate   =     -32.36914184 Ry
     estimated scf accuracy    <       1.99135529 Ry

     iteration # 12     ecut=    30.00 Ry     beta=0.70
     Davidson diagonalization with overlap
     ethr =  1.00E-02,  avg # of iterations =  1.0

     negative rho (up, down):  3.045E-01 0.000E+00

     total cpu time spent up to now is        0.6 secs

     total energy              =     -31.94574386 Ry
     Harris-Foulkes estimate   =     -32.10044144 Ry
     estimated scf accuracy    <       1.51234714 Ry

     iteration # 13     ecut=    30.00 Ry     beta=0.70
     Davidson diagonalization with overlap
     ethr =  1.00E-02,  avg # of iterations =  1.0

     negative rho (up, down):  8.794E-01 0.000E+00

     total cpu time spent up to now is        0.7 secs

     total energy              =     -31.32154766 Ry
     Harris-Foulkes estimate   =     -31.94422646 Ry
     estimated scf accuracy    <       1.05257836 Ry

     iteration # 14     ecut=    30.00 Ry     beta=0.70
     Davidson diagonalization with overlap
     ethr =  1.00E-02,  avg # of iterations =  3.0

     negative rho (up, down):  2.057E-01 0.000E+00

     total cpu time spent up to now is        0.7 secs

     total energy              =     -32.27186745 Ry
     Harris-Foulkes estimate   =     -33.77749540 Ry
     estimated scf accuracy    <       3.32574366 Ry

     iteration # 15     ecut=    30.00 Ry     beta=0.70
     Davidson diagonalization with overlap
     ethr =  1.00E-02,  avg # of iterations =  1.0

     negative rho (up, down):  4.610E-02 0.000E+00

     total cpu time spent up to now is        0.8 secs

     total energy              =     -31.86789011 Ry
     Harris-Foulkes estimate   =     -32.28716009 Ry
     estimated scf accuracy    <       1.39402712 Ry

     iteration # 16     ecut=    30.00 Ry     beta=0.70
     Davidson diagonalization with overlap
     ethr =  1.00E-02,  avg # of iterations =  4.0

     negative rho (up, down):  6.670E-03 0.000E+00

     total cpu time spent up to now is        0.8 secs

     total energy              =     -32.20141643 Ry
     Harris-Foulkes estimate   =     -32.00524174 Ry
     estimated scf accuracy    <       1.32674039 Ry

     iteration # 17     ecut=    30.00 Ry     beta=0.70
     Davidson diagonalization with overlap
     ethr =  1.00E-02,  avg # of iterations =  1.0

     negative rho (up, down):  3.831E-03 0.000E+00

     total cpu time spent up to now is        0.8 secs

     total energy              =     -32.18298558 Ry
     Harris-Foulkes estimate   =     -32.20086603 Ry
     estimated scf accuracy    <       1.59448761 Ry

     iteration # 18     ecut=    30.00 Ry     beta=0.70
     Davidson diagonalization with overlap
     ethr =  1.00E-02,  avg # of iterations =  1.0

     negative rho (up, down):  4.128E-03 0.000E+00

     total cpu time spent up to now is        0.9 secs

     total energy              =     -32.08614878 Ry
     Harris-Foulkes estimate   =     -32.18320564 Ry
     estimated scf accuracy    <       1.56976633 Ry

     iteration # 19     ecut=    30.00 Ry     beta=0.70
     Davidson diagonalization with overlap
     ethr =  1.00E-02,  avg # of iterations =  1.0

     negative rho (up, down):  1.991E-02 0.000E+00

     total cpu time spent up to now is        0.9 secs

     total energy              =     -32.15861960 Ry
     Harris-Foulkes estimate   =     -32.08681884 Ry
     estimated scf accuracy    <       1.40594434 Ry

     iteration # 20     ecut=    30.00 Ry     beta=0.70
     Davidson diagonalization with overlap
     ethr =  1.00E-02,  avg # of iterations =  1.0

     negative rho (up, down):  1.328E-02 0.000E+00

     total cpu time spent up to now is        0.9 secs

     total energy              =     -32.05746844 Ry
     Harris-Foulkes estimate   =     -32.15918515 Ry
     estimated scf accuracy    <       1.52710791 Ry

     iteration # 21     ecut=    30.00 Ry     beta=0.70
     Davidson diagonalization with overlap
     ethr =  1.00E-02,  avg # of iterations =  1.0

     negative rho (up, down):  1.533E-02 0.000E+00

     total cpu time spent up to now is        1.0 secs

     total energy              =     -31.80775769 Ry
     Harris-Foulkes estimate   =     -32.05822093 Ry
     estimated scf accuracy    <       1.35856079 Ry

     iteration # 22     ecut=    30.00 Ry     beta=0.70
     Davidson diagonalization with overlap
     ethr =  1.00E-02,  avg # of iterations =  1.0

     negative rho (up, down):  7.999E-03 0.000E+00

     total cpu time spent up to now is        1.0 secs

     total energy              =     -32.04543709 Ry
     Harris-Foulkes estimate   =     -32.04297266 Ry
     estimated scf accuracy    <       1.03448945 Ry

     iteration # 23     ecut=    30.00 Ry     beta=0.70
     Davidson diagonalization with overlap
     ethr =  1.00E-02,  avg # of iterations =  1.0

     negative rho (up, down):  4.723E-04 0.000E+00

     total cpu time spent up to now is        1.0 secs

     total energy              =     -31.82579548 Ry
     Harris-Foulkes estimate   =     -32.04571215 Ry
     estimated scf accuracy    <       1.03691134 Ry

     iteration # 24     ecut=    30.00 Ry     beta=0.70
     Davidson diagonalization with overlap
     ethr =  1.00E-02,  avg # of iterations =  1.0

     negative rho (up, down):  2.617E-03 0.000E+00

     total cpu time spent up to now is        1.1 secs

     total energy              =     -31.95935216 Ry
     Harris-Foulkes estimate   =     -32.06298014 Ry
     estimated scf accuracy    <       1.35629859 Ry

     iteration # 25     ecut=    30.00 Ry     beta=0.70
     Davidson diagonalization with overlap
     ethr =  1.00E-02,  avg # of iterations =  1.0

     negative rho (up, down):  6.388E-04 0.000E+00

     total cpu time spent up to now is        1.1 secs

     total energy              =     -31.96487853 Ry
     Harris-Foulkes estimate   =     -31.95693409 Ry
     estimated scf accuracy    <       0.83217867 Ry

     iteration # 26     ecut=    30.00 Ry     beta=0.70
     Davidson diagonalization with overlap
     ethr =  1.00E-02,  avg # of iterations =  1.0

     negative rho (up, down):  1.307E-03 0.000E+00

     total cpu time spent up to now is        1.1 secs

     total energy              =     -31.94957400 Ry
     Harris-Foulkes estimate   =     -31.96602650 Ry
     estimated scf accuracy    <       1.32042699 Ry

     iteration # 27     ecut=    30.00 Ry     beta=0.70
     Davidson diagonalization with overlap
     ethr =  1.00E-02,  avg # of iterations =  1.0

     negative rho (up, down):  1.892E-03 0.000E+00

     total cpu time spent up to now is        1.2 secs

     total energy              =     -31.96381271 Ry
     Harris-Foulkes estimate   =     -31.95238446 Ry
     estimated scf accuracy    <       0.50660389 Ry

     iteration # 28     ecut=    30.00 Ry     beta=0.70
     Davidson diagonalization with overlap
     ethr =  6.33E-03,  avg # of iterations =  1.0

     negative rho (up, down):  1.219E-03 0.000E+00

     total cpu time spent up to now is        1.2 secs

     total energy              =     -31.85391299 Ry
     Harris-Foulkes estimate   =     -31.96786703 Ry
     estimated scf accuracy    <       1.38707724 Ry

     iteration # 29     ecut=    30.00 Ry     beta=0.70
     Davidson diagonalization with overlap
     ethr =  6.33E-03,  avg # of iterations =  1.0

     negative rho (up, down):  7.928E-05 0.000E+00

     total cpu time spent up to now is        1.2 secs

     total energy              =     -31.94973909 Ry
     Harris-Foulkes estimate   =     -31.99330179 Ry
     estimated scf accuracy    <       0.95295757 Ry

     iteration # 30     ecut=    30.00 Ry     beta=0.70
     Davidson diagonalization with overlap
     ethr =  6.33E-03,  avg # of iterations =  1.0

     negative rho (up, down):  4.949E-04 0.000E+00

     total cpu time spent up to now is        1.3 secs

     total energy              =     -32.00401017 Ry
     Harris-Foulkes estimate   =     -31.95293408 Ry
     estimated scf accuracy    <       0.41181230 Ry

     iteration # 31     ecut=    30.00 Ry     beta=0.70
     Davidson diagonalization with overlap
     ethr =  5.15E-03,  avg # of iterations =  1.0

     negative rho (up, down):  9.854E-05 0.000E+00

     total cpu time spent up to now is        1.3 secs

     total energy              =     -31.99563008 Ry
     Harris-Foulkes estimate   =     -32.02449891 Ry
     estimated scf accuracy    <       1.00444165 Ry

     iteration # 32     ecut=    30.00 Ry     beta=0.70
     Davidson diagonalization with overlap
     ethr =  5.15E-03,  avg # of iterations =  1.0

     negative rho (up, down):  1.114E-04 0.000E+00

     total cpu time spent up to now is        1.3 secs

     total energy              =     -31.99554036 Ry
     Harris-Foulkes estimate   =     -31.99570754 Ry
     estimated scf accuracy    <       0.96049126 Ry

     iteration # 33     ecut=    30.00 Ry     beta=0.70
     Davidson diagonalization with overlap
     ethr =  5.15E-03,  avg # of iterations =  1.0

     negative rho (up, down):  2.356E-05 0.000E+00

     total cpu time spent up to now is        1.4 secs

     total energy              =     -32.11658280 Ry
     Harris-Foulkes estimate   =     -31.99555255 Ry
     estimated scf accuracy    <       0.95633377 Ry

     iteration # 34     ecut=    30.00 Ry     beta=0.70
     Davidson diagonalization with overlap
     ethr =  5.15E-03,  avg # of iterations =  1.0

     negative rho (up, down):  1.329E-05 0.000E+00

     total cpu time spent up to now is        1.4 secs

     total energy              =     -32.19297141 Ry
     Harris-Foulkes estimate   =     -32.11723105 Ry
     estimated scf accuracy    <       1.13406038 Ry

     iteration # 35     ecut=    30.00 Ry     beta=0.70
     Davidson diagonalization with overlap
     ethr =  5.15E-03,  avg # of iterations =  1.0

     negative rho (up, down):  5.545E-05 0.000E+00

     total cpu time spent up to now is        1.4 secs

     total energy              =     -32.42613297 Ry
     Harris-Foulkes estimate   =     -32.19323935 Ry
     estimated scf accuracy    <       1.24766968 Ry

     iteration # 36     ecut=    30.00 Ry     beta=0.70
     Davidson diagonalization with overlap
     ethr =  5.15E-03,  avg # of iterations =  1.0

     negative rho (up, down):  1.522E-07 0.000E+00

     total cpu time spent up to now is        1.5 secs

     total energy              =     -32.14699394 Ry
     Harris-Foulkes estimate   =     -32.43595126 Ry
     estimated scf accuracy    <       1.58319698 Ry

     iteration # 37     ecut=    30.00 Ry     beta=0.70
     Davidson diagonalization with overlap
     ethr =  5.15E-03,  avg # of iterations =  1.0

     negative rho (up, down):  8.648E-05 0.000E+00

     total cpu time spent up to now is        1.5 secs

     total energy              =     -31.43940482 Ry
     Harris-Foulkes estimate   =     -32.14092425 Ry
     estimated scf accuracy    <       1.18311187 Ry

     iteration # 38     ecut=    30.00 Ry     beta=0.70
     Davidson diagonalization with overlap
     ethr =  5.15E-03,  avg # of iterations =  3.0

     negative rho (up, down):  5.458E-05 0.000E+00

     total cpu time spent up to now is        1.5 secs

     total energy              =     -32.22146878 Ry
     Harris-Foulkes estimate   =     -32.85227354 Ry
     estimated scf accuracy    <       2.73704601 Ry

     iteration # 39     ecut=    30.00 Ry     beta=0.70
     Davidson diagonalization with overlap
     ethr =  5.15E-03,  avg # of iterations =  1.0

     negative rho (up, down):  8.443E-05 0.000E+00

     total cpu time spent up to now is        1.6 secs

     total energy              =     -32.00404081 Ry
     Harris-Foulkes estimate   =     -32.23779029 Ry
     estimated scf accuracy    <       1.68376672 Ry

     iteration # 40     ecut=    30.00 Ry     beta=0.70
     Davidson diagonalization with overlap
     ethr =  5.15E-03,  avg # of iterations =  1.0

     negative rho (up, down):  1.439E-05 0.000E+00

     total cpu time spent up to now is        1.6 secs

     total energy              =     -32.05461257 Ry
     Harris-Foulkes estimate   =     -32.00952845 Ry
     estimated scf accuracy    <       1.32959204 Ry

     iteration # 41     ecut=    30.00 Ry     beta=0.70
     Davidson diagonalization with overlap
     ethr =  5.15E-03,  avg # of iterations =  1.0

     negative rho (up, down):  1.126E-05 0.000E+00

     total cpu time spent up to now is        1.6 secs

     total energy              =     -31.99345000 Ry
     Harris-Foulkes estimate   =     -32.05410771 Ry
     estimated scf accuracy    <       1.34002583 Ry

     iteration # 42     ecut=    30.00 Ry     beta=0.70
     Davidson diagonalization with overlap
     ethr =  5.15E-03,  avg # of iterations =  1.0

     negative rho (up, down):  3.029E-08 0.000E+00

     total cpu time spent up to now is        1.7 secs

     total energy              =     -31.95500974 Ry
     Harris-Foulkes estimate   =     -31.99268054 Ry
     estimated scf accuracy    <       1.50167151 Ry

     iteration # 43     ecut=    30.00 Ry     beta=0.70
     Davidson diagonalization with overlap
     ethr =  5.15E-03,  avg # of iterations =  1.0

     negative rho (up, down):  5.041E-07 0.000E+00

     total cpu time spent up to now is        1.7 secs

     total energy              =     -31.88965888 Ry
     Harris-Foulkes estimate   =     -31.95628517 Ry
     estimated scf accuracy    <       0.78694446 Ry

     iteration # 44     ecut=    30.00 Ry     beta=0.70
     Davidson diagonalization with overlap
     ethr =  5.15E-03,  avg # of iterations =  1.0

     negative rho (up, down):  6.044E-08 0.000E+00

     total cpu time spent up to now is        1.7 secs

     total energy              =     -31.90266483 Ry
     Harris-Foulkes estimate   =     -31.98271124 Ry
     estimated scf accuracy    <       0.92274538 Ry

     iteration # 45     ecut=    30.00 Ry     beta=0.70
     Davidson diagonalization with overlap
     ethr =  5.15E-03,  avg # of iterations =  1.0

     negative rho (up, down):  2.494E-08 0.000E+00

     total cpu time spent up to now is        1.8 secs

     total energy              =     -31.92590000 Ry
     Harris-Foulkes estimate   =     -31.96449010 Ry
     estimated scf accuracy    <       1.24911952 Ry

     iteration # 46     ecut=    30.00 Ry     beta=0.70
     Davidson diagonalization with overlap
     ethr =  5.15E-03,  avg # of iterations =  1.0

     negative rho (up, down):  1.213E-08 0.000E+00

     total cpu time spent up to now is        1.8 secs

     total energy              =     -31.94141095 Ry
     Harris-Foulkes estimate   =     -31.94625508 Ry
     estimated scf accuracy    <       0.02090387 Ry

     iteration # 47     ecut=    30.00 Ry     beta=0.70
     Davidson diagonalization with overlap
     ethr =  2.61E-04,  avg # of iterations =  1.0

     total cpu time spent up to now is        1.8 secs

     total energy              =     -31.95174335 Ry
     Harris-Foulkes estimate   =     -31.96570082 Ry
     estimated scf accuracy    <       1.30351077 Ry

     iteration # 48     ecut=    30.00 Ry     beta=0.70
     Davidson diagonalization with overlap
     ethr =  2.61E-04,  avg # of iterations =  1.0

     total cpu time spent up to now is        1.9 secs

     total energy              =     -31.94805489 Ry
     Harris-Foulkes estimate   =     -31.95372906 Ry
     estimated scf accuracy    <       0.60950747 Ry

     iteration # 49     ecut=    30.00 Ry     beta=0.70
     Davidson diagonalization with overlap
     ethr =  2.61E-04,  avg # of iterations =  1.0

     negative rho (up, down):  1.885E-08 0.000E+00

     total cpu time spent up to now is        1.9 secs

     total energy              =     -31.96322474 Ry
     Harris-Foulkes estimate   =     -31.94904293 Ry
     estimated scf accuracy    <       0.25133547 Ry

     iteration # 50     ecut=    30.00 Ry     beta=0.70
     Davidson diagonalization with overlap
     ethr =  2.61E-04,  avg # of iterations =  1.0

     total cpu time spent up to now is        1.9 secs

     total energy              =     -31.87710607 Ry
     Harris-Foulkes estimate   =     -31.97574100 Ry
     estimated scf accuracy    <       1.58239249 Ry

     iteration # 51     ecut=    30.00 Ry     beta=0.70
     Davidson diagonalization with overlap
     ethr =  2.61E-04,  avg # of iterations =  1.0

     total cpu time spent up to now is        2.0 secs

     total energy              =     -31.95626132 Ry
     Harris-Foulkes estimate   =     -31.96859553 Ry
     estimated scf accuracy    <       0.83412400 Ry

     iteration # 52     ecut=    30.00 Ry     beta=0.70
     Davidson diagonalization with overlap
     ethr =  2.61E-04,  avg # of iterations =  1.0

     total cpu time spent up to now is        2.0 secs

     total energy              =     -31.96311572 Ry
     Harris-Foulkes estimate   =     -31.95709476 Ry
     estimated scf accuracy    <       0.57592146 Ry

     iteration # 53     ecut=    30.00 Ry     beta=0.70
     Davidson diagonalization with overlap
     ethr =  2.61E-04,  avg # of iterations =  1.0

     total cpu time spent up to now is        2.0 secs

     total energy              =     -31.94537937 Ry
     Harris-Foulkes estimate   =     -31.96356137 Ry
     estimated scf accuracy    <       0.75234505 Ry

     iteration # 54     ecut=    30.00 Ry     beta=0.70
     Davidson diagonalization with overlap
     ethr =  2.61E-04,  avg # of iterations =  1.0

     negative rho (up, down):  1.199E-08 0.000E+00

     total cpu time spent up to now is        2.1 secs

     total energy              =     -31.95799789 Ry
     Harris-Foulkes estimate   =     -31.94893197 Ry
     estimated scf accuracy    <       0.20022723 Ry

     iteration # 55     ecut=    30.00 Ry     beta=0.70
     Davidson diagonalization with overlap
     ethr =  2.61E-04,  avg # of iterations =  1.0

     total cpu time spent up to now is        2.1 secs

     total energy              =     -31.93322254 Ry
     Harris-Foulkes estimate   =     -31.96251654 Ry
     estimated scf accuracy    <       0.72671456 Ry

     iteration # 56     ecut=    30.00 Ry     beta=0.70
     Davidson diagonalization with overlap
     ethr =  2.61E-04,  avg # of iterations =  1.0

     total cpu time spent up to now is        2.2 secs

     total energy              =     -31.94434884 Ry
     Harris-Foulkes estimate   =     -31.94600564 Ry
     estimated scf accuracy    <       0.00589538 Ry

     iteration # 57     ecut=    30.00 Ry     beta=0.70
     Davidson diagonalization with overlap
     ethr =  7.37E-05,  avg # of iterations =  1.0

     total cpu time spent up to now is        2.2 secs

     total energy              =     -31.95453717 Ry
     Harris-Foulkes estimate   =     -31.95386014 Ry
     estimated scf accuracy    <       0.45207013 Ry

     iteration # 58     ecut=    30.00 Ry     beta=0.70
     Davidson diagonalization with overlap
     ethr =  7.37E-05,  avg # of iterations =  1.0

     total cpu time spent up to now is        2.2 secs

     total energy              =     -31.95450599 Ry
     Harris-Foulkes estimate   =     -31.95454933 Ry
     estimated scf accuracy    <       0.48162873 Ry

     iteration # 59     ecut=    30.00 Ry     beta=0.70
     Davidson diagonalization with overlap
     ethr =  7.37E-05,  avg # of iterations =  1.0

     negative rho (up, down):  1.573E-08 0.000E+00

     total cpu time spent up to now is        2.3 secs

     total energy              =     -31.95012444 Ry
     Harris-Foulkes estimate   =     -31.95450626 Ry
     estimated scf accuracy    <       0.48005746 Ry

     iteration # 60     ecut=    30.00 Ry     beta=0.70
     Davidson diagonalization with overlap
     ethr =  7.37E-05,  avg # of iterations =  1.0

     total cpu time spent up to now is        2.3 secs

     total energy              =     -31.95947639 Ry
     Harris-Foulkes estimate   =     -31.95059026 Ry
     estimated scf accuracy    <       0.29496869 Ry

     iteration # 61     ecut=    30.00 Ry     beta=0.70
     Davidson diagonalization with overlap
     ethr =  7.37E-05,  avg # of iterations =  1.0

     total cpu time spent up to now is        2.3 secs

     total energy              =     -31.96831779 Ry
     Harris-Foulkes estimate   =     -31.96230073 Ry
     estimated scf accuracy    <       0.72825968 Ry

     iteration # 62     ecut=    30.00 Ry     beta=0.70
     Davidson diagonalization with overlap
     ethr =  7.37E-05,  avg # of iterations =  1.0

     total cpu time spent up to now is        2.4 secs

     total energy              =     -31.96308244 Ry
     Harris-Foulkes estimate   =     -31.96854600 Ry
     estimated scf accuracy    <       0.83595266 Ry

     iteration # 63     ecut=    30.00 Ry     beta=0.70
     Davidson diagonalization with overlap
     ethr =  7.37E-05,  avg # of iterations =  1.0

     total cpu time spent up to now is        2.4 secs

     total energy              =     -31.89930185 Ry
     Harris-Foulkes estimate   =     -31.96320931 Ry
     estimated scf accuracy    <       0.74628069 Ry

     iteration # 64     ecut=    30.00 Ry     beta=0.70
     Davidson diagonalization with overlap
     ethr =  7.37E-05,  avg # of iterations =  2.0

     total cpu time spent up to now is        2.4 secs

     total energy              =     -31.92341041 Ry
     Harris-Foulkes estimate   =     -31.97888217 Ry
     estimated scf accuracy    <       1.60651791 Ry

     iteration # 65     ecut=    30.00 Ry     beta=0.70
     Davidson diagonalization with overlap
     ethr =  7.37E-05,  avg # of iterations =  2.0

     total cpu time spent up to now is        2.4 secs

     total energy              =     -31.94620755 Ry
     Harris-Foulkes estimate   =     -31.94593419 Ry
     estimated scf accuracy    <       0.00245168 Ry

     iteration # 66     ecut=    30.00 Ry     beta=0.70
     Davidson diagonalization with overlap
     ethr =  3.06E-05,  avg # of iterations =  1.0

     total cpu time spent up to now is        2.5 secs

     total energy              =     -31.94417077 Ry
     Harris-Foulkes estimate   =     -31.94672664 Ry
     estimated scf accuracy    <       0.05935317 Ry

     iteration # 67     ecut=    30.00 Ry     beta=0.70
     Davidson diagonalization with overlap
     ethr =  3.06E-05,  avg # of iterations =  1.0

     total cpu time spent up to now is        2.5 secs

     total energy              =     -31.94487233 Ry
     Harris-Foulkes estimate   =     -31.94622987 Ry
     estimated scf accuracy    <       0.02507116 Ry

     iteration # 68     ecut=    30.00 Ry     beta=0.70
     Davidson diagonalization with overlap
     ethr =  3.06E-05,  avg # of iterations =  1.0

     total cpu time spent up to now is        2.5 secs

     total energy              =     -31.94543302 Ry
     Harris-Foulkes estimate   =     -31.94631415 Ry
     estimated scf accuracy    <       0.03017086 Ry

     iteration # 69     ecut=    30.00 Ry     beta=0.70
     Davidson diagonalization with overlap
     ethr =  3.06E-05,  avg # of iterations =  1.0

     total cpu time spent up to now is        2.6 secs

     total energy              =     -31.94592756 Ry
     Harris-Foulkes estimate   =     -31.94590990 Ry
     estimated scf accuracy    <       0.00033312 Ry

     iteration # 70     ecut=    30.00 Ry     beta=0.70
     Davidson diagonalization with overlap
     ethr =  4.16E-06,  avg # of iterations = 12.0

     total cpu time spent up to now is        2.6 secs

     total energy              =     -31.94592218 Ry
     Harris-Foulkes estimate   =     -31.94594537 Ry
     estimated scf accuracy    <       0.00308668 Ry

     iteration # 71     ecut=    30.00 Ry     beta=0.70
     Davidson diagonalization with overlap
     ethr =  4.16E-06,  avg # of iterations =  1.0

     total cpu time spent up to now is        2.7 secs

     total energy              =     -31.94590055 Ry
     Harris-Foulkes estimate   =     -31.94592568 Ry
     estimated scf accuracy    <       0.00151662 Ry

     iteration # 72     ecut=    30.00 Ry     beta=0.70
     Davidson diagonalization with overlap
     ethr =  4.16E-06,  avg # of iterations =  1.0

     total cpu time spent up to now is        2.7 secs

     total energy              =     -31.94590919 Ry
     Harris-Foulkes estimate   =     -31.94590889 Ry
     estimated scf accuracy    <       0.00017610 Ry

     iteration # 73     ecut=    30.00 Ry     beta=0.70
     Davidson diagonalization with overlap
     ethr =  2.20E-06,  avg # of iterations =  1.0

     total cpu time spent up to now is        2.7 secs

     total energy              =     -31.94590520 Ry
     Harris-Foulkes estimate   =     -31.94590920 Ry
     estimated scf accuracy    <       0.00017570 Ry

     iteration # 74     ecut=    30.00 Ry     beta=0.70
     Davidson diagonalization with overlap
     ethr =  2.20E-06,  avg # of iterations =  1.0

     total cpu time spent up to now is        2.8 secs

     total energy              =     -31.94590765 Ry
     Harris-Foulkes estimate   =     -31.94590758 Ry
     estimated scf accuracy    <       0.00000015 Ry

     iteration # 75     ecut=    30.00 Ry     beta=0.70
     Davidson diagonalization with overlap
     ethr =  1.89E-09,  avg # of iterations =  1.0

     total cpu time spent up to now is        2.8 secs

     total energy              =     -31.94590768 Ry
     Harris-Foulkes estimate   =     -31.94590766 Ry
     estimated scf accuracy    <       0.00000001 Ry

     iteration # 76     ecut=    30.00 Ry     beta=0.70
     Davidson diagonalization with overlap
     ethr =  1.29E-10,  avg # of iterations =  1.0

     total cpu time spent up to now is        2.8 secs

     total energy              =     -31.94590767 Ry
     Harris-Foulkes estimate   =     -31.94590768 Ry
     estimated scf accuracy    <       0.00000007 Ry

     iteration # 77     ecut=    30.00 Ry     beta=0.70
     Davidson diagonalization with overlap
     ethr =  1.29E-10,  avg # of iterations =  1.0

     total cpu time spent up to now is        2.8 secs

     End of self-consistent calculation

          k = 0.0000 0.0000 0.0000 ( 22119 PWs)   bands (ev):

   -24.7955 -10.6419  -7.0547  -7.0539  -6.9147  -0.7075   0.3239   0.8229

     the Fermi energy is    -6.8839 ev

!    total energy              =     -31.94590767 Ry
     Harris-Foulkes estimate   =     -31.94590767 Ry
     estimated scf accuracy    <          1.0E-09 Ry

     convergence has been achieved in  77 iterations

     Forces acting on atoms (Ry/au):

     atom    1 type  1   force =     0.00259893    0.01538483    0.00027233
     atom    2 type  1   force =     0.00076737   -0.00016292   -0.00077882
     atom    3 type  2   force =    -0.00336630   -0.01522191    0.00050650

     Total force =     0.022092     Total SCF correction =     0.000008

     Molecular Dynamics Calculation

     Starting temperature  =  1000.00 K

     temperature is controlled by Andersen thermostat
     Collision frequency = 1.0000/timestep
     mass H                =     1.01
     mass O                =    16.00
     Time step             =   100.00 a.u.,  4.8378 femto-seconds

     Entering Dynamics:    iteration =     1
                           time      =   0.0048 pico-seconds


     Andersen thermostat:    3 collisions

ATOMIC_POSITIONS (bohr)
H       11.870479103   4.248040619  14.666770278
H       18.557961348   6.547189095   7.733099711
O       11.337369426   1.882175873  14.777514548


     kinetic energy (Ekin) =     0.01319564 Ry
     temperature           =   694.47456190 K 
     Ekin + Etot (const)   =   -31.93271203 Ry

     Linear momentum :   -0.0000000000   -0.0000000000   -0.0000000000

     Writing output data file pwscf.save
     Check: negative starting charge=   -0.347396
     NEW-OLD atomic charge density approx. for the potential
     Check: negative starting charge=   -0.346361

     negative rho (up, down):  9.192E-02 0.000E+00

     total cpu time spent up to now is        3.2 secs

     per-process dynamical memory:    20.4 Mb

     Self-consistent Calculation

     iteration #  1     ecut=    30.00 Ry     beta=0.70
     Davidson diagonalization with overlap
     c_bands:  1 eigenvalues not converged
     ethr =  1.00E-06,  avg # of iterations = 20.0

     negative rho (up, down):  2.206E-02 0.000E+00

     total cpu time spent up to now is        3.3 secs

     total energy              =     -30.65799558 Ry
     Harris-Foulkes estimate   =     -31.85057663 Ry
     estimated scf accuracy    <       1.53458037 Ry

     iteration #  2     ecut=    30.00 Ry     beta=0.70
     Davidson diagonalization with overlap
     ethr =  1.00E-02,  avg # of iterations =  3.0

     negative rho (up, down):  1.649E-02 0.000E+00

     total cpu time spent up to now is        3.3 secs

     total energy              =     -32.25058005 Ry
     Harris-Foulkes estimate   =     -34.29803441 Ry
     estimated scf accuracy    <       5.37008184 Ry

     iteration #  3     ecut=    30.00 Ry     beta=0.70
     Davidson diagonalization with overlap
     ethr =  1.00E-02,  avg # of iterations =  3.0

     negative rho (up, down):  1.401E-02 0.000E+00

     total cpu time spent up to now is        3.3 secs

     total energy              =     -32.19181493 Ry
     Harris-Foulkes estimate   =     -32.48807496 Ry
     estimated scf accuracy    <       1.76343896 Ry

     iteration #  4     ecut=    30.00 Ry     beta=0.70
     Davidson diagonalization with overlap
     ethr =  1.00E-02,  avg # of iterations =  1.0

     negative rho (up, down):  1.094E-02 0.000E+00

     total cpu time spent up to now is        3.4 secs

     total energy              =     -31.86454074 Ry
     Harris-Foulkes estimate   =     -32.19328725 Ry
     estimated scf accuracy    <       1.38122562 Ry

     iteration #  5     ecut=    30.00 Ry     beta=0.70
     Davidson diagonalization with overlap
     ethr =  1.00E-02,  avg # of iterations =  1.0

     negative rho (up, down):  3.426E-03 0.000E+00

     total cpu time spent up to now is        3.4 secs

     total energy              =     -31.88379009 Ry
     Harris-Foulkes estimate   =     -31.87950318 Ry
     estimated scf accuracy    <       0.00450793 Ry

     iteration #  6     ecut=    30.00 Ry     beta=0.70
     Davidson diagonalization with overlap
     ethr =  5.63E-05,  avg # of iterations =  8.0

     negative rho (up, down):  1.252E-04 0.000E+00

     total cpu time spent up to now is        3.5 secs

     total energy              =     -31.72261746 Ry
     Harris-Foulkes estimate   =     -31.94953374 Ry
     estimated scf accuracy    <       1.00456470 Ry

     iteration #  7     ecut=    30.00 Ry     beta=0.70
     Davidson diagonalization with overlap
     ethr =  5.63E-05,  avg # of iterations =  6.0

     negative rho (up, down):  6.068E-05 0.000E+00

     total cpu time spent up to now is        3.5 secs

     total energy              =     -31.93630499 Ry
     Harris-Foulkes estimate   =     -32.08143028 Ry
     estimated scf accuracy    <       1.46749629 Ry

     iteration #  8     ecut=    30.00 Ry     beta=0.70
     Davidson diagonalization with overlap
     ethr =  5.63E-05,  avg # of iterations =  4.0

     negative rho (up, down):  4.361E-05 0.000E+00

     total cpu time spent up to now is        3.5 secs

     total energy              =     -31.88981317 Ry
     Harris-Foulkes estimate   =     -31.93673193 Ry
     estimated scf accuracy    <       1.51742655 Ry

     iteration #  9     ecut=    30.00 Ry     beta=0.70
     Davidson diagonalization with overlap
     ethr =  5.63E-05,  avg # of iterations =  1.0

     negative rho (up, down):  1.232E-05 0.000E+00

     total cpu time spent up to now is        3.6 secs

     total energy              =     -31.88499873 Ry
     Harris-Foulkes estimate   =     -31.89617642 Ry
     estimated scf accuracy    <       0.28024911 Ry

     iteration # 10     ecut=    30.00 Ry     beta=0.70
     Davidson diagonalization with overlap
     ethr =  5.63E-05,  avg # of iterations =  1.0

     negative rho (up, down):  1.756E-07 0.000E+00

     total cpu time spent up to now is        3.6 secs

     total energy              =     -31.90499775 Ry
     Harris-Foulkes estimate   =     -31.89399741 Ry
     estimated scf accuracy    <       0.09220119 Ry

     iteration # 11     ecut=    30.00 Ry     beta=0.70
     Davidson diagonalization with overlap
     ethr =  5.63E-05,  avg # of iterations =  2.0

     negative rho (up, down):  8.081E-08 0.000E+00

     total cpu time spent up to now is        3.6 secs

     total energy              =     -31.91519067 Ry
     Harris-Foulkes estimate   =     -31.91904449 Ry
     estimated scf accuracy    <       0.89661333 Ry

     iteration # 12     ecut=    30.00 Ry     beta=0.70
     Davidson diagonalization with overlap
     ethr =  5.63E-05,  avg # of iterations =  1.0

     negative rho (up, down):  2.179E-06 0.000E+00

     total cpu time spent up to now is        3.7 secs

     total energy              =     -31.92196971 Ry
     Harris-Foulkes estimate   =     -31.91523460 Ry
     estimated scf accuracy    <       0.85273916 Ry

     iteration # 13     ecut=    30.00 Ry     beta=0.70
     Davidson diagonalization with overlap
     ethr =  5.63E-05,  avg # of iterations =  1.0

     negative rho (up, down):  1.221E-05 0.000E+00

     total cpu time spent up to now is        3.7 secs

     total energy              =     -31.89210615 Ry
     Harris-Foulkes estimate   =     -31.92209589 Ry
     estimated scf accuracy    <       0.91398430 Ry

     iteration # 14     ecut=    30.00 Ry     beta=0.70
     Davidson diagonalization with overlap
     ethr =  5.63E-05,  avg # of iterations =  1.0

     negative rho (up, down):  2.880E-07 0.000E+00

     total cpu time spent up to now is        3.7 secs

     total energy              =     -31.88320510 Ry
     Harris-Foulkes estimate   =     -31.89687851 Ry
     estimated scf accuracy    <       0.24949126 Ry

     iteration # 15     ecut=    30.00 Ry     beta=0.70
     Davidson diagonalization with overlap
     ethr =  5.63E-05,  avg # of iterations =  2.0

     total cpu time spent up to now is        3.8 secs

     total energy              =     -31.88878564 Ry
     Harris-Foulkes estimate   =     -31.89582057 Ry
     estimated scf accuracy    <       0.25132377 Ry

     iteration # 16     ecut=    30.00 Ry     beta=0.70
     Davidson diagonalization with overlap
     ethr =  5.63E-05,  avg # of iterations =  1.0

     total cpu time spent up to now is        3.8 secs

     total energy              =     -31.89290023 Ry
     Harris-Foulkes estimate   =     -31.89275421 Ry
     estimated scf accuracy    <       0.00415523 Ry

     iteration # 17     ecut=    30.00 Ry     beta=0.70
     Davidson diagonalization with overlap
     ethr =  5.19E-05,  avg # of iterations =  1.0

     total cpu time spent up to now is        3.8 secs

     total energy              =     -31.89281780 Ry
     Harris-Foulkes estimate   =     -31.89300622 Ry
     estimated scf accuracy    <       0.02322394 Ry

     iteration # 18     ecut=    30.00 Ry     beta=0.70
     Davidson diagonalization with overlap
     ethr =  5.19E-05,  avg # of iterations =  1.0

     total cpu time spent up to now is        3.9 secs

     total energy              =     -31.89301214 Ry
     Harris-Foulkes estimate   =     -31.89284585 Ry
     estimated scf accuracy    <       0.01132693 Ry

     iteration # 19     ecut=    30.00 Ry     beta=0.70
     Davidson diagonalization with overlap
     ethr =  5.19E-05,  avg # of iterations =  1.0

     total cpu time spent up to now is        3.9 secs

     total energy              =     -31.89257199 Ry
     Harris-Foulkes estimate   =     -31.89305702 Ry
     estimated scf accuracy    <       0.02702239 Ry

     iteration # 20     ecut=    30.00 Ry     beta=0.70
     Davidson diagonalization with overlap
     ethr =  5.19E-05,  avg # of iterations =  1.0

     total cpu time spent up to now is        3.9 secs

     total energy              =     -31.89272006 Ry
     Harris-Foulkes estimate   =     -31.89273306 Ry
     estimated scf accuracy    <       0.00282427 Ry

     iteration # 21     ecut=    30.00 Ry     beta=0.70
     Davidson diagonalization with overlap
     ethr =  3.53E-05,  avg # of iterations =  1.0

     total cpu time spent up to now is        4.0 secs

     total energy              =     -31.89269838 Ry
     Harris-Foulkes estimate   =     -31.89272122 Ry
     estimated scf accuracy    <       0.00191211 Ry

     iteration # 22     ecut=    30.00 Ry     beta=0.70
     Davidson diagonalization with overlap
     ethr =  2.39E-05,  avg # of iterations =  1.0

     total cpu time spent up to now is        4.0 secs

     total energy              =     -31.89269043 Ry
     Harris-Foulkes estimate   =     -31.89270364 Ry
     estimated scf accuracy    <       0.00054873 Ry

     iteration # 23     ecut=    30.00 Ry     beta=0.70
     Davidson diagonalization with overlap
     ethr =  6.86E-06,  avg # of iterations =  1.0

     total cpu time spent up to now is        4.1 secs

     total energy              =     -31.89269691 Ry
     Harris-Foulkes estimate   =     -31.89269686 Ry
     estimated scf accuracy    <       0.00000089 Ry

     iteration # 24     ecut=    30.00 Ry     beta=0.70
     Davidson diagonalization with overlap
     ethr =  1.11E-08,  avg # of iterations =  1.0

     total cpu time spent up to now is        4.1 secs

     total energy              =     -31.89269694 Ry
     Harris-Foulkes estimate   =     -31.89269691 Ry
     estimated scf accuracy    <       0.00000024 Ry

     iteration # 25     ecut=    30.00 Ry     beta=0.70
     Davidson diagonalization with overlap
     ethr =  2.98E-09,  avg # of iterations =  1.0

     total cpu time spent up to now is        4.1 secs

     total energy              =     -31.89269695 Ry
     Harris-Foulkes estimate   =     -31.89269695 Ry
     estimated scf accuracy    <       0.00000015 Ry

     iteration # 26     ecut=    30.00 Ry     beta=0.70
     Davidson diagonalization with overlap
     ethr =  1.84E-09,  avg # of iterations =  1.0

     total cpu time spent up to now is        4.1 secs

     End of self-consistent calculation

          k = 0.0000 0.0000 0.0000 ( 22119 PWs)   bands (ev):

   -24.0480  -9.9346  -6.9810  -6.9802  -6.8442  -1.6758   0.0653   0.8267

     the Fermi energy is    -6.8112 ev

!    total energy              =     -31.89269699 Ry
     Harris-Foulkes estimate   =     -31.89269695 Ry
     estimated scf accuracy    <          3.2E-11 Ry

     convergence has been achieved in  26 iterations

     Forces acting on atoms (Ry/au):

     atom    1 type  1   force =    -0.04199081   -0.18684782    0.00824667
     atom    2 type  1   force =     0.00068567    0.00022485   -0.00081897
     atom    3 type  2   force =     0.04130514    0.18662297   -0.00742770

     Total force =     0.270802     Total SCF correction =     0.000009

     Entering Dynamics:    iteration =     2
                           time      =   0.0097 pico-seconds


     Andersen thermostat:    3 collisions

ATOMIC_POSITIONS (bohr)
H       11.466747910   2.394468513  14.901484276
H       18.628666203   6.395780931   7.900444452
O       11.358391713   2.008740253  14.752134590


     kinetic energy (Ekin) =     0.04427120 Ry
     temperature           =  2329.95398678 K 
     Ekin + Etot (const)   =   -31.84842578 Ry
     Message from routine dynamics:
     Total linear momentum <> 0

     Linear momentum :   -0.0482643422    0.4839037204    0.0463385468

     Writing output data file pwscf.save

     first order wave-functions extrapolation
     Check: negative starting charge=   -0.346361
     first order charge density extrapolation
     Check: negative starting charge=   -0.357150

     negative rho (up, down):  4.798E-01 0.000E+00

     total cpu time spent up to now is        4.5 secs

     per-process dynamical memory:    20.4 Mb

     Self-consistent Calculation

     iteration #  1     ecut=    30.00 Ry     beta=0.70
     Davidson diagonalization with overlap
     ethr =  1.00E-06,  avg # of iterations = 11.0

     negative rho (up, down):  9.623E-02 0.000E+00

     total cpu time spent up to now is        4.6 secs

     total energy              =      21.10616951 Ry
     Harris-Foulkes estimate   =    -602.88778011 Ry
     estimated scf accuracy    <       6.16405365 Ry

     iteration #  2     ecut=    30.00 Ry     beta=0.70
     Davidson diagonalization with overlap
     ethr =  1.00E-02,  avg # of iterations =  5.0

     negative rho (up, down):  5.862E-02 0.000E+00

     total cpu time spent up to now is        4.6 secs

     total energy              =     -16.74251113 Ry
     Harris-Foulkes estimate   =     -19.33588115 Ry
     estimated scf accuracy    <       5.39832954 Ry

     iteration #  3     ecut=    30.00 Ry     beta=0.70
     Davidson diagonalization with overlap
     ethr =  1.00E-02,  avg # of iterations =  3.0

     negative rho (up, down):  5.044E-02 0.000E+00

     total cpu time spent up to now is        4.6 secs

     total energy              =     -17.16126049 Ry
     Harris-Foulkes estimate   =     -17.86577593 Ry
     estimated scf accuracy    <       3.10853561 Ry

     iteration #  4     ecut=    30.00 Ry     beta=0.70
     Davidson diagonalization with overlap
     ethr =  1.00E-02,  avg # of iterations =  1.0

     negative rho (up, down):  3.334E-02 0.000E+00

     total cpu time spent up to now is        4.7 secs

     total energy              =     -16.47392127 Ry
     Harris-Foulkes estimate   =     -17.17995330 Ry
     estimated scf accuracy    <       1.98756671 Ry

     iteration #  5     ecut=    30.00 Ry     beta=0.70
     Davidson diagonalization with overlap
     ethr =  1.00E-02,  avg # of iterations =  1.0

     negative rho (up, down):  1.496E-02 0.000E+00

     total cpu time spent up to now is        4.7 secs

     total energy              =     -16.84914551 Ry
     Harris-Foulkes estimate   =     -17.25933341 Ry
     estimated scf accuracy    <       2.66505375 Ry

     iteration #  6     ecut=    30.00 Ry     beta=0.70
     Davidson diagonalization with overlap
     ethr =  1.00E-02,  avg # of iterations =  1.0

     negative rho (up, down):  1.097E-02 0.000E+00

     total cpu time spent up to now is        4.7 secs

     total energy              =     -16.70316628 Ry
     Harris-Foulkes estimate   =     -16.86038398 Ry
     estimated scf accuracy    <       1.98800020 Ry

     iteration #  7     ecut=    30.00 Ry     beta=0.70
     Davidson diagonalization with overlap
     ethr =  1.00E-02,  avg # of iterations =  1.0

     negative rho (up, down):  6.967E-03 0.000E+00

     total cpu time spent up to now is        4.8 secs

     total energy              =     -16.29408115 Ry
     Harris-Foulkes estimate   =     -16.70457421 Ry
     estimated scf accuracy    <       1.73537652 Ry

     iteration #  8     ecut=    30.00 Ry     beta=0.70
     Davidson diagonalization with overlap
     ethr =  1.00E-02,  avg # of iterations =  1.0

     negative rho (up, down):  1.366E-03 0.000E+00

     total cpu time spent up to now is        4.8 secs

     total energy              =     -16.70943771 Ry
     Harris-Foulkes estimate   =     -16.76412484 Ry
     estimated scf accuracy    <       1.13319135 Ry

     iteration #  9     ecut=    30.00 Ry     beta=0.70
     Davidson diagonalization with overlap
     ethr =  1.00E-02,  avg # of iterations =  1.0

     negative rho (up, down):  3.684E-04 0.000E+00

     total cpu time spent up to now is        4.8 secs

     total energy              =     -16.60349850 Ry
     Harris-Foulkes estimate   =     -16.71131757 Ry
     estimated scf accuracy    <       0.99447689 Ry

     iteration # 10     ecut=    30.00 Ry     beta=0.70
     Davidson diagonalization with overlap
     ethr =  1.00E-02,  avg # of iterations =  1.0

     negative rho (up, down):  4.618E-07 0.000E+00

     total cpu time spent up to now is        4.9 secs

     total energy              =     -16.46431921 Ry
     Harris-Foulkes estimate   =     -16.60527290 Ry
     estimated scf accuracy    <       0.80752592 Ry

     iteration # 11     ecut=    30.00 Ry     beta=0.70
     Davidson diagonalization with overlap
     ethr =  1.00E-02,  avg # of iterations =  1.0

     negative rho (up, down):  1.091E-08 0.000E+00

     total cpu time spent up to now is        4.9 secs

     total energy              =     -16.61182979 Ry
     Harris-Foulkes estimate   =     -16.70964459 Ry
     estimated scf accuracy    <       1.68960047 Ry

     iteration # 12     ecut=    30.00 Ry     beta=0.70
     Davidson diagonalization with overlap
     ethr =  1.00E-02,  avg # of iterations =  1.0

     total cpu time spent up to now is        4.9 secs

     total energy              =     -16.47127067 Ry
     Harris-Foulkes estimate   =     -16.60937434 Ry
     estimated scf accuracy    <       1.97115383 Ry

     iteration # 13     ecut=    30.00 Ry     beta=0.70
     Davidson diagonalization with overlap
     ethr =  1.00E-02,  avg # of iterations =  1.0

     total cpu time spent up to now is        5.0 secs

     total energy              =     -16.61006275 Ry
     Harris-Foulkes estimate   =     -16.61493999 Ry
     estimated scf accuracy    <       0.82130918 Ry

     iteration # 14     ecut=    30.00 Ry     beta=0.70
     Davidson diagonalization with overlap
     ethr =  1.00E-02,  avg # of iterations =  1.0

     total cpu time spent up to now is        5.0 secs

     total energy              =     -16.59838440 Ry
     Harris-Foulkes estimate   =     -16.61007976 Ry
     estimated scf accuracy    <       0.81298387 Ry

     iteration # 15     ecut=    30.00 Ry     beta=0.70
     Davidson diagonalization with overlap
     ethr =  1.00E-02,  avg # of iterations =  1.0

     total cpu time spent up to now is        5.0 secs

     total energy              =     -16.61568181 Ry
     Harris-Foulkes estimate   =     -16.59847548 Ry
     estimated scf accuracy    <       0.76272456 Ry

     iteration # 16     ecut=    30.00 Ry     beta=0.70
     Davidson diagonalization with overlap
     ethr =  9.53E-03,  avg # of iterations =  1.0

     total cpu time spent up to now is        5.1 secs

     total energy              =     -16.62665736 Ry
     Harris-Foulkes estimate   =     -16.61599204 Ry
     estimated scf accuracy    <       0.82426551 Ry

     iteration # 17     ecut=    30.00 Ry     beta=0.70
     Davidson diagonalization with overlap
     ethr =  9.53E-03,  avg # of iterations =  1.0

     total cpu time spent up to now is        5.1 secs

     total energy              =     -16.51686363 Ry
     Harris-Foulkes estimate   =     -16.62666382 Ry
     estimated scf accuracy    <       0.84008516 Ry

     iteration # 18     ecut=    30.00 Ry     beta=0.70
     Davidson diagonalization with overlap
     ethr =  9.53E-03,  avg # of iterations =  1.0

     total cpu time spent up to now is        5.1 secs

     total energy              =     -16.60064640 Ry
     Harris-Foulkes estimate   =     -16.62584855 Ry
     estimated scf accuracy    <       1.88373310 Ry

     iteration # 19     ecut=    30.00 Ry     beta=0.70
     Davidson diagonalization with overlap
     ethr =  9.53E-03,  avg # of iterations =  1.0

     total cpu time spent up to now is        5.2 secs

     total energy              =     -16.56648800 Ry
     Harris-Foulkes estimate   =     -16.60025745 Ry
     estimated scf accuracy    <       1.73167177 Ry

     iteration # 20     ecut=    30.00 Ry     beta=0.70
     Davidson diagonalization with overlap
     ethr =  9.53E-03,  avg # of iterations =  1.0

     total cpu time spent up to now is        5.2 secs

     total energy              =     -16.57417728 Ry
     Harris-Foulkes estimate   =     -16.57704023 Ry
     estimated scf accuracy    <       0.14628266 Ry

     iteration # 21     ecut=    30.00 Ry     beta=0.70
     Davidson diagonalization with overlap
     ethr =  1.83E-03,  avg # of iterations =  1.0

     total cpu time spent up to now is        5.2 secs

     total energy              =     -16.57359148 Ry
     Harris-Foulkes estimate   =     -16.57538213 Ry
     estimated scf accuracy    <       0.00381367 Ry

     iteration # 22     ecut=    30.00 Ry     beta=0.70
     Davidson diagonalization with overlap
     ethr =  4.77E-05,  avg # of iterations =  7.0

     total cpu time spent up to now is        5.3 secs

     total energy              =     -16.59040050 Ry
     Harris-Foulkes estimate   =     -16.59314120 Ry
     estimated scf accuracy    <       0.70075767 Ry

     iteration # 23     ecut=    30.00 Ry     beta=0.70
     Davidson diagonalization with overlap
     ethr =  4.77E-05,  avg # of iterations =  1.0

     total cpu time spent up to now is        5.3 secs

     total energy              =     -16.57316973 Ry
     Harris-Foulkes estimate   =     -16.59044444 Ry
     estimated scf accuracy    <       0.65276332 Ry

     iteration # 24     ecut=    30.00 Ry     beta=0.70
     Davidson diagonalization with overlap
     ethr =  4.77E-05,  avg # of iterations =  1.0

     total cpu time spent up to now is        5.3 secs

     total energy              =     -16.57567943 Ry
     Harris-Foulkes estimate   =     -16.57707598 Ry
     estimated scf accuracy    <       0.12297138 Ry

     iteration # 25     ecut=    30.00 Ry     beta=0.70
     Davidson diagonalization with overlap
     ethr =  4.77E-05,  avg # of iterations =  1.0

     total cpu time spent up to now is        5.4 secs

     total energy              =     -16.57573217 Ry
     Harris-Foulkes estimate   =     -16.57594443 Ry
     estimated scf accuracy    <       0.04557023 Ry

     iteration # 26     ecut=    30.00 Ry     beta=0.70
     Davidson diagonalization with overlap
     ethr =  4.77E-05,  avg # of iterations =  1.0

     total cpu time spent up to now is        5.4 secs

     total energy              =     -16.57440439 Ry
     Harris-Foulkes estimate   =     -16.57575003 Ry
     estimated scf accuracy    <       0.03134799 Ry

     iteration # 27     ecut=    30.00 Ry     beta=0.70
     Davidson diagonalization with overlap
     ethr =  4.77E-05,  avg # of iterations =  1.0

     total cpu time spent up to now is        5.4 secs

     total energy              =     -16.57517134 Ry
     Harris-Foulkes estimate   =     -16.57555337 Ry
     estimated scf accuracy    <       0.01704524 Ry

     iteration # 28     ecut=    30.00 Ry     beta=0.70
     Davidson diagonalization with overlap
     ethr =  4.77E-05,  avg # of iterations =  1.0

     total cpu time spent up to now is        5.5 secs

     total energy              =     -16.57530442 Ry
     Harris-Foulkes estimate   =     -16.57534449 Ry
     estimated scf accuracy    <       0.00011872 Ry

     iteration # 29     ecut=    30.00 Ry     beta=0.70
     Davidson diagonalization with overlap
     ethr =  1.48E-06,  avg # of iterations =  5.0

     total cpu time spent up to now is        5.5 secs

     total energy              =     -16.57439047 Ry
     Harris-Foulkes estimate   =     -16.57557068 Ry
     estimated scf accuracy    <       0.01791183 Ry

     iteration # 30     ecut=    30.00 Ry     beta=0.70
     Davidson diagonalization with overlap
     ethr =  1.48E-06,  avg # of iterations =  2.0

     total cpu time spent up to now is        5.5 secs

     total energy              =     -16.57480058 Ry
     Harris-Foulkes estimate   =     -16.57598258 Ry
     estimated scf accuracy    <       0.05413280 Ry

     iteration # 31     ecut=    30.00 Ry     beta=0.70
     Davidson diagonalization with overlap
     ethr =  1.48E-06,  avg # of iterations =  1.0

     total cpu time spent up to now is        5.6 secs

     total energy              =     -16.57530270 Ry
     Harris-Foulkes estimate   =     -16.57534172 Ry
     estimated scf accuracy    <       0.00038001 Ry

     iteration # 32     ecut=    30.00 Ry     beta=0.70
     Davidson diagonalization with overlap
     ethr =  1.48E-06,  avg # of iterations =  1.0

     total cpu time spent up to now is        5.6 secs

     total energy              =     -16.57528417 Ry
     Harris-Foulkes estimate   =     -16.57538372 Ry
     estimated scf accuracy    <       0.00375817 Ry

     iteration # 33     ecut=    30.00 Ry     beta=0.70
     Davidson diagonalization with overlap
     ethr =  1.48E-06,  avg # of iterations =  1.0

     total cpu time spent up to now is        5.6 secs

     total energy              =     -16.57533724 Ry
     Harris-Foulkes estimate   =     -16.57533708 Ry
     estimated scf accuracy    <       0.00001766 Ry

     iteration # 34     ecut=    30.00 Ry     beta=0.70
     Davidson diagonalization with overlap
     ethr =  2.21E-07,  avg # of iterations =  1.0

     total cpu time spent up to now is        5.7 secs

     total energy              =     -16.57533699 Ry
     Harris-Foulkes estimate   =     -16.57533725 Ry
     estimated scf accuracy    <       0.00002564 Ry

     iteration # 35     ecut=    30.00 Ry     beta=0.70
     Davidson diagonalization with overlap
     ethr =  2.21E-07,  avg # of iterations =  1.0

     total cpu time spent up to now is        5.7 secs

     total energy              =     -16.57533700 Ry
     Harris-Foulkes estimate   =     -16.57533707 Ry
     estimated scf accuracy    <       0.00000660 Ry

     iteration # 36     ecut=    30.00 Ry     beta=0.70
     Davidson diagonalization with overlap
     ethr =  8.25E-08,  avg # of iterations =  1.0

     total cpu time spent up to now is        5.7 secs

     total energy              =     -16.57533695 Ry
     Harris-Foulkes estimate   =     -16.57533701 Ry
     estimated scf accuracy    <       0.00000264 Ry

     iteration # 37     ecut=    30.00 Ry     beta=0.70
     Davidson diagonalization with overlap
     ethr =  3.30E-08,  avg # of iterations =  1.0

     total cpu time spent up to now is        5.8 secs

     total energy              =     -16.57533701 Ry
     Harris-Foulkes estimate   =     -16.57533698 Ry
     estimated scf accuracy    <       0.00000003 Ry

     iteration # 38     ecut=    30.00 Ry     beta=0.70
     Davidson diagonalization with overlap
     ethr =  4.27E-10,  avg # of iterations =  1.0

     total cpu time spent up to now is        5.8 secs

     total energy              =     -16.57533701 Ry
     Harris-Foulkes estimate   =     -16.57533701 Ry
     estimated scf accuracy    <       0.00000001 Ry

     iteration # 39     ecut=    30.00 Ry     beta=0.70
     Davidson diagonalization with overlap
     ethr =  1.85E-10,  avg # of iterations =  1.0

     total cpu time spent up to now is        5.8 secs

     End of self-consistent calculation

          k = 0.0000 0.0000 0.0000 ( 22119 PWs)   bands (ev):

   -29.8243 -10.4894  -7.9219  -7.9207  -7.7475  -0.2942   0.5751   0.7119

     the Fermi energy is    -7.7392 ev

!    total energy              =     -16.57533702 Ry
     Harris-Foulkes estimate   =     -16.57533701 Ry
     estimated scf accuracy    <          1.2E-10 Ry

     convergence has been achieved in  39 iterations

     Forces acting on atoms (Ry/au):

     atom    1 type  1   force =    16.42324234   58.45734246   22.63628490
     atom    2 type  1   force =     0.00090247   -0.00050696   -0.00005478
     atom    3 type  2   force =   -16.42414481  -58.45683551  -22.63623012

     Total force =    91.644630     Total SCF correction =     0.000005

     Entering Dynamics:    iteration =     3
                           time      =   0.0145 pico-seconds


     Andersen thermostat:    3 collisions

ATOMIC_POSITIONS (bohr)
H      190.093524812 637.132019613 260.887181912
H       18.781826856   6.462830951   8.238799611
O        0.072908155 -38.063300193  -0.797071243


     kinetic energy (Ekin) =  6056.85458438 Ry
     temperature           = ************** K 
     Ekin + Etot (const)   =  6040.27924736 Ry
     Message from routine dynamics:
     Total linear momentum <> 0

     Linear momentum :    0.3047675616   -0.3500624036   -0.1369358232

     Writing output data file pwscf.save

     second order wave-functions extrapolation
     Check: negative starting charge=   -0.357150
     second order charge density extrapolation
     Check: negative starting charge=   -0.347142

     negative rho (up, down):  3.407E+02 0.000E+00

     total cpu time spent up to now is        6.1 secs

     per-process dynamical memory:    20.4 Mb

     Self-consistent Calculation

     iteration #  1     ecut=    30.00 Ry     beta=0.70
     Davidson diagonalization with overlap
     c_bands:  3 eigenvalues not converged
     ethr =  1.00E-06,  avg # of iterations = 40.0

     negative rho (up, down):  1.016E+02 0.000E+00

     total cpu time spent up to now is        6.4 secs

     total energy              =   -3444.13960151 Ry
     Harris-Foulkes estimate   = -151454.17415315 Ry
     estimated scf accuracy    <   34173.33150174 Ry

     iteration #  2     ecut=    30.00 Ry     beta=0.70
     Davidson diagonalization with overlap
     c_bands:  1 eigenvalues not converged
     ethr =  1.00E-02,  avg # of iterations = 20.0

     negative rho (up, down):  1.516E-01 0.000E+00

     total cpu time spent up to now is        6.5 secs

     total energy              =     161.30829158 Ry
     Harris-Foulkes estimate   =  -14179.19221497 Ry
     estimated scf accuracy    <    3115.48924593 Ry

     iteration #  3     ecut=    30.00 Ry     beta=0.70
     Davidson diagonalization with overlap
     ethr =  1.00E-02,  avg # of iterations = 12.0

     negative rho (up, down):  2.509E-01 0.000E+00

     total cpu time spent up to now is        6.6 secs

     total energy              =     -60.24016381 Ry
     Harris-Foulkes estimate   =    -101.88706416 Ry
     estimated scf accuracy    <      94.91157511 Ry

     iteration #  4     ecut=    30.00 Ry     beta=0.70
     Davidson diagonalization with overlap
     ethr =  1.00E-02,  avg # of iterations =  7.0

     negative rho (up, down):  2.277E-01 0.000E+00

     total cpu time spent up to now is        6.6 secs

     total energy              =      -1.69774376 Ry
     Harris-Foulkes estimate   =    -157.99857048 Ry
     estimated scf accuracy    <      26.48542623 Ry

     iteration #  5     ecut=    30.00 Ry     beta=0.70
     Davidson diagonalization with overlap
     ethr =  1.00E-02,  avg # of iterations =  8.0

     negative rho (up, down):  3.948E-01 0.000E+00

     total cpu time spent up to now is        6.7 secs

     total energy              =      33.20628053 Ry
     Harris-Foulkes estimate   =    -209.49521439 Ry
     estimated scf accuracy    <      13.65547087 Ry

     iteration #  6     ecut=    30.00 Ry     beta=0.70
     Davidson diagonalization with overlap
     ethr =  1.00E-02,  avg # of iterations =  9.0

     negative rho (up, down):  1.422E-01 0.000E+00

     total cpu time spent up to now is        6.7 secs

     total energy              =     -17.71721467 Ry
     Harris-Foulkes estimate   =     -55.12365766 Ry
     estimated scf accuracy    <      17.51328834 Ry

     iteration #  7     ecut=    30.00 Ry     beta=0.70
     Davidson diagonalization with overlap
     ethr =  1.00E-02,  avg # of iterations =  6.0

     negative rho (up, down):  4.764E-03 0.000E+00

     total cpu time spent up to now is        6.8 secs

     total energy              =     -35.75019833 Ry
     Harris-Foulkes estimate   =     -44.38357711 Ry
     estimated scf accuracy    <      19.71322392 Ry

     iteration #  8     ecut=    30.00 Ry     beta=0.70
     Davidson diagonalization with overlap
     ethr =  1.00E-02,  avg # of iterations =  5.0

     negative rho (up, down):  6.814E-02 0.000E+00

     total cpu time spent up to now is        6.8 secs

     total energy              =     -36.85999444 Ry
     Harris-Foulkes estimate   =     -36.40505244 Ry
     estimated scf accuracy    <       7.85123302 Ry

     iteration #  9     ecut=    30.00 Ry     beta=0.70
     Davidson diagonalization with overlap
     ethr =  1.00E-02,  avg # of iterations =  1.0

     negative rho (up, down):  1.437E-02 0.000E+00

     total cpu time spent up to now is        6.9 secs

     total energy              =     -34.40772605 Ry
     Harris-Foulkes estimate   =     -36.86344326 Ry
     estimated scf accuracy    <       8.34987494 Ry

     iteration # 10     ecut=    30.00 Ry     beta=0.70
     Davidson diagonalization with overlap
     ethr =  1.00E-02,  avg # of iterations =  2.0

     negative rho (up, down):  1.678E-01 0.000E+00

     total cpu time spent up to now is        6.9 secs

     total energy              =     -31.13384523 Ry
     Harris-Foulkes estimate   =     -34.48483047 Ry
     estimated scf accuracy    <       4.93025159 Ry

     iteration # 11     ecut=    30.00 Ry     beta=0.70
     Davidson diagonalization with overlap
     ethr =  1.00E-02,  avg # of iterations = 10.0

     negative rho (up, down):  5.869E-02 0.000E+00

     total cpu time spent up to now is        6.9 secs

     total energy              =      -1.25011645 Ry
     Harris-Foulkes estimate   =     -36.87085235 Ry
     estimated scf accuracy    <       9.22312296 Ry

     iteration # 12     ecut=    30.00 Ry     beta=0.70
     Davidson diagonalization with overlap
     ethr =  1.00E-02,  avg # of iterations =  5.0

     negative rho (up, down):  8.951E-01 0.000E+00

     total cpu time spent up to now is        7.0 secs

     total energy              =     -30.67621118 Ry
     Harris-Foulkes estimate   =     -35.18033114 Ry
     estimated scf accuracy    <       9.14683882 Ry

     iteration # 13     ecut=    30.00 Ry     beta=0.70
     Davidson diagonalization with overlap
     ethr =  1.00E-02,  avg # of iterations = 16.0

     negative rho (up, down):  7.714E-01 0.000E+00

     total cpu time spent up to now is        7.0 secs

     total energy              =     -44.43881453 Ry
     Harris-Foulkes estimate   =     -39.75377586 Ry
     estimated scf accuracy    <      27.24033991 Ry

     iteration # 14     ecut=    30.00 Ry     beta=0.70
     Davidson diagonalization with overlap
     ethr =  1.00E-02,  avg # of iterations =  6.0

     negative rho (up, down):  4.241E-01 0.000E+00

     total cpu time spent up to now is        7.1 secs

     total energy              =      25.64699671 Ry
     Harris-Foulkes estimate   =    -216.65962918 Ry
     estimated scf accuracy    <      77.62060832 Ry

     iteration # 15     ecut=    30.00 Ry     beta=0.70
     Davidson diagonalization with overlap
     ethr =  1.00E-02,  avg # of iterations =  5.0

     negative rho (up, down):  2.385E-01 0.000E+00

     total cpu time spent up to now is        7.1 secs

     total energy              =      70.80473655 Ry
     Harris-Foulkes estimate   =    -265.67667920 Ry
     estimated scf accuracy    <      73.21397620 Ry

     iteration # 16     ecut=    30.00 Ry     beta=0.70
     Davidson diagonalization with overlap
     ethr =  1.00E-02,  avg # of iterations =  8.0

     negative rho (up, down):  1.063E-01 0.000E+00

     total cpu time spent up to now is        7.2 secs

     total energy              =     -26.16046182 Ry
     Harris-Foulkes estimate   =     -36.95128484 Ry
     estimated scf accuracy    <       6.48078114 Ry

     iteration # 17     ecut=    30.00 Ry     beta=0.70
     Davidson diagonalization with overlap
     ethr =  1.00E-02,  avg # of iterations =  7.0

     negative rho (up, down):  1.155E-01 0.000E+00

     total cpu time spent up to now is        7.2 secs

     total energy              =      -2.59363244 Ry
     Harris-Foulkes estimate   =    -136.61023980 Ry
     estimated scf accuracy    <       6.68309806 Ry

     iteration # 18     ecut=    30.00 Ry     beta=0.70
     Davidson diagonalization with overlap
     ethr =  1.00E-02,  avg # of iterations =  6.0

     negative rho (up, down):  1.497E-01 0.000E+00

     total cpu time spent up to now is        7.3 secs

     total energy              =    -111.07535993 Ry
     Harris-Foulkes estimate   =    -220.49761085 Ry
     estimated scf accuracy    <      57.70371426 Ry

     iteration # 19     ecut=    30.00 Ry     beta=0.70
     Davidson diagonalization with overlap
     ethr =  1.00E-02,  avg # of iterations =  5.0

     negative rho (up, down):  7.792E-01 0.000E+00

     total cpu time spent up to now is        7.3 secs

     total energy              =      47.51333815 Ry
     Harris-Foulkes estimate   =   -1183.68787848 Ry
     estimated scf accuracy    <      60.57903104 Ry

     iteration # 20     ecut=    30.00 Ry     beta=0.70
     Davidson diagonalization with overlap
     ethr =  1.00E-02,  avg # of iterations =  8.0

     negative rho (up, down):  4.071E-01 0.000E+00

     total cpu time spent up to now is        7.4 secs

     total energy              =      86.48946855 Ry
     Harris-Foulkes estimate   =    -443.91281445 Ry
     estimated scf accuracy    <      57.70983874 Ry

     iteration # 21     ecut=    30.00 Ry     beta=0.70
     Davidson diagonalization with overlap
     ethr =  1.00E-02,  avg # of iterations =  7.0

     negative rho (up, down):  7.111E-01 0.000E+00

     total cpu time spent up to now is        7.4 secs

     total energy              =      50.68658279 Ry
     Harris-Foulkes estimate   =    -284.53234710 Ry
     estimated scf accuracy    <      56.41234772 Ry

     iteration # 22     ecut=    30.00 Ry     beta=0.70
     Davidson diagonalization with overlap
     ethr =  1.00E-02,  avg # of iterations = 11.0

     negative rho (up, down):  5.782E-01 0.000E+00

     total cpu time spent up to now is        7.5 secs

     total energy              =    -940.69459978 Ry
     Harris-Foulkes estimate   =    -534.41049104 Ry
     estimated scf accuracy    <      49.94309654 Ry

     iteration # 23     ecut=    30.00 Ry     beta=0.70
     Davidson diagonalization with overlap
     ethr =  1.00E-02,  avg # of iterations = 10.0

     negative rho (up, down):  6.295E-01 0.000E+00

     total cpu time spent up to now is        7.6 secs

     total energy              =      32.94694815 Ry
     Harris-Foulkes estimate   =   -4073.22874720 Ry
     estimated scf accuracy    <      56.64820785 Ry

     iteration # 24     ecut=    30.00 Ry     beta=0.70
     Davidson diagonalization with overlap
     ethr =  1.00E-02,  avg # of iterations =  7.0

     negative rho (up, down):  6.738E-01 0.000E+00

     total cpu time spent up to now is        7.6 secs

     total energy              =     -53.02374600 Ry
     Harris-Foulkes estimate   =    -749.72519831 Ry
     estimated scf accuracy    <      54.62955615 Ry

     iteration # 25     ecut=    30.00 Ry     beta=0.70
     Davidson diagonalization with overlap
     ethr =  1.00E-02,  avg # of iterations = 10.0

     negative rho (up, down):  1.082E+00 0.000E+00

     total cpu time spent up to now is        7.7 secs

     total energy              =      54.50440160 Ry
     Harris-Foulkes estimate   =  -11814.56775835 Ry
     estimated scf accuracy    <      55.57943433 Ry

     iteration # 26     ecut=    30.00 Ry     beta=0.70
     Davidson diagonalization with overlap
     ethr =  1.00E-02,  avg # of iterations =  8.0

     negative rho (up, down):  1.472E+00 0.000E+00

     total cpu time spent up to now is        7.7 secs

     total energy              =     -83.29980588 Ry
     Harris-Foulkes estimate   =   -3362.84063610 Ry
     estimated scf accuracy    <      49.48804944 Ry

     iteration # 27     ecut=    30.00 Ry     beta=0.70
     Davidson diagonalization with overlap
     ethr =  1.00E-02,  avg # of iterations =  7.0

     negative rho (up, down):  1.302E+00 0.000E+00

     total cpu time spent up to now is        7.8 secs

     total energy              =    1337.88095119 Ry
     Harris-Foulkes estimate   =   -1452.48889895 Ry
     estimated scf accuracy    <      20.07315076 Ry

     iteration # 28     ecut=    30.00 Ry     beta=0.70
     Davidson diagonalization with overlap
     ethr =  1.00E-02,  avg # of iterations =  7.0

     negative rho (up, down):  6.862E-01 0.000E+00

     total cpu time spent up to now is        7.9 secs

     total energy              =     136.47975212 Ry
     Harris-Foulkes estimate   =   -6152.54671196 Ry
     estimated scf accuracy    <      15.08420819 Ry

     iteration # 29     ecut=    30.00 Ry     beta=0.70
     Davidson diagonalization with overlap
     ethr =  1.00E-02,  avg # of iterations =  7.0

     negative rho (up, down):  5.358E-01 0.000E+00

     total cpu time spent up to now is        7.9 secs

     total energy              =     254.85334564 Ry
     Harris-Foulkes estimate   =    -997.11795104 Ry
     estimated scf accuracy    <      19.33009508 Ry

     iteration # 30     ecut=    30.00 Ry     beta=0.70
     Davidson diagonalization with overlap
     ethr =  1.00E-02,  avg # of iterations =  7.0

     negative rho (up, down):  6.048E-01 0.000E+00

     total cpu time spent up to now is        8.0 secs

     total energy              =      78.40354907 Ry
     Harris-Foulkes estimate   =   -3980.46225024 Ry
     estimated scf accuracy    <      29.09304368 Ry

     iteration # 31     ecut=    30.00 Ry     beta=0.70
     Davidson diagonalization with overlap
     ethr =  1.00E-02,  avg # of iterations =  6.0

     negative rho (up, down):  2.612E-01 0.000E+00

     total cpu time spent up to now is        8.0 secs

     total energy              =    -126.93063633 Ry
     Harris-Foulkes estimate   =   -3485.36886608 Ry
     estimated scf accuracy    <      25.21835758 Ry

     iteration # 32     ecut=    30.00 Ry     beta=0.70
     Davidson diagonalization with overlap
     ethr =  1.00E-02,  avg # of iterations =  9.0

     negative rho (up, down):  1.355E-01 0.000E+00

     total cpu time spent up to now is        8.1 secs

     total energy              =      51.35441388 Ry
     Harris-Foulkes estimate   =   -7811.91488129 Ry
     estimated scf accuracy    <      24.34561026 Ry

     iteration # 33     ecut=    30.00 Ry     beta=0.70
     Davidson diagonalization with overlap
     ethr =  1.00E-02,  avg # of iterations = 12.0

     negative rho (up, down):  3.747E-02 0.000E+00

     total cpu time spent up to now is        8.2 secs

     total energy              =      27.59471465 Ry
     Harris-Foulkes estimate   =    -241.93411661 Ry
     estimated scf accuracy    <      35.80183657 Ry

     iteration # 34     ecut=    30.00 Ry     beta=0.70
     Davidson diagonalization with overlap
     ethr =  1.00E-02,  avg # of iterations =  5.0

     negative rho (up, down):  2.674E-02 0.000E+00

     total cpu time spent up to now is        8.2 secs

     total energy              =     -28.72776330 Ry
     Harris-Foulkes estimate   =    -408.61093250 Ry
[...]

     total cpu time spent up to now is        9.6 secs

     total energy              =   -2062.97938993 Ry
     Harris-Foulkes estimate   =   -2195.36271527 Ry
     estimated scf accuracy    <      27.02432430 Ry

     iteration # 59     ecut=    30.00 Ry     beta=0.70
     Davidson diagonalization with overlap
     ethr =  1.00E-02,  avg # of iterations =  5.0

     negative rho (up, down):  4.797E-01 0.000E+00

     total cpu time spent up to now is        9.6 secs

     total energy              =    -933.28094170 Ry
     Harris-Foulkes estimate   =   -3868.23392627 Ry
     estimated scf accuracy    <      25.99538225 Ry

     iteration # 60     ecut=    30.00 Ry     beta=0.70
     Davidson diagonalization with overlap
     ethr =  1.00E-02,  avg # of iterations =  7.0

     negative rho (up, down):  5.607E-01 0.000E+00

     total cpu time spent up to now is        9.7 secs

     total energy              =      48.89057495 Ry
     Harris-Foulkes estimate   =  -12311.62118262 Ry
     estimated scf accuracy    <      21.00448490 Ry

     iteration # 61     ecut=    30.00 Ry     beta=0.70
     Davidson diagonalization with overlap
     ethr =  1.00E-02,  avg # of iterations =  6.0

     negative rho (up, down):  5.416E-01 0.000E+00

     total cpu time spent up to now is        9.8 secs

     total energy              =      66.49046436 Ry
     Harris-Foulkes estimate   =   -1505.28226056 Ry
     estimated scf accuracy    <      26.87678508 Ry

     iteration # 62     ecut=    30.00 Ry     beta=0.70
     Davidson diagonalization with overlap
     ethr =  1.00E-02,  avg # of iterations = 11.0

     negative rho (up, down):  3.058E-01 0.000E+00

     total cpu time spent up to now is        9.8 secs

     total energy              =      24.83419560 Ry
     Harris-Foulkes estimate   =    -126.89302746 Ry
     estimated scf accuracy    <      20.12917841 Ry

     iteration # 63     ecut=    30.00 Ry     beta=0.70
     Davidson diagonalization with overlap
     ethr =  1.00E-02,  avg # of iterations = 11.0

     negative rho (up, down):  9.544E-03 0.000E+00

     total cpu time spent up to now is        9.9 secs

     total energy              =      20.26718873 Ry
     Harris-Foulkes estimate   =    -149.82813438 Ry
     estimated scf accuracy    <      12.03858765 Ry

     iteration # 64     ecut=    30.00 Ry     beta=0.70
     Davidson diagonalization with overlap
     ethr =  1.00E-02,  avg # of iterations =  6.0

     negative rho (up, down):  3.036E-03 0.000E+00

     total cpu time spent up to now is        9.9 secs

     total energy              =      -0.90814512 Ry
     Harris-Foulkes estimate   =    -103.02530814 Ry
     estimated scf accuracy    <      11.43192933 Ry

     iteration # 65     ecut=    30.00 Ry     beta=0.70
     Davidson diagonalization with overlap
     ethr =  1.00E-02,  avg # of iterations =  4.0

     negative rho (up, down):  8.892E-04 0.000E+00

     total cpu time spent up to now is       10.0 secs

     total energy              =      -3.25973772 Ry
     Harris-Foulkes estimate   =     -81.73045090 Ry
     estimated scf accuracy    <      14.62566396 Ry

     iteration # 66     ecut=    30.00 Ry     beta=0.70
     Davidson diagonalization with overlap
     ethr =  1.00E-02,  avg # of iterations =  3.0

     negative rho (up, down):  9.607E-03 0.000E+00

     total cpu time spent up to now is       10.0 secs

     total energy              =     -35.26325357 Ry
     Harris-Foulkes estimate   =     -34.69523633 Ry
     estimated scf accuracy    <       7.12218644 Ry

     iteration # 67     ecut=    30.00 Ry     beta=0.70
     Davidson diagonalization with overlap
     ethr =  1.00E-02,  avg # of iterations =  4.0

     negative rho (up, down):  8.486E-03 0.000E+00

     total cpu time spent up to now is       10.1 secs

     total energy              =     -14.03123991 Ry
     Harris-Foulkes estimate   =     -85.78924284 Ry
     estimated scf accuracy    <      16.14831405 Ry

     iteration # 68     ecut=    30.00 Ry     beta=0.70
     Davidson diagonalization with overlap
     ethr =  1.00E-02,  avg # of iterations =  4.0

     negative rho (up, down):  4.023E-03 0.000E+00

     total cpu time spent up to now is       10.1 secs

     total energy              =    -200.00338844 Ry
     Harris-Foulkes estimate   =    -160.78486610 Ry
     estimated scf accuracy    <      10.75849351 Ry

     iteration # 69     ecut=    30.00 Ry     beta=0.70
     Davidson diagonalization with overlap
     ethr =  1.00E-02,  avg # of iterations =  5.0

     negative rho (up, down):  3.101E-02 0.000E+00

     total cpu time spent up to now is       10.2 secs

     total energy              =     193.19148638 Ry
     Harris-Foulkes estimate   =   -1501.59863250 Ry
     estimated scf accuracy    <      17.06204077 Ry

     iteration # 70     ecut=    30.00 Ry     beta=0.70
     Davidson diagonalization with overlap
     ethr =  1.00E-02,  avg # of iterations =  8.0

     negative rho (up, down):  4.766E-03 0.000E+00

     total cpu time spent up to now is       10.2 secs

     total energy              =      30.20534530 Ry
     Harris-Foulkes estimate   =    -670.21632971 Ry
     estimated scf accuracy    <      15.79820019 Ry

     iteration # 71     ecut=    30.00 Ry     beta=0.70
     Davidson diagonalization with overlap
     ethr =  1.00E-02,  avg # of iterations =  5.0

     negative rho (up, down):  1.185E-01 0.000E+00

     total cpu time spent up to now is       10.3 secs

     total energy              =     -52.47117117 Ry
     Harris-Foulkes estimate   =     -35.38218463 Ry
     estimated scf accuracy    <       5.43745253 Ry

     iteration # 72     ecut=    30.00 Ry     beta=0.70
     Davidson diagonalization with overlap
     ethr =  1.00E-02,  avg # of iterations =  8.0

     negative rho (up, down):  1.865E-01 0.000E+00

     total cpu time spent up to now is       10.3 secs

     total energy              =    -925.12439137 Ry
     Harris-Foulkes estimate   =    -292.05445558 Ry
     estimated scf accuracy    <      13.87336218 Ry

     iteration # 73     ecut=    30.00 Ry     beta=0.70
     Davidson diagonalization with overlap
     ethr =  1.00E-02,  avg # of iterations =  4.0

     negative rho (up, down):  1.618E-01 0.000E+00

     total cpu time spent up to now is       10.3 secs

     total energy              =    -126.61262125 Ry
     Harris-Foulkes estimate   =   -2279.34966715 Ry
     estimated scf accuracy    <      26.02184014 Ry

     iteration # 74     ecut=    30.00 Ry     beta=0.70
     Davidson diagonalization with overlap
     ethr =  1.00E-02,  avg # of iterations =  5.0

     negative rho (up, down):  2.024E-01 0.000E+00

     total cpu time spent up to now is       10.4 secs

     total energy              =   -1759.56857051 Ry
     Harris-Foulkes estimate   =   -2042.07356943 Ry
     estimated scf accuracy    <      31.00903822 Ry

     iteration # 75     ecut=    30.00 Ry     beta=0.70
     Davidson diagonalization with overlap
     ethr =  1.00E-02,  avg # of iterations =  9.0

     negative rho (up, down):  2.110E-01 0.000E+00

     total cpu time spent up to now is       10.5 secs

     total energy              =     -79.91561574 Ry
     Harris-Foulkes estimate   =   -3080.31524888 Ry
     estimated scf accuracy    <      15.25858872 Ry

     iteration # 76     ecut=    30.00 Ry     beta=0.70
     Davidson diagonalization with overlap
     ethr =  1.00E-02,  avg # of iterations =  6.0

     negative rho (up, down):  5.717E-02 0.000E+00

     total cpu time spent up to now is       10.5 secs

     total energy              =    -164.69522359 Ry
     Harris-Foulkes estimate   =   -8663.91834128 Ry
     estimated scf accuracy    <      32.58011967 Ry

     iteration # 77     ecut=    30.00 Ry     beta=0.70
     Davidson diagonalization with overlap
     ethr =  1.00E-02,  avg # of iterations =  9.0

     negative rho (up, down):  1.828E-01 0.000E+00

     total cpu time spent up to now is       10.6 secs

     total energy              =      54.30504386 Ry
     Harris-Foulkes estimate   =    -453.25575450 Ry
     estimated scf accuracy    <      31.55185710 Ry

     iteration # 78     ecut=    30.00 Ry     beta=0.70
     Davidson diagonalization with overlap
     ethr =  1.00E-02,  avg # of iterations =  8.0

     negative rho (up, down):  2.339E-01 0.000E+00

     total cpu time spent up to now is       10.6 secs

     total energy              =    -205.87998657 Ry
     Harris-Foulkes estimate   =    -413.77256025 Ry
     estimated scf accuracy    <      28.23533216 Ry

     iteration # 79     ecut=    30.00 Ry     beta=0.70
     Davidson diagonalization with overlap
     ethr =  1.00E-02,  avg # of iterations =  4.0

     negative rho (up, down):  1.838E-01 0.000E+00

     total cpu time spent up to now is       10.7 secs

     total energy              =     -16.70529824 Ry
     Harris-Foulkes estimate   =   -1271.61066793 Ry
     estimated scf accuracy    <      30.64530296 Ry

     iteration # 80     ecut=    30.00 Ry     beta=0.70
     Davidson diagonalization with overlap
     ethr =  1.00E-02,  avg # of iterations =  5.0

     negative rho (up, down):  7.628E-01 0.000E+00

     total cpu time spent up to now is       10.7 secs

     total energy              =     191.78483354 Ry
     Harris-Foulkes estimate   =    -459.11118334 Ry
     estimated scf accuracy    <      23.49443391 Ry

     iteration # 81     ecut=    30.00 Ry     beta=0.70
     Davidson diagonalization with overlap
     ethr =  1.00E-02,  avg # of iterations =  7.0

     negative rho (up, down):  5.697E-01 0.000E+00

     total cpu time spent up to now is       10.8 secs

     total energy              =      74.96944753 Ry
     Harris-Foulkes estimate   =   -1366.61630098 Ry
     estimated scf accuracy    <      27.87388977 Ry

     iteration # 82     ecut=    30.00 Ry     beta=0.70
     Davidson diagonalization with overlap
     ethr =  1.00E-02,  avg # of iterations =  9.0

     negative rho (up, down):  8.133E-01 0.000E+00

     total cpu time spent up to now is       10.8 secs

     total energy              =      47.67194911 Ry
     Harris-Foulkes estimate   =    -863.16927168 Ry
     estimated scf accuracy    <      30.54887551 Ry

     iteration # 83     ecut=    30.00 Ry     beta=0.70
     Davidson diagonalization with overlap
     ethr =  1.00E-02,  avg # of iterations =  7.0

     negative rho (up, down):  6.021E-01 0.000E+00

     total cpu time spent up to now is       10.9 secs

     total energy              =     -15.98950719 Ry
     Harris-Foulkes estimate   =   -1484.14384783 Ry
     estimated scf accuracy    <      21.62900439 Ry

     iteration # 84     ecut=    30.00 Ry     beta=0.70
     Davidson diagonalization with overlap
     ethr =  1.00E-02,  avg # of iterations =  8.0

     negative rho (up, down):  2.531E-01 0.000E+00

     total cpu time spent up to now is       11.0 secs

     total energy              =    -143.40508485 Ry
     Harris-Foulkes estimate   =   -6409.18384211 Ry
     estimated scf accuracy    <      24.75236550 Ry

     iteration # 85     ecut=    30.00 Ry     beta=0.70
     Davidson diagonalization with overlap
     ethr =  1.00E-02,  avg # of iterations =  5.0

     negative rho (up, down):  2.333E-01 0.000E+00

     total cpu time spent up to now is       11.0 secs

     total energy              =      46.03649839 Ry
     Harris-Foulkes estimate   =   -3715.92472920 Ry
     estimated scf accuracy    <      14.87059461 Ry

     iteration # 86     ecut=    30.00 Ry     beta=0.70
     Davidson diagonalization with overlap
     ethr =  1.00E-02,  avg # of iterations =  9.0

     negative rho (up, down):  2.288E-01 0.000E+00

     total cpu time spent up to now is       11.1 secs

     total energy              =      56.14459758 Ry
     Harris-Foulkes estimate   =    -687.80410550 Ry
     estimated scf accuracy    <      22.75263950 Ry

     iteration # 87     ecut=    30.00 Ry     beta=0.70
     Davidson diagonalization with overlap
     ethr =  1.00E-02,  avg # of iterations =  7.0

     negative rho (up, down):  1.137E-03 0.000E+00

     total cpu time spent up to now is       11.1 secs

     total energy              =      85.71608900 Ry
     Harris-Foulkes estimate   =    -454.85172910 Ry
     estimated scf accuracy    <      22.24868405 Ry

     iteration # 88     ecut=    30.00 Ry     beta=0.70
     Davidson diagonalization with overlap
     ethr =  1.00E-02,  avg # of iterations = 12.0

     negative rho (up, down):  1.032E-05 0.000E+00

     total cpu time spent up to now is       11.2 secs

     total energy              =     -13.71981856 Ry
     Harris-Foulkes estimate   =     -61.47888233 Ry
     estimated scf accuracy    <      23.70723746 Ry

     iteration # 89     ecut=    30.00 Ry     beta=0.70
     Davidson diagonalization with overlap
     ethr =  1.00E-02,  avg # of iterations =  6.0

     negative rho (up, down):  8.802E-05 0.000E+00

     total cpu time spent up to now is       11.3 secs

     total energy              =     -40.22257128 Ry
     Harris-Foulkes estimate   =     -41.82904100 Ry
     estimated scf accuracy    <      17.64977890 Ry

     iteration # 90     ecut=    30.00 Ry     beta=0.70
     Davidson diagonalization with overlap
     ethr =  1.00E-02,  avg # of iterations =  1.0

     negative rho (up, down):  2.294E-05 0.000E+00

     total cpu time spent up to now is       11.3 secs

     total energy              =     -39.37643396 Ry
     Harris-Foulkes estimate   =     -40.35635858 Ry
     estimated scf accuracy    <      14.79474090 Ry

     iteration # 91     ecut=    30.00 Ry     beta=0.70
     Davidson diagonalization with overlap
     ethr =  1.00E-02,  avg # of iterations =  1.0

     negative rho (up, down):  2.573E-01 0.000E+00

     total cpu time spent up to now is       11.3 secs

     total energy              =     -25.65085115 Ry
     Harris-Foulkes estimate   =     -39.98901721 Ry
     estimated scf accuracy    <      14.77758495 Ry

     iteration # 92     ecut=    30.00 Ry     beta=0.70
     Davidson diagonalization with overlap
     ethr =  1.00E-02,  avg # of iterations =  7.0

     negative rho (up, down):  2.555E-01 0.000E+00

     total cpu time spent up to now is       11.4 secs

     total energy              =      36.33937305 Ry
     Harris-Foulkes estimate   =    -229.99338385 Ry
     estimated scf accuracy    <      23.27401906 Ry

     iteration # 93     ecut=    30.00 Ry     beta=0.70
     Davidson diagonalization with overlap
     ethr =  1.00E-02,  avg # of iterations =  8.0

     negative rho (up, down):  1.981E-01 0.000E+00

     total cpu time spent up to now is       11.4 secs

     total energy              =      68.38951576 Ry
     Harris-Foulkes estimate   =    -416.03933263 Ry
     estimated scf accuracy    <      25.40892730 Ry

     iteration # 94     ecut=    30.00 Ry     beta=0.70
     Davidson diagonalization with overlap
     ethr =  1.00E-02,  avg # of iterations =  4.0

     negative rho (up, down):  3.159E-01 0.000E+00

     total cpu time spent up to now is       11.5 secs

     total energy              =      75.87642124 Ry
     Harris-Foulkes estimate   =    -693.89284417 Ry
     estimated scf accuracy    <      19.29212206 Ry

     iteration # 95     ecut=    30.00 Ry     beta=0.70
     Davidson diagonalization with overlap
     ethr =  1.00E-02,  avg # of iterations =  5.0

     negative rho (up, down):  3.744E-01 0.000E+00

     total cpu time spent up to now is       11.5 secs

     total energy              =      16.97155415 Ry
     Harris-Foulkes estimate   =    -920.76841460 Ry
     estimated scf accuracy    <      23.54783625 Ry

     iteration # 96     ecut=    30.00 Ry     beta=0.70
     Davidson diagonalization with overlap
     ethr =  1.00E-02,  avg # of iterations =  5.0

     negative rho (up, down):  2.520E-08 0.000E+00

     total cpu time spent up to now is       11.6 secs

     total energy              =     107.64235129 Ry
     Harris-Foulkes estimate   =   -6638.00356459 Ry
     estimated scf accuracy    <      19.82520038 Ry

     iteration # 97     ecut=    30.00 Ry     beta=0.70
     Davidson diagonalization with overlap
     ethr =  1.00E-02,  avg # of iterations = 11.0

     negative rho (up, down):  1.465E-02 0.000E+00

     total cpu time spent up to now is       11.7 secs

     total energy              =     -33.47256901 Ry
     Harris-Foulkes estimate   =     -36.36323683 Ry
     estimated scf accuracy    <      10.84967394 Ry

     iteration # 98     ecut=    30.00 Ry     beta=0.70
     Davidson diagonalization with overlap
     ethr =  1.00E-02,  avg # of iterations =  5.0

     total cpu time spent up to now is       11.7 secs

     total energy              =       2.90989306 Ry
     Harris-Foulkes estimate   =     -54.18811329 Ry
     estimated scf accuracy    <      12.95178284 Ry

     iteration # 99     ecut=    30.00 Ry     beta=0.70
     Davidson diagonalization with overlap
     ethr =  1.00E-02,  avg # of iterations =  5.0

     negative rho (up, down):  9.405E-04 0.000E+00

     total cpu time spent up to now is       11.8 secs

     total energy              =     -34.63918877 Ry
     Harris-Foulkes estimate   =     -35.94807925 Ry
     estimated scf accuracy    <      12.28692930 Ry

     iteration #100     ecut=    30.00 Ry     beta=0.70
     Davidson diagonalization with overlap
     ethr =  1.00E-02,  avg # of iterations =  1.0

     total cpu time spent up to now is       11.8 secs

     total energy              =     -34.76973387 Ry
     Harris-Foulkes estimate   =     -35.09103165 Ry
     estimated scf accuracy    <       7.99716667 Ry

     End of self-consistent calculation

     convergence NOT achieved after 100 iterations: stopping

     Writing output data file pwscf.save
 
     init_run     :      0.09s CPU      0.11s WALL (       1 calls)
     electrons    :      8.86s CPU     10.82s WALL (       4 calls)
     update_pot   :      0.32s CPU      0.48s WALL (       3 calls)
     forces       :      0.09s CPU      0.10s WALL (       3 calls)

     Called by init_run:
     wfcinit      :      0.01s CPU      0.02s WALL (       1 calls)
     potinit      :      0.02s CPU      0.03s WALL (       1 calls)

     Called by electrons:
     c_bands      :      4.40s CPU      4.59s WALL (     242 calls)
     sum_band     :      0.70s CPU      0.76s WALL (     242 calls)
     v_of_rho     :      1.75s CPU      1.84s WALL (     246 calls)
     mix_rho      :      1.80s CPU      3.06s WALL (     242 calls)

     Called by c_bands:
     init_us_2    :      0.02s CPU      0.03s WALL (     485 calls)
     cegterg      :      4.35s CPU      4.46s WALL (     243 calls)

     Called by sum_band:

     Called by *egterg:
     h_psi        :      3.67s CPU      3.76s WALL (    1212 calls)
     g_psi        :      0.04s CPU      0.04s WALL (     968 calls)
     cdiaghg      :      0.25s CPU      0.25s WALL (    1207 calls)

     Called by h_psi:
     h_psi:pot    :      3.65s CPU      3.74s WALL (    1212 calls)
     h_psi:calbec :      0.10s CPU      0.10s WALL (    1212 calls)
     vloc_psi     :      3.54s CPU      3.62s WALL (    1212 calls)
     add_vuspsi   :      0.01s CPU      0.01s WALL (    1212 calls)

     General routines
     calbec       :      0.11s CPU      0.12s WALL (    1226 calls)
     fft          :      1.14s CPU      1.21s WALL (    2712 calls)
     fftw         :      3.64s CPU      3.76s WALL (   16276 calls)
     davcio       :      0.28s CPU      1.05s WALL (    4497 calls)
 
     Parallel routines
     fft_scatter  :      1.87s CPU      1.99s WALL (   18988 calls)
 
     PWSCF        :     9.52s CPU        11.87s WALL

 
   This run was terminated on:   8:48:21  14Feb2018            

=------------------------------------------------------------------------------=
   JOB DONE.
=------------------------------------------------------------------------------=
