
     Program PWSCF v.6.0 (svn rev. 13079) starts on 14Feb2018 at  8:51: 3 

     This program is part of the open-source Quantum ESPRESSO suite
     for quantum simulation of materials; please cite
         "P. Giannozzi et al., J. Phys.:Condens. Matter 21 395502 (2009);
          URL http://www.quantum-espresso.org", 
     in publications or presentations arising from this work. More details at
     http://www.quantum-espresso.org/quote

     Parallel version (MPI), running on    28 processors
     R & G space division:  proc/nbgrp/npool/nimage =      28
     Reading input from inputs/MD-H2O-2/470.in

     Current dimensions of program PWSCF are:
     Max number of different atomic species (ntypx) = 10
     Max number of k-points (npk) =  40000
     Max angular momentum in pseudopotentials (lmaxx) =  3

     Subspace diagonalization in iterative solution of the eigenvalue problem:
     a serial algorithm will be used

 
     Parallelization info
     --------------------
     sticks:   dense  smooth     PW     G-vecs:    dense   smooth      PW
     Min         136     136     33                 6338     6338     787
     Max         137     137     34                 6341     6341     792
     Sum        3809    3809    949               177509   177509   22119
 


     bravais-lattice index     =            1
     lattice parameter (alat)  =      20.0000  a.u.
     unit-cell volume          =    8000.0000 (a.u.)^3
     number of atoms/cell      =            3
     number of atomic types    =            2
     number of electrons       =         8.00
     number of Kohn-Sham states=            8
     kinetic-energy cutoff     =      30.0000  Ry
     charge density cutoff     =     120.0000  Ry
     convergence threshold     =      1.0E-08
     mixing beta               =       0.7000
     number of iterations used =            8  plain     mixing
     Exchange-correlation      = BLYP ( 1  3  1  3 0 0)
     nstep                     =         5000


     celldm(1)=  20.000000  celldm(2)=   0.000000  celldm(3)=   0.000000
     celldm(4)=   0.000000  celldm(5)=   0.000000  celldm(6)=   0.000000

     crystal axes: (cart. coord. in units of alat)
               a(1) = (   1.000000   0.000000   0.000000 )  
               a(2) = (   0.000000   1.000000   0.000000 )  
               a(3) = (   0.000000   0.000000   1.000000 )  

     reciprocal axes: (cart. coord. in units 2 pi/alat)
               b(1) = (  1.000000  0.000000  0.000000 )  
               b(2) = (  0.000000  1.000000  0.000000 )  
               b(3) = (  0.000000  0.000000  1.000000 )  


     PseudoPot. # 1 for  H read from file:
     ./H.blyp-hgh.UPF
     MD5 check sum: c576e69559cde411e611be972c763230
     Pseudo is Norm-conserving, Zval =  1.0
     Generated in analytical, separable form
     Using radial grid of  929 points,  0 beta functions with: 

     PseudoPot. # 2 for  O read from file:
     ./O.blyp-hgh.UPF
     MD5 check sum: d0b7156309aa9befef28faac7bc56342
     Pseudo is Norm-conserving, Zval =  6.0
     Generated in analytical, separable form
     Using radial grid of 1095 points,  1 beta functions with: 
                l(1) =   0

     atomic species   valence    mass     pseudopotential
        H              1.00     1.01000      H( 1.00)
        O              6.00    16.00000      O( 1.00)

     No symmetry found



   Cartesian axes

     site n.     atom                  positions (alat units)
         1           H   tau(   1) = (   0.3931411   0.6354384   0.5210708  )
         2           H   tau(   2) = (   0.6220692   0.0940674   0.5192394  )
         3           O   tau(   3) = (   0.4334247   0.5943029   0.4399825  )

     number of k points=     1  Marzari-Vanderbilt smearing, width (Ry)=  0.0250
                       cart. coord. in units 2pi/alat
        k(    1) = (   0.0000000   0.0000000   0.0000000), wk =   2.0000000

     Dense  grid:   177509 G-vectors     FFT dimensions: (  72,  72,  72)

     Estimated max dynamical RAM per process >       6.09Mb

     Estimated total allocated dynamical RAM >     170.64Mb

     Initial potential from superposition of free atoms
     Check: negative starting charge=   -0.346613

     starting charge    7.99998, renormalised to    8.00000

     negative rho (up, down):  3.466E-01 0.000E+00
     Starting wfc are    6 randomized atomic wfcs +    2 random wfc

     total cpu time spent up to now is        0.2 secs

     per-process dynamical memory:    18.8 Mb

     Self-consistent Calculation

     iteration #  1     ecut=    30.00 Ry     beta=0.70
     Davidson diagonalization with overlap
     ethr =  1.00E-02,  avg # of iterations =  6.0

     negative rho (up, down):  9.014E-02 0.000E+00

     total cpu time spent up to now is        0.3 secs

     total energy              =     -30.39100940 Ry
     Harris-Foulkes estimate   =     -32.23693257 Ry
     estimated scf accuracy    <       2.12332360 Ry

     iteration #  2     ecut=    30.00 Ry     beta=0.70
     Davidson diagonalization with overlap
     ethr =  1.00E-02,  avg # of iterations =  3.0

     negative rho (up, down):  6.560E-02 0.000E+00

     total cpu time spent up to now is        0.3 secs

     total energy              =     -32.27460220 Ry
     Harris-Foulkes estimate   =     -34.51325779 Ry
     estimated scf accuracy    <       5.46142384 Ry

     iteration #  3     ecut=    30.00 Ry     beta=0.70
     Davidson diagonalization with overlap
     ethr =  1.00E-02,  avg # of iterations =  3.0

     negative rho (up, down):  6.306E-02 0.000E+00

     total cpu time spent up to now is        0.4 secs

     total energy              =     -32.42272305 Ry
     Harris-Foulkes estimate   =     -32.50717064 Ry
     estimated scf accuracy    <       1.76357970 Ry

     iteration #  4     ecut=    30.00 Ry     beta=0.70
     Davidson diagonalization with overlap
     ethr =  1.00E-02,  avg # of iterations =  1.0

     negative rho (up, down):  1.174E-02 0.000E+00

     total cpu time spent up to now is        0.4 secs

     total energy              =     -31.31352143 Ry
     Harris-Foulkes estimate   =     -32.42304632 Ry
     estimated scf accuracy    <       1.64651529 Ry

     iteration #  5     ecut=    30.00 Ry     beta=0.70
     Davidson diagonalization with overlap
     ethr =  1.00E-02,  avg # of iterations =  3.0

     negative rho (up, down):  2.056E-02 0.000E+00

     total cpu time spent up to now is        0.4 secs

     total energy              =     -33.29530255 Ry
     Harris-Foulkes estimate   =     -33.17964067 Ry
     estimated scf accuracy    <       7.18365663 Ry

     iteration #  6     ecut=    30.00 Ry     beta=0.70
     Davidson diagonalization with overlap
     ethr =  1.00E-02,  avg # of iterations =  1.0

     negative rho (up, down):  1.447E-02 0.000E+00

     total cpu time spent up to now is        0.5 secs

     total energy              =     -32.78787881 Ry
     Harris-Foulkes estimate   =     -33.30588785 Ry
     estimated scf accuracy    <       8.94213695 Ry

     iteration #  7     ecut=    30.00 Ry     beta=0.70
     Davidson diagonalization with overlap
     ethr =  1.00E-02,  avg # of iterations =  1.0

     negative rho (up, down):  1.868E-02 0.000E+00

     total cpu time spent up to now is        0.5 secs

     total energy              =     -32.68660670 Ry
     Harris-Foulkes estimate   =     -32.92980027 Ry
     estimated scf accuracy    <       3.02577142 Ry

     iteration #  8     ecut=    30.00 Ry     beta=0.70
     Davidson diagonalization with overlap
     ethr =  1.00E-02,  avg # of iterations =  1.0

     negative rho (up, down):  4.019E-02 0.000E+00

     total cpu time spent up to now is        0.5 secs

     total energy              =     -32.28967326 Ry
     Harris-Foulkes estimate   =     -32.69072406 Ry
     estimated scf accuracy    <       2.54492529 Ry

     iteration #  9     ecut=    30.00 Ry     beta=0.70
     Davidson diagonalization with overlap
     ethr =  1.00E-02,  avg # of iterations =  1.0

     negative rho (up, down):  3.369E-02 0.000E+00

     total cpu time spent up to now is        0.6 secs

     total energy              =     -32.02198028 Ry
     Harris-Foulkes estimate   =     -32.30106670 Ry
     estimated scf accuracy    <       1.80188703 Ry

     iteration # 10     ecut=    30.00 Ry     beta=0.70
     Davidson diagonalization with overlap
     ethr =  1.00E-02,  avg # of iterations =  1.0

     negative rho (up, down):  3.263E-02 0.000E+00

     total cpu time spent up to now is        0.6 secs

     total energy              =     -32.30702492 Ry
     Harris-Foulkes estimate   =     -32.02956795 Ry
     estimated scf accuracy    <       1.31178581 Ry

     iteration # 11     ecut=    30.00 Ry     beta=0.70
     Davidson diagonalization with overlap
     ethr =  1.00E-02,  avg # of iterations =  1.0

     negative rho (up, down):  7.137E-03 0.000E+00

     total cpu time spent up to now is        0.6 secs

     total energy              =     -32.08923333 Ry
     Harris-Foulkes estimate   =     -32.31294227 Ry
     estimated scf accuracy    <       1.78795269 Ry

     iteration # 12     ecut=    30.00 Ry     beta=0.70
     Davidson diagonalization with overlap
     ethr =  1.00E-02,  avg # of iterations =  1.0

     negative rho (up, down):  3.267E-01 0.000E+00

     total cpu time spent up to now is        0.7 secs

     total energy              =     -32.08970567 Ry
     Harris-Foulkes estimate   =     -32.09291435 Ry
     estimated scf accuracy    <       1.41555695 Ry

     iteration # 13     ecut=    30.00 Ry     beta=0.70
     Davidson diagonalization with overlap
     ethr =  1.00E-02,  avg # of iterations =  1.0

     negative rho (up, down):  5.405E-01 0.000E+00

     total cpu time spent up to now is        0.7 secs

     total energy              =     -30.90074015 Ry
     Harris-Foulkes estimate   =     -32.10591148 Ry
     estimated scf accuracy    <       1.54130420 Ry

     iteration # 14     ecut=    30.00 Ry     beta=0.70
     Davidson diagonalization with overlap
     ethr =  1.00E-02,  avg # of iterations =  4.0

     negative rho (up, down):  6.516E-04 0.000E+00

     total cpu time spent up to now is        0.7 secs

     total energy              =     -32.30367379 Ry
     Harris-Foulkes estimate   =     -34.77330164 Ry
     estimated scf accuracy    <       5.71846171 Ry

     iteration # 15     ecut=    30.00 Ry     beta=0.70
     Davidson diagonalization with overlap
     ethr =  1.00E-02,  avg # of iterations =  2.0

     negative rho (up, down):  2.583E-04 0.000E+00

     total cpu time spent up to now is        0.8 secs

     total energy              =     -32.24215823 Ry
     Harris-Foulkes estimate   =     -32.53639107 Ry
     estimated scf accuracy    <       1.73019752 Ry

     iteration # 16     ecut=    30.00 Ry     beta=0.70
     Davidson diagonalization with overlap
     ethr =  1.00E-02,  avg # of iterations =  1.0

     negative rho (up, down):  8.618E-06 0.000E+00

     total cpu time spent up to now is        0.8 secs

     total energy              =     -32.10919140 Ry
     Harris-Foulkes estimate   =     -32.23738029 Ry
     estimated scf accuracy    <       1.29919156 Ry

     iteration # 17     ecut=    30.00 Ry     beta=0.70
     Davidson diagonalization with overlap
     ethr =  1.00E-02,  avg # of iterations =  1.0

     negative rho (up, down):  1.442E-05 0.000E+00

     total cpu time spent up to now is        0.8 secs

     total energy              =     -32.11706822 Ry
     Harris-Foulkes estimate   =     -32.10991943 Ry
     estimated scf accuracy    <       1.11087215 Ry

     iteration # 18     ecut=    30.00 Ry     beta=0.70
     Davidson diagonalization with overlap
     ethr =  1.00E-02,  avg # of iterations =  1.0

     negative rho (up, down):  1.031E-05 0.000E+00

     total cpu time spent up to now is        0.9 secs

     total energy              =     -32.14388601 Ry
     Harris-Foulkes estimate   =     -32.11708448 Ry
     estimated scf accuracy    <       1.12074344 Ry

     iteration # 19     ecut=    30.00 Ry     beta=0.70
     Davidson diagonalization with overlap
     ethr =  1.00E-02,  avg # of iterations =  1.0

     negative rho (up, down):  2.662E-04 0.000E+00

     total cpu time spent up to now is        0.9 secs

     total energy              =     -32.17671396 Ry
     Harris-Foulkes estimate   =     -32.14391719 Ry
     estimated scf accuracy    <       1.16028564 Ry

     iteration # 20     ecut=    30.00 Ry     beta=0.70
     Davidson diagonalization with overlap
     ethr =  1.00E-02,  avg # of iterations =  1.0

     negative rho (up, down):  5.052E-04 0.000E+00

     total cpu time spent up to now is        0.9 secs

     total energy              =     -32.21184546 Ry
     Harris-Foulkes estimate   =     -32.17677031 Ry
     estimated scf accuracy    <       1.21033560 Ry

     iteration # 21     ecut=    30.00 Ry     beta=0.70
     Davidson diagonalization with overlap
     ethr =  1.00E-02,  avg # of iterations =  1.0

     negative rho (up, down):  4.200E-04 0.000E+00

     total cpu time spent up to now is        1.0 secs

     total energy              =     -32.28490468 Ry
     Harris-Foulkes estimate   =     -32.21190256 Ry
     estimated scf accuracy    <       1.25276360 Ry

     iteration # 22     ecut=    30.00 Ry     beta=0.70
     Davidson diagonalization with overlap
     ethr =  1.00E-02,  avg # of iterations =  1.0

     negative rho (up, down):  3.806E-02 0.000E+00

     total cpu time spent up to now is        1.0 secs

     total energy              =     -31.29413941 Ry
     Harris-Foulkes estimate   =     -32.28513168 Ry
     estimated scf accuracy    <       1.35970941 Ry

     iteration # 23     ecut=    30.00 Ry     beta=0.70
     Davidson diagonalization with overlap
     ethr =  1.00E-02,  avg # of iterations =  3.0

     total cpu time spent up to now is        1.0 secs

     total energy              =     -32.94794808 Ry
     Harris-Foulkes estimate   =     -33.52382000 Ry
     estimated scf accuracy    <      10.43473915 Ry

     iteration # 24     ecut=    30.00 Ry     beta=0.70
     Davidson diagonalization with overlap
     ethr =  1.00E-02,  avg # of iterations =  1.0

     total cpu time spent up to now is        1.1 secs

     total energy              =     -32.69709913 Ry
     Harris-Foulkes estimate   =     -33.12594206 Ry
     estimated scf accuracy    <       3.43184268 Ry

     iteration # 25     ecut=    30.00 Ry     beta=0.70
     Davidson diagonalization with overlap
     ethr =  1.00E-02,  avg # of iterations =  1.0

     negative rho (up, down):  6.214E-04 0.000E+00

     total cpu time spent up to now is        1.1 secs

     total energy              =     -32.39669778 Ry
     Harris-Foulkes estimate   =     -32.70719590 Ry
     estimated scf accuracy    <       2.55692675 Ry

     iteration # 26     ecut=    30.00 Ry     beta=0.70
     Davidson diagonalization with overlap
     ethr =  1.00E-02,  avg # of iterations =  1.0

     negative rho (up, down):  2.438E-04 0.000E+00

     total cpu time spent up to now is        1.1 secs

     total energy              =     -32.19277145 Ry
     Harris-Foulkes estimate   =     -32.40426474 Ry
     estimated scf accuracy    <       1.97731428 Ry

     iteration # 27     ecut=    30.00 Ry     beta=0.70
     Davidson diagonalization with overlap
     ethr =  1.00E-02,  avg # of iterations =  1.0

     negative rho (up, down):  2.127E-06 0.000E+00

     total cpu time spent up to now is        1.2 secs

     total energy              =     -31.98232981 Ry
     Harris-Foulkes estimate   =     -32.19746705 Ry
     estimated scf accuracy    <       1.59651950 Ry

     iteration # 28     ecut=    30.00 Ry     beta=0.70
     Davidson diagonalization with overlap
     ethr =  1.00E-02,  avg # of iterations =  1.0

     total cpu time spent up to now is        1.2 secs

     total energy              =     -31.74332029 Ry
     Harris-Foulkes estimate   =     -31.98507109 Ry
     estimated scf accuracy    <       1.59164235 Ry

     iteration # 29     ecut=    30.00 Ry     beta=0.70
     Davidson diagonalization with overlap
     ethr =  1.00E-02,  avg # of iterations =  1.0

     total cpu time spent up to now is        1.2 secs

     total energy              =     -31.96390911 Ry
     Harris-Foulkes estimate   =     -32.08071898 Ry
     estimated scf accuracy    <       1.05138769 Ry

     iteration # 30     ecut=    30.00 Ry     beta=0.70
     Davidson diagonalization with overlap
     ethr =  1.00E-02,  avg # of iterations =  1.0

     total cpu time spent up to now is        1.3 secs

     total energy              =     -31.93261834 Ry
     Harris-Foulkes estimate   =     -31.96517715 Ry
     estimated scf accuracy    <       0.76541424 Ry

     iteration # 31     ecut=    30.00 Ry     beta=0.70
     Davidson diagonalization with overlap
     ethr =  9.57E-03,  avg # of iterations =  1.0

     total cpu time spent up to now is        1.3 secs

     total energy              =     -31.94749908 Ry
     Harris-Foulkes estimate   =     -31.94640477 Ry
     estimated scf accuracy    <       0.00535192 Ry

     iteration # 32     ecut=    30.00 Ry     beta=0.70
     Davidson diagonalization with overlap
     ethr =  6.69E-05,  avg # of iterations =  7.0

     negative rho (up, down):  1.371E-06 0.000E+00

     total cpu time spent up to now is        1.3 secs

     total energy              =     -31.98281515 Ry
     Harris-Foulkes estimate   =     -31.95138677 Ry
     estimated scf accuracy    <       0.39242921 Ry

     iteration # 33     ecut=    30.00 Ry     beta=0.70
     Davidson diagonalization with overlap
     ethr =  6.69E-05,  avg # of iterations =  2.0

     negative rho (up, down):  1.699E-06 0.000E+00

     total cpu time spent up to now is        1.4 secs

     total energy              =     -31.93714089 Ry
     Harris-Foulkes estimate   =     -32.00580975 Ry
     estimated scf accuracy    <       1.33682411 Ry

     iteration # 34     ecut=    30.00 Ry     beta=0.70
     Davidson diagonalization with overlap
     ethr =  6.69E-05,  avg # of iterations =  2.0

     negative rho (up, down):  3.658E-07 0.000E+00

     total cpu time spent up to now is        1.4 secs

     total energy              =     -31.94820927 Ry
     Harris-Foulkes estimate   =     -31.94679647 Ry
     estimated scf accuracy    <       0.03294807 Ry

     iteration # 35     ecut=    30.00 Ry     beta=0.70
     Davidson diagonalization with overlap
     ethr =  6.69E-05,  avg # of iterations =  1.0

     negative rho (up, down):  9.142E-07 0.000E+00

     total cpu time spent up to now is        1.4 secs

     total energy              =     -31.95116924 Ry
     Harris-Foulkes estimate   =     -31.94938795 Ry
     estimated scf accuracy    <       0.23700340 Ry

     iteration # 36     ecut=    30.00 Ry     beta=0.70
     Davidson diagonalization with overlap
     ethr =  6.69E-05,  avg # of iterations =  1.0

     negative rho (up, down):  1.056E-07 0.000E+00

     total cpu time spent up to now is        1.5 secs

     total energy              =     -31.92857935 Ry
     Harris-Foulkes estimate   =     -31.95142432 Ry
     estimated scf accuracy    <       0.39368379 Ry

     iteration # 37     ecut=    30.00 Ry     beta=0.70
     Davidson diagonalization with overlap
     ethr =  6.69E-05,  avg # of iterations =  1.0

     negative rho (up, down):  2.289E-07 0.000E+00

     total cpu time spent up to now is        1.5 secs

     total energy              =     -31.95156510 Ry
     Harris-Foulkes estimate   =     -31.95378119 Ry
     estimated scf accuracy    <       0.41621625 Ry

     iteration # 38     ecut=    30.00 Ry     beta=0.70
     Davidson diagonalization with overlap
     ethr =  6.69E-05,  avg # of iterations =  1.0

     negative rho (up, down):  1.549E-07 0.000E+00

     total cpu time spent up to now is        1.5 secs

     total energy              =     -31.92998865 Ry
     Harris-Foulkes estimate   =     -31.95169908 Ry
     estimated scf accuracy    <       0.31927624 Ry

     iteration # 39     ecut=    30.00 Ry     beta=0.70
     Davidson diagonalization with overlap
     ethr =  6.69E-05,  avg # of iterations =  1.0

     negative rho (up, down):  1.653E-08 0.000E+00

     total cpu time spent up to now is        1.6 secs

     total energy              =     -31.95618336 Ry
     Harris-Foulkes estimate   =     -31.95545090 Ry
     estimated scf accuracy    <       0.68567445 Ry

     iteration # 40     ecut=    30.00 Ry     beta=0.70
     Davidson diagonalization with overlap
     ethr =  6.69E-05,  avg # of iterations =  1.0

     total cpu time spent up to now is        1.6 secs

     total energy              =     -31.95508867 Ry
     Harris-Foulkes estimate   =     -31.95620248 Ry
     estimated scf accuracy    <       0.73659921 Ry

     iteration # 41     ecut=    30.00 Ry     beta=0.70
     Davidson diagonalization with overlap
     ethr =  6.69E-05,  avg # of iterations =  1.0

     total cpu time spent up to now is        1.6 secs

     total energy              =     -31.95456296 Ry
     Harris-Foulkes estimate   =     -31.95511666 Ry
     estimated scf accuracy    <       0.66367989 Ry

     iteration # 42     ecut=    30.00 Ry     beta=0.70
     Davidson diagonalization with overlap
     ethr =  6.69E-05,  avg # of iterations =  1.0

     total cpu time spent up to now is        1.7 secs

     total energy              =     -31.93452508 Ry
     Harris-Foulkes estimate   =     -31.95457083 Ry
     estimated scf accuracy    <       0.62587272 Ry

     iteration # 43     ecut=    30.00 Ry     beta=0.70
     Davidson diagonalization with overlap
     ethr =  6.69E-05,  avg # of iterations =  1.0

     negative rho (up, down):  9.383E-07 0.000E+00

     total cpu time spent up to now is        1.7 secs

     total energy              =     -31.94600692 Ry
     Harris-Foulkes estimate   =     -31.94682107 Ry
     estimated scf accuracy    <       0.03389160 Ry

     iteration # 44     ecut=    30.00 Ry     beta=0.70
     Davidson diagonalization with overlap
     ethr =  6.69E-05,  avg # of iterations =  1.0

     negative rho (up, down):  1.603E-05 0.000E+00

     total cpu time spent up to now is        1.7 secs

     total energy              =     -31.94627438 Ry
     Harris-Foulkes estimate   =     -31.94636659 Ry
     estimated scf accuracy    <       0.00047888 Ry

     iteration # 45     ecut=    30.00 Ry     beta=0.70
     Davidson diagonalization with overlap
     ethr =  5.99E-06,  avg # of iterations =  1.0

     negative rho (up, down):  5.076E-05 0.000E+00

     total cpu time spent up to now is        1.8 secs

     total energy              =     -31.94717986 Ry
     Harris-Foulkes estimate   =     -31.94671043 Ry
     estimated scf accuracy    <       0.02705100 Ry

     iteration # 46     ecut=    30.00 Ry     beta=0.70
     Davidson diagonalization with overlap
     ethr =  5.99E-06,  avg # of iterations =  1.0

     negative rho (up, down):  1.849E-05 0.000E+00

     total cpu time spent up to now is        1.8 secs

     total energy              =     -31.94751211 Ry
     Harris-Foulkes estimate   =     -31.94733750 Ry
     estimated scf accuracy    <       0.07648200 Ry

     iteration # 47     ecut=    30.00 Ry     beta=0.70
     Davidson diagonalization with overlap
     ethr =  5.99E-06,  avg # of iterations =  1.0

     negative rho (up, down):  9.549E-07 0.000E+00

     total cpu time spent up to now is        1.8 secs

     total energy              =     -31.94576036 Ry
     Harris-Foulkes estimate   =     -31.94752108 Ry
     estimated scf accuracy    <       0.09158996 Ry

     iteration # 48     ecut=    30.00 Ry     beta=0.70
     Davidson diagonalization with overlap
     ethr =  5.99E-06,  avg # of iterations =  1.0

     negative rho (up, down):  1.441E-08 0.000E+00

     total cpu time spent up to now is        1.9 secs

     total energy              =     -31.94634388 Ry
     Harris-Foulkes estimate   =     -31.94642100 Ry
     estimated scf accuracy    <       0.00545326 Ry

     iteration # 49     ecut=    30.00 Ry     beta=0.70
     Davidson diagonalization with overlap
     ethr =  5.99E-06,  avg # of iterations =  1.0

     total cpu time spent up to now is        1.9 secs

     total energy              =     -31.94632967 Ry
     Harris-Foulkes estimate   =     -31.94636517 Ry
     estimated scf accuracy    <       0.00118110 Ry

     iteration # 50     ecut=    30.00 Ry     beta=0.70
     Davidson diagonalization with overlap
     ethr =  5.99E-06,  avg # of iterations =  1.0

     total cpu time spent up to now is        1.9 secs

     total energy              =     -31.94635043 Ry
     Harris-Foulkes estimate   =     -31.94635183 Ry
     estimated scf accuracy    <       0.00004192 Ry

     iteration # 51     ecut=    30.00 Ry     beta=0.70
     Davidson diagonalization with overlap
     ethr =  5.24E-07,  avg # of iterations =  1.0

     total cpu time spent up to now is        2.0 secs

     total energy              =     -31.94635084 Ry
     Harris-Foulkes estimate   =     -31.94635091 Ry
     estimated scf accuracy    <       0.00000116 Ry

     iteration # 52     ecut=    30.00 Ry     beta=0.70
     Davidson diagonalization with overlap
     ethr =  1.45E-08,  avg # of iterations =  1.0

     total cpu time spent up to now is        2.0 secs

     total energy              =     -31.94635080 Ry
     Harris-Foulkes estimate   =     -31.94635085 Ry
     estimated scf accuracy    <       0.00000015 Ry

     iteration # 53     ecut=    30.00 Ry     beta=0.70
     Davidson diagonalization with overlap
     ethr =  1.83E-09,  avg # of iterations =  1.0

     total cpu time spent up to now is        2.0 secs

     End of self-consistent calculation

          k = 0.0000 0.0000 0.0000 ( 22119 PWs)   bands (ev):

   -24.7736 -10.6223  -7.0318  -7.0311  -6.8903  -0.6940   0.3544   0.8160

     the Fermi energy is    -6.8605 ev

!    total energy              =     -31.94635074 Ry
     Harris-Foulkes estimate   =     -31.94635080 Ry
     estimated scf accuracy    <          8.8E-10 Ry

     convergence has been achieved in  53 iterations

     Forces acting on atoms (Ry/au):

     atom    1 type  1   force =    -0.00702145    0.00694475    0.01354537
     atom    2 type  1   force =    -0.00052676    0.00062492    0.00054491
     atom    3 type  2   force =     0.00754821   -0.00756967   -0.01409029

     Total force =     0.024388     Total SCF correction =     0.000074

     Molecular Dynamics Calculation

     Starting temperature  =  1000.00 K

     temperature is controlled by Andersen thermostat
     Collision frequency = 1.0000/timestep
     mass H                =     1.01
     mass O                =    16.00
     Time step             =   100.00 a.u.,  4.8378 femto-seconds

     Entering Dynamics:    iteration =     1
                           time      =   0.0048 pico-seconds


     Andersen thermostat:    3 collisions

ATOMIC_POSITIONS (bohr)
H        8.010381606  12.904659180  10.615668887
H       12.350071087   1.963868740   9.901271626
O        8.664943491  11.868484248   8.817908758


     kinetic energy (Ekin) =     0.01553013 Ry
     temperature           =   817.33666833 K 
     Ekin + Etot (const)   =   -31.93082062 Ry

     Linear momentum :   -0.0000000000    0.0000000000   -0.0000000000

     Writing output data file pwscf.save
     Check: negative starting charge=   -0.346613
     NEW-OLD atomic charge density approx. for the potential
     Check: negative starting charge=   -0.346338

     negative rho (up, down):  5.343E-02 0.000E+00

     total cpu time spent up to now is        2.3 secs

     per-process dynamical memory:    20.4 Mb

     Self-consistent Calculation

     iteration #  1     ecut=    30.00 Ry     beta=0.70
     Davidson diagonalization with overlap
     c_bands:  1 eigenvalues not converged
     ethr =  1.00E-06,  avg # of iterations = 20.0

     negative rho (up, down):  1.256E-02 0.000E+00

     total cpu time spent up to now is        2.4 secs

     total energy              =     -31.67314559 Ry
     Harris-Foulkes estimate   =     -31.89038547 Ry
     estimated scf accuracy    <       0.32040362 Ry

     iteration #  2     ecut=    30.00 Ry     beta=0.70
     Davidson diagonalization with overlap
     ethr =  4.01E-03,  avg # of iterations =  3.0

     negative rho (up, down):  1.007E-02 0.000E+00

     total cpu time spent up to now is        2.4 secs

     total energy              =     -32.03367879 Ry
     Harris-Foulkes estimate   =     -32.75210638 Ry
     estimated scf accuracy    <       2.39329818 Ry

     iteration #  3     ecut=    30.00 Ry     beta=0.70
     Davidson diagonalization with overlap
     ethr =  4.01E-03,  avg # of iterations =  2.0

     negative rho (up, down):  9.298E-03 0.000E+00

     total cpu time spent up to now is        2.5 secs

     total energy              =     -31.99909071 Ry
     Harris-Foulkes estimate   =     -32.08586716 Ry
     estimated scf accuracy    <       1.09082561 Ry

     iteration #  4     ecut=    30.00 Ry     beta=0.70
     Davidson diagonalization with overlap
     ethr =  4.01E-03,  avg # of iterations =  1.0

     negative rho (up, down):  7.116E-03 0.000E+00

     total cpu time spent up to now is        2.5 secs

     total energy              =     -31.77359405 Ry
     Harris-Foulkes estimate   =     -31.99931200 Ry
     estimated scf accuracy    <       0.97476115 Ry

     iteration #  5     ecut=    30.00 Ry     beta=0.70
     Davidson diagonalization with overlap
     ethr =  4.01E-03,  avg # of iterations =  1.0

     negative rho (up, down):  1.426E-03 0.000E+00

     total cpu time spent up to now is        2.5 secs

     total energy              =     -32.13138875 Ry
     Harris-Foulkes estimate   =     -32.09813753 Ry
     estimated scf accuracy    <       1.42014728 Ry

     iteration #  6     ecut=    30.00 Ry     beta=0.70
     Davidson diagonalization with overlap
     ethr =  4.01E-03,  avg # of iterations =  1.0

     negative rho (up, down):  7.224E-04 0.000E+00

     total cpu time spent up to now is        2.6 secs

     total energy              =     -32.04808375 Ry
     Harris-Foulkes estimate   =     -32.13197758 Ry
     estimated scf accuracy    <       1.47014886 Ry

     iteration #  7     ecut=    30.00 Ry     beta=0.70
     Davidson diagonalization with overlap
     ethr =  4.01E-03,  avg # of iterations =  1.0

     negative rho (up, down):  7.094E-05 0.000E+00

     total cpu time spent up to now is        2.6 secs

     total energy              =     -31.94306359 Ry
     Harris-Foulkes estimate   =     -32.04852585 Ry
     estimated scf accuracy    <       1.33400007 Ry

     iteration #  8     ecut=    30.00 Ry     beta=0.70
     Davidson diagonalization with overlap
     ethr =  4.01E-03,  avg # of iterations =  1.0

     negative rho (up, down):  8.960E-05 0.000E+00

     total cpu time spent up to now is        2.6 secs

     total energy              =     -31.93895378 Ry
     Harris-Foulkes estimate   =     -31.94198541 Ry
     estimated scf accuracy    <       0.53349697 Ry

     iteration #  9     ecut=    30.00 Ry     beta=0.70
     Davidson diagonalization with overlap
     ethr =  4.01E-03,  avg # of iterations =  1.0

     negative rho (up, down):  2.840E-05 0.000E+00

     total cpu time spent up to now is        2.7 secs

     total energy              =     -31.91404170 Ry
     Harris-Foulkes estimate   =     -31.93929468 Ry
     estimated scf accuracy    <       0.33171308 Ry

     iteration # 10     ecut=    30.00 Ry     beta=0.70
     Davidson diagonalization with overlap
     ethr =  4.01E-03,  avg # of iterations =  1.0

     negative rho (up, down):  6.095E-06 0.000E+00

     total cpu time spent up to now is        2.7 secs

     total energy              =     -31.89541362 Ry
     Harris-Foulkes estimate   =     -31.94931151 Ry
     estimated scf accuracy    <       0.65476448 Ry

     iteration # 11     ecut=    30.00 Ry     beta=0.70
     Davidson diagonalization with overlap
     ethr =  4.01E-03,  avg # of iterations =  1.0

     negative rho (up, down):  1.403E-08 0.000E+00

     total cpu time spent up to now is        2.7 secs

     total energy              =     -31.92848243 Ry
     Harris-Foulkes estimate   =     -31.96143627 Ry
     estimated scf accuracy    <       1.48756912 Ry

     iteration # 12     ecut=    30.00 Ry     beta=0.70
     Davidson diagonalization with overlap
     ethr =  4.01E-03,  avg # of iterations =  1.0

     negative rho (up, down):  2.582E-08 0.000E+00

     total cpu time spent up to now is        2.8 secs

     total energy              =     -31.93655978 Ry
     Harris-Foulkes estimate   =     -31.93734270 Ry
     estimated scf accuracy    <       0.18047087 Ry

     iteration # 13     ecut=    30.00 Ry     beta=0.70
     Davidson diagonalization with overlap
     ethr =  2.26E-03,  avg # of iterations =  1.0

     negative rho (up, down):  4.232E-07 0.000E+00

     total cpu time spent up to now is        2.8 secs

     total energy              =     -31.93768009 Ry
     Harris-Foulkes estimate   =     -31.93663189 Ry
     estimated scf accuracy    <       0.12394817 Ry

     iteration # 14     ecut=    30.00 Ry     beta=0.70
     Davidson diagonalization with overlap
     ethr =  1.55E-03,  avg # of iterations =  1.0

     negative rho (up, down):  1.534E-06 0.000E+00

     total cpu time spent up to now is        2.8 secs

     total energy              =     -31.93624192 Ry
     Harris-Foulkes estimate   =     -31.93785262 Ry
     estimated scf accuracy    <       0.21960384 Ry

     iteration # 15     ecut=    30.00 Ry     beta=0.70
     Davidson diagonalization with overlap
     ethr =  1.55E-03,  avg # of iterations =  1.0

     negative rho (up, down):  9.310E-07 0.000E+00

     total cpu time spent up to now is        2.9 secs

     total energy              =     -31.93391809 Ry
     Harris-Foulkes estimate   =     -31.93647131 Ry
     estimated scf accuracy    <       0.11097651 Ry

     iteration # 16     ecut=    30.00 Ry     beta=0.70
     Davidson diagonalization with overlap
     ethr =  1.39E-03,  avg # of iterations =  1.0

     negative rho (up, down):  1.693E-06 0.000E+00

     total cpu time spent up to now is        2.9 secs

     total energy              =     -31.93515324 Ry
     Harris-Foulkes estimate   =     -31.93507594 Ry
     estimated scf accuracy    <       0.00096038 Ry

     iteration # 17     ecut=    30.00 Ry     beta=0.70
     Davidson diagonalization with overlap
     ethr =  1.20E-05,  avg # of iterations =  8.0

     negative rho (up, down):  6.525E-07 0.000E+00

     total cpu time spent up to now is        2.9 secs

     total energy              =     -31.93491115 Ry
     Harris-Foulkes estimate   =     -31.93525903 Ry
     estimated scf accuracy    <       0.01481642 Ry

     iteration # 18     ecut=    30.00 Ry     beta=0.70
     Davidson diagonalization with overlap
     ethr =  1.20E-05,  avg # of iterations =  1.0

     negative rho (up, down):  1.568E-08 0.000E+00

     total cpu time spent up to now is        3.0 secs

     total energy              =     -31.93505382 Ry
     Harris-Foulkes estimate   =     -31.93506695 Ry
     estimated scf accuracy    <       0.00013677 Ry

     iteration # 19     ecut=    30.00 Ry     beta=0.70
     Davidson diagonalization with overlap
     ethr =  1.71E-06,  avg # of iterations = 19.0

     total cpu time spent up to now is        3.0 secs

     total energy              =     -31.93507130 Ry
     Harris-Foulkes estimate   =     -31.93507535 Ry
     estimated scf accuracy    <       0.00083133 Ry

     iteration # 20     ecut=    30.00 Ry     beta=0.70
     Davidson diagonalization with overlap
     ethr =  1.71E-06,  avg # of iterations =  1.0

     total cpu time spent up to now is        3.1 secs

     total energy              =     -31.93505674 Ry
     Harris-Foulkes estimate   =     -31.93507162 Ry
     estimated scf accuracy    <       0.00058339 Ry

     iteration # 21     ecut=    30.00 Ry     beta=0.70
     Davidson diagonalization with overlap
     ethr =  1.71E-06,  avg # of iterations =  1.0

     total cpu time spent up to now is        3.1 secs

     total energy              =     -31.93506449 Ry
     Harris-Foulkes estimate   =     -31.93506389 Ry
     estimated scf accuracy    <       0.00000067 Ry

     iteration # 22     ecut=    30.00 Ry     beta=0.70
     Davidson diagonalization with overlap
     ethr =  8.36E-09,  avg # of iterations =  2.0

     total cpu time spent up to now is        3.1 secs

     total energy              =     -31.93506437 Ry
     Harris-Foulkes estimate   =     -31.93506463 Ry
     estimated scf accuracy    <       0.00000518 Ry

     iteration # 23     ecut=    30.00 Ry     beta=0.70
     Davidson diagonalization with overlap
     ethr =  8.36E-09,  avg # of iterations =  1.0

     total cpu time spent up to now is        3.2 secs

     total energy              =     -31.93506420 Ry
     Harris-Foulkes estimate   =     -31.93506443 Ry
     estimated scf accuracy    <       0.00000028 Ry

     iteration # 24     ecut=    30.00 Ry     beta=0.70
     Davidson diagonalization with overlap
     ethr =  3.56E-09,  avg # of iterations =  1.0

     total cpu time spent up to now is        3.2 secs

     total energy              =     -31.93506420 Ry
     Harris-Foulkes estimate   =     -31.93506422 Ry
     estimated scf accuracy    <       0.00000003 Ry

     iteration # 25     ecut=    30.00 Ry     beta=0.70
     Davidson diagonalization with overlap
     ethr =  3.73E-10,  avg # of iterations =  1.0

     total cpu time spent up to now is        3.2 secs

     End of self-consistent calculation

          k = 0.0000 0.0000 0.0000 ( 22119 PWs)   bands (ev):

   -24.3740 -10.3293  -6.9911  -6.9903  -6.8511  -0.9862   0.2263   0.8055

     the Fermi energy is    -6.8203 ev

!    total energy              =     -31.93506420 Ry
     Harris-Foulkes estimate   =     -31.93506420 Ry
     estimated scf accuracy    <          6.1E-10 Ry

     convergence has been achieved in  25 iterations

     Forces acting on atoms (Ry/au):

     atom    1 type  1   force =     0.03666905   -0.05769304   -0.10172631
     atom    2 type  1   force =    -0.00056341    0.00077240    0.00036436
     atom    3 type  2   force =    -0.03610563    0.05692064    0.10136195

     Total force =     0.172743     Total SCF correction =     0.000046

     Entering Dynamics:    iteration =     2
                           time      =   0.0097 pico-seconds


     Andersen thermostat:    3 collisions

ATOMIC_POSITIONS (bohr)
H        8.492242525  12.264450559   9.508822442
H       12.053079165   2.508584673   9.470672473
O        8.653273635  11.874512224   8.914960011


     kinetic energy (Ekin) =     0.05664610 Ry
     temperature           =  2981.23367629 K 
     Ekin + Etot (const)   =   -31.87841810 Ry
     Message from routine dynamics:
     Total linear momentum <> 0

     Linear momentum :   -0.0258640847    0.3700275916    0.5151764968

     Writing output data file pwscf.save

     first order wave-functions extrapolation
     Check: negative starting charge=   -0.346338
     first order charge density extrapolation
     Check: negative starting charge=   -0.347653

     negative rho (up, down):  2.548E-01 0.000E+00

     total cpu time spent up to now is        3.5 secs

     per-process dynamical memory:    20.4 Mb

     Self-consistent Calculation

     iteration #  1     ecut=    30.00 Ry     beta=0.70
     Davidson diagonalization with overlap
     ethr =  1.00E-06,  avg # of iterations = 13.0

     negative rho (up, down):  3.558E-02 0.000E+00

     total cpu time spent up to now is        3.6 secs

     total energy              =      56.84440498 Ry
     Harris-Foulkes estimate   =    -202.58147229 Ry
     estimated scf accuracy    <      25.97017725 Ry

     iteration #  2     ecut=    30.00 Ry     beta=0.70
     Davidson diagonalization with overlap
     ethr =  1.00E-02,  avg # of iterations =  6.0

     negative rho (up, down):  2.247E-02 0.000E+00

     total cpu time spent up to now is        3.7 secs

     total energy              =     -31.77253785 Ry
     Harris-Foulkes estimate   =     -44.61248593 Ry
     estimated scf accuracy    <      25.74796079 Ry

     iteration #  3     ecut=    30.00 Ry     beta=0.70
     Davidson diagonalization with overlap
     ethr =  1.00E-02,  avg # of iterations =  3.0

     negative rho (up, down):  1.254E-02 0.000E+00

     total cpu time spent up to now is        3.7 secs

     total energy              =     -28.01097725 Ry
     Harris-Foulkes estimate   =     -32.33982700 Ry
     estimated scf accuracy    <       8.38198219 Ry

     iteration #  4     ecut=    30.00 Ry     beta=0.70
     Davidson diagonalization with overlap
     ethr =  1.00E-02,  avg # of iterations =  3.0

     negative rho (up, down):  1.050E-02 0.000E+00

     total cpu time spent up to now is        3.7 secs

     total energy              =     -28.19080679 Ry
     Harris-Foulkes estimate   =     -28.23845281 Ry
     estimated scf accuracy    <       1.53142460 Ry

     iteration #  5     ecut=    30.00 Ry     beta=0.70
     Davidson diagonalization with overlap
     ethr =  1.00E-02,  avg # of iterations =  1.0

     negative rho (up, down):  5.244E-03 0.000E+00

     total cpu time spent up to now is        3.8 secs

     total energy              =     -27.44396206 Ry
     Harris-Foulkes estimate   =     -28.45435091 Ry
     estimated scf accuracy    <       2.76561667 Ry

     iteration #  6     ecut=    30.00 Ry     beta=0.70
     Davidson diagonalization with overlap
     ethr =  1.00E-02,  avg # of iterations =  1.0

     negative rho (up, down):  3.632E-03 0.000E+00

     total cpu time spent up to now is        3.8 secs

     total energy              =     -27.59470375 Ry
     Harris-Foulkes estimate   =     -27.66591114 Ry
     estimated scf accuracy    <       1.86337028 Ry

     iteration #  7     ecut=    30.00 Ry     beta=0.70
     Davidson diagonalization with overlap
     ethr =  1.00E-02,  avg # of iterations =  1.0

     negative rho (up, down):  2.798E-03 0.000E+00

     total cpu time spent up to now is        3.8 secs

     total energy              =     -27.34332263 Ry
     Harris-Foulkes estimate   =     -27.60425405 Ry
     estimated scf accuracy    <       1.76207712 Ry

     iteration #  8     ecut=    30.00 Ry     beta=0.70
     Davidson diagonalization with overlap
     ethr =  1.00E-02,  avg # of iterations =  1.0

     negative rho (up, down):  2.078E-03 0.000E+00

     total cpu time spent up to now is        3.9 secs

     total energy              =     -27.49890940 Ry
     Harris-Foulkes estimate   =     -27.38754011 Ry
     estimated scf accuracy    <       0.44770162 Ry

     iteration #  9     ecut=    30.00 Ry     beta=0.70
     Davidson diagonalization with overlap
     ethr =  5.60E-03,  avg # of iterations =  1.0

     negative rho (up, down):  1.118E-03 0.000E+00

     total cpu time spent up to now is        3.9 secs

     total energy              =     -27.51803911 Ry
     Harris-Foulkes estimate   =     -27.55523530 Ry
     estimated scf accuracy    <       1.10054462 Ry

     iteration # 10     ecut=    30.00 Ry     beta=0.70
     Davidson diagonalization with overlap
     ethr =  5.60E-03,  avg # of iterations =  1.0

     negative rho (up, down):  9.836E-08 0.000E+00

     total cpu time spent up to now is        3.9 secs

     total energy              =     -27.32633923 Ry
     Harris-Foulkes estimate   =     -27.51852860 Ry
     estimated scf accuracy    <       1.02244727 Ry

     iteration # 11     ecut=    30.00 Ry     beta=0.70
     Davidson diagonalization with overlap
     ethr =  5.60E-03,  avg # of iterations =  1.0

     negative rho (up, down):  6.963E-08 0.000E+00

     total cpu time spent up to now is        4.0 secs

     total energy              =     -27.38829044 Ry
     Harris-Foulkes estimate   =     -27.39944566 Ry
     estimated scf accuracy    <       1.57700780 Ry

     iteration # 12     ecut=    30.00 Ry     beta=0.70
     Davidson diagonalization with overlap
     ethr =  5.60E-03,  avg # of iterations =  1.0

     total cpu time spent up to now is        4.0 secs

     total energy              =     -27.32972873 Ry
     Harris-Foulkes estimate   =     -27.38934103 Ry
     estimated scf accuracy    <       1.08159216 Ry

     iteration # 13     ecut=    30.00 Ry     beta=0.70
     Davidson diagonalization with overlap
     ethr =  5.60E-03,  avg # of iterations =  1.0

     total cpu time spent up to now is        4.0 secs

     total energy              =     -27.38386169 Ry
     Harris-Foulkes estimate   =     -27.38984446 Ry
     estimated scf accuracy    <       0.64392753 Ry

     iteration # 14     ecut=    30.00 Ry     beta=0.70
     Davidson diagonalization with overlap
     ethr =  5.60E-03,  avg # of iterations =  1.0

     total cpu time spent up to now is        4.1 secs

     total energy              =     -27.37117210 Ry
     Harris-Foulkes estimate   =     -27.38422393 Ry
     estimated scf accuracy    <       0.48264618 Ry

     iteration # 15     ecut=    30.00 Ry     beta=0.70
     Davidson diagonalization with overlap
     ethr =  5.60E-03,  avg # of iterations =  1.0

     total cpu time spent up to now is        4.1 secs

     total energy              =     -27.37572807 Ry
     Harris-Foulkes estimate   =     -27.37539205 Ry
     estimated scf accuracy    <       0.03311797 Ry

     iteration # 16     ecut=    30.00 Ry     beta=0.70
     Davidson diagonalization with overlap
     ethr =  4.14E-04,  avg # of iterations =  1.0

     total cpu time spent up to now is        4.1 secs

     total energy              =     -27.37549689 Ry
     Harris-Foulkes estimate   =     -27.37578790 Ry
     estimated scf accuracy    <       0.06006565 Ry

     iteration # 17     ecut=    30.00 Ry     beta=0.70
     Davidson diagonalization with overlap
     ethr =  4.14E-04,  avg # of iterations =  1.0

     total cpu time spent up to now is        4.2 secs

     total energy              =     -27.37439416 Ry
     Harris-Foulkes estimate   =     -27.37552188 Ry
     estimated scf accuracy    <       0.04155109 Ry

     iteration # 18     ecut=    30.00 Ry     beta=0.70
     Davidson diagonalization with overlap
     ethr =  4.14E-04,  avg # of iterations =  1.0

     total cpu time spent up to now is        4.2 secs

     total energy              =     -27.37494939 Ry
     Harris-Foulkes estimate   =     -27.37494853 Ry
     estimated scf accuracy    <       0.00000229 Ry

     iteration # 19     ecut=    30.00 Ry     beta=0.70
     Davidson diagonalization with overlap
     ethr =  2.86E-08,  avg # of iterations = 15.0

     total cpu time spent up to now is        4.3 secs

     total energy              =     -27.37494440 Ry
     Harris-Foulkes estimate   =     -27.37495408 Ry
     estimated scf accuracy    <       0.00041611 Ry

     iteration # 20     ecut=    30.00 Ry     beta=0.70
     Davidson diagonalization with overlap
     ethr =  2.86E-08,  avg # of iterations =  1.0

     total cpu time spent up to now is        4.3 secs

     total energy              =     -27.37494875 Ry
     Harris-Foulkes estimate   =     -27.37494896 Ry
     estimated scf accuracy    <       0.00000234 Ry

     iteration # 21     ecut=    30.00 Ry     beta=0.70
     Davidson diagonalization with overlap
     ethr =  2.86E-08,  avg # of iterations =  1.0

     total cpu time spent up to now is        4.3 secs

     total energy              =     -27.37494844 Ry
     Harris-Foulkes estimate   =     -27.37494978 Ry
     estimated scf accuracy    <       0.00005538 Ry

     iteration # 22     ecut=    30.00 Ry     beta=0.70
     Davidson diagonalization with overlap
     ethr =  2.86E-08,  avg # of iterations =  1.0

     total cpu time spent up to now is        4.4 secs

     total energy              =     -27.37494915 Ry
     Harris-Foulkes estimate   =     -27.37494911 Ry
     estimated scf accuracy    <       0.00000005 Ry

     iteration # 23     ecut=    30.00 Ry     beta=0.70
     Davidson diagonalization with overlap
     ethr =  6.19E-10,  avg # of iterations =  1.0

     total cpu time spent up to now is        4.4 secs

     total energy              =     -27.37494915 Ry
     Harris-Foulkes estimate   =     -27.37494915 Ry
     estimated scf accuracy    <       0.00000001 Ry

     iteration # 24     ecut=    30.00 Ry     beta=0.70
     Davidson diagonalization with overlap
     ethr =  1.43E-10,  avg # of iterations =  1.0

     total cpu time spent up to now is        4.4 secs

     End of self-consistent calculation

          k = 0.0000 0.0000 0.0000 ( 22119 PWs)   bands (ev):

   -31.2406 -11.8161  -7.5327  -7.5318  -7.3698  -0.3078   0.6336   0.7626

     the Fermi energy is    -7.3540 ev

!    total energy              =     -27.37494917 Ry
     Harris-Foulkes estimate   =     -27.37494915 Ry
     estimated scf accuracy    <          3.2E-11 Ry

     convergence has been achieved in  24 iterations

     Forces acting on atoms (Ry/au):

     atom    1 type  1   force =    -4.03035724    9.75639873   14.85639424
     atom    2 type  1   force =    -0.00047343    0.00109538    0.00047580
     atom    3 type  2   force =     4.03083067   -9.75749411  -14.85687004

     Total force =    25.774530     Total SCF correction =     0.000027

     Entering Dynamics:    iteration =     3
                           time      =   0.0145 pico-seconds


     Andersen thermostat:    3 collisions

ATOMIC_POSITIONS (bohr)
H      -35.654682375 118.549044807 170.835452940
H       12.248365399   2.631561494   9.090121302
O       11.427720826   5.157534300  -1.244761247


     kinetic energy (Ekin) =   481.21745697 Ry
     temperature           = ************** K 
     Ekin + Etot (const)   =   453.84250780 Ry
     Message from routine dynamics:
     Total linear momentum <> 0

     Linear momentum :    0.1089227638   -0.1048822756   -0.1134623319

     Writing output data file pwscf.save

     second order wave-functions extrapolation
     Check: negative starting charge=   -0.347653
     second order charge density extrapolation
     Check: negative starting charge=   -0.350001

     negative rho (up, down):  9.503E+01 0.000E+00

     total cpu time spent up to now is        4.7 secs

     per-process dynamical memory:    20.4 Mb

     Self-consistent Calculation

     iteration #  1     ecut=    30.00 Ry     beta=0.70
     Davidson diagonalization with overlap
     c_bands:  5 eigenvalues not converged
     ethr =  1.00E-06,  avg # of iterations = 40.0

     negative rho (up, down):  2.805E+01 0.000E+00

     total cpu time spent up to now is        5.0 secs

     total energy              =    -242.31296408 Ry
     Harris-Foulkes estimate   =  -17194.74566495 Ry
     estimated scf accuracy    <    3148.27069121 Ry

     iteration #  2     ecut=    30.00 Ry     beta=0.70
     Davidson diagonalization with overlap
     ethr =  1.00E-02,  avg # of iterations = 17.0

     negative rho (up, down):  6.001E-01 0.000E+00

     total cpu time spent up to now is        5.1 secs

     total energy              =     159.62935251 Ry
     Harris-Foulkes estimate   =   -2065.82399672 Ry
     estimated scf accuracy    <     307.70223438 Ry

     iteration #  3     ecut=    30.00 Ry     beta=0.70
     Davidson diagonalization with overlap
     ethr =  1.00E-02,  avg # of iterations = 11.0

     negative rho (up, down):  3.800E-01 0.000E+00

     total cpu time spent up to now is        5.2 secs

     total energy              =     143.66568082 Ry
     Harris-Foulkes estimate   =    -734.20218490 Ry
     estimated scf accuracy    <      72.67505345 Ry

     iteration #  4     ecut=    30.00 Ry     beta=0.70
     Davidson diagonalization with overlap
     ethr =  1.00E-02,  avg # of iterations = 15.0

     negative rho (up, down):  1.172E-02 0.000E+00

     total cpu time spent up to now is        5.2 secs

     total energy              =     104.57226514 Ry
     Harris-Foulkes estimate   =    -257.07731354 Ry
     estimated scf accuracy    <      32.23506689 Ry

     iteration #  5     ecut=    30.00 Ry     beta=0.70
     Davidson diagonalization with overlap
     ethr =  1.00E-02,  avg # of iterations =  8.0

     negative rho (up, down):  5.709E-03 0.000E+00

     total cpu time spent up to now is        5.3 secs

     total energy              =     -32.12214041 Ry
     Harris-Foulkes estimate   =    -100.25712751 Ry
     estimated scf accuracy    <      44.78744630 Ry

     iteration #  6     ecut=    30.00 Ry     beta=0.70
     Davidson diagonalization with overlap
     ethr =  1.00E-02,  avg # of iterations =  5.0

     negative rho (up, down):  2.355E-02 0.000E+00

     total cpu time spent up to now is        5.3 secs

     total energy              =     -34.39822162 Ry
     Harris-Foulkes estimate   =     -78.10046382 Ry
     estimated scf accuracy    <      36.58748715 Ry

     iteration #  7     ecut=    30.00 Ry     beta=0.70
     Davidson diagonalization with overlap
     ethr =  1.00E-02,  avg # of iterations =  5.0

     negative rho (up, down):  8.410E-02 0.000E+00

     total cpu time spent up to now is        5.3 secs

     total energy              =     -78.07104619 Ry
     Harris-Foulkes estimate   =     -74.23157883 Ry
     estimated scf accuracy    <      58.29103173 Ry

     iteration #  8     ecut=    30.00 Ry     beta=0.70
     Davidson diagonalization with overlap
     ethr =  1.00E-02,  avg # of iterations =  1.0

     negative rho (up, down):  8.277E+00 0.000E+00

     total cpu time spent up to now is        5.4 secs

     total energy              =   -2921.17561162 Ry
     Harris-Foulkes estimate   =     -78.07440234 Ry
     estimated scf accuracy    <      62.84068263 Ry

     iteration #  9     ecut=    30.00 Ry     beta=0.70
     Davidson diagonalization with overlap
     ethr =  1.00E-02,  avg # of iterations =  9.0

     negative rho (up, down):  8.337E+00 0.000E+00

     total cpu time spent up to now is        5.5 secs

     total energy              =    -327.45273186 Ry
     Harris-Foulkes estimate   =  -11667.64237359 Ry
     estimated scf accuracy    <     302.70549477 Ry

     iteration # 10     ecut=    30.00 Ry     beta=0.70
     Davidson diagonalization with overlap
     ethr =  1.00E-02,  avg # of iterations = 10.0

     negative rho (up, down):  8.919E+00 0.000E+00

     total cpu time spent up to now is        5.6 secs

     total energy              =    -300.19302692 Ry
     Harris-Foulkes estimate   =    -698.32407679 Ry
     estimated scf accuracy    <     255.22523561 Ry

     iteration # 11     ecut=    30.00 Ry     beta=0.70
     Davidson diagonalization with overlap
     ethr =  1.00E-02,  avg # of iterations = 10.0

     negative rho (up, down):  9.922E+00 0.000E+00

     total cpu time spent up to now is        5.6 secs

     total energy              =    -245.24741936 Ry
     Harris-Foulkes estimate   =  -19982.49008049 Ry
     estimated scf accuracy    <     267.16113665 Ry

     iteration # 12     ecut=    30.00 Ry     beta=0.70
     Davidson diagonalization with overlap
     ethr =  1.00E-02,  avg # of iterations =  7.0

     negative rho (up, down):  7.191E+00 0.000E+00

     total cpu time spent up to now is        5.7 secs

     total energy              =      58.14612142 Ry
     Harris-Foulkes estimate   =  -11776.21574625 Ry
     estimated scf accuracy    <     249.78633148 Ry

     iteration # 13     ecut=    30.00 Ry     beta=0.70
     Davidson diagonalization with overlap
     ethr =  1.00E-02,  avg # of iterations = 16.0

     negative rho (up, down):  1.030E+01 0.000E+00

     total cpu time spent up to now is        5.8 secs

     total energy              =   -6397.38766740 Ry
     Harris-Foulkes estimate   =    -745.78490730 Ry
     estimated scf accuracy    <     257.97948263 Ry

     iteration # 14     ecut=    30.00 Ry     beta=0.70
     Davidson diagonalization with overlap
     ethr =  1.00E-02,  avg # of iterations =  6.0

     negative rho (up, down):  1.506E+00 0.000E+00

     total cpu time spent up to now is        5.8 secs

     total energy              =   -5180.81298554 Ry
     Harris-Foulkes estimate   =  -43942.52833848 Ry
     estimated scf accuracy    <     616.89689082 Ry

     iteration # 15     ecut=    30.00 Ry     beta=0.70
     Davidson diagonalization with overlap
     ethr =  1.00E-02,  avg # of iterations =  8.0

     negative rho (up, down):  7.419E-01 0.000E+00

     total cpu time spent up to now is        5.9 secs

     total energy              =   -1147.58594176 Ry
     Harris-Foulkes estimate   =   -9080.34861421 Ry
     estimated scf accuracy    <      69.91425138 Ry

     iteration # 16     ecut=    30.00 Ry     beta=0.70
     Davidson diagonalization with overlap
     ethr =  1.00E-02,  avg # of iterations =  7.0

     negative rho (up, down):  7.032E-01 0.000E+00

     total cpu time spent up to now is        5.9 secs

     total energy              =      16.86493558 Ry
     Harris-Foulkes estimate   =  -13473.02314950 Ry
     estimated scf accuracy    <      50.05393048 Ry

     iteration # 17     ecut=    30.00 Ry     beta=0.70
     Davidson diagonalization with overlap
     ethr =  1.00E-02,  avg # of iterations =  6.0

     negative rho (up, down):  6.325E-01 0.000E+00

     total cpu time spent up to now is        6.0 secs

     total energy              =      67.13222827 Ry
     Harris-Foulkes estimate   =   -1682.01229910 Ry
     estimated scf accuracy    <      33.29008305 Ry

     iteration # 18     ecut=    30.00 Ry     beta=0.70
     Davidson diagonalization with overlap
     ethr =  1.00E-02,  avg # of iterations =  6.0

     negative rho (up, down):  3.486E-01 0.000E+00

     total cpu time spent up to now is        6.0 secs

     total energy              =     124.40276257 Ry
     Harris-Foulkes estimate   =   -1103.86368632 Ry
     estimated scf accuracy    <      20.61612497 Ry

     iteration # 19     ecut=    30.00 Ry     beta=0.70
     Davidson diagonalization with overlap
     ethr =  1.00E-02,  avg # of iterations =  8.0

     negative rho (up, down):  2.173E-01 0.000E+00

     total cpu time spent up to now is        6.1 secs

     total energy              =     -25.81695901 Ry
     Harris-Foulkes estimate   =   -1340.06557568 Ry
     estimated scf accuracy    <      51.11572179 Ry

     iteration # 20     ecut=    30.00 Ry     beta=0.70
     Davidson diagonalization with overlap
     ethr =  1.00E-02,  avg # of iterations =  7.0

     negative rho (up, down):  1.731E-01 0.000E+00

     total cpu time spent up to now is        6.1 secs

     total energy              =      28.96560810 Ry
     Harris-Foulkes estimate   =   -1029.40469475 Ry
     estimated scf accuracy    <      47.01271815 Ry

     iteration # 21     ecut=    30.00 Ry     beta=0.70
     Davidson diagonalization with overlap
     ethr =  1.00E-02,  avg # of iterations =  5.0

     negative rho (up, down):  1.023E-01 0.000E+00

     total cpu time spent up to now is        6.2 secs

     total energy              =     -35.00058371 Ry
     Harris-Foulkes estimate   =    -600.65203592 Ry
     estimated scf accuracy    <      16.50032424 Ry

     iteration # 22     ecut=    30.00 Ry     beta=0.70
     Davidson diagonalization with overlap
     ethr =  1.00E-02,  avg # of iterations =  4.0

     negative rho (up, down):  8.414E-02 0.000E+00

     total cpu time spent up to now is        6.2 secs

     total energy              =       8.68112091 Ry
     Harris-Foulkes estimate   =    -312.42070957 Ry
     estimated scf accuracy    <      44.47417791 Ry

     iteration # 23     ecut=    30.00 Ry     beta=0.70
     Davidson diagonalization with overlap
     ethr =  1.00E-02,  avg # of iterations =  7.0

     negative rho (up, down):  4.327E-01 0.000E+00

     total cpu time spent up to now is        6.3 secs

     total energy              =    -269.19387216 Ry
     Harris-Foulkes estimate   =     -91.58800580 Ry
     estimated scf accuracy    <      15.70888427 Ry

     iteration # 24     ecut=    30.00 Ry     beta=0.70
     Davidson diagonalization with overlap
     ethr =  1.00E-02,  avg # of iterations =  7.0

     negative rho (up, down):  6.905E-01 0.000E+00

     total cpu time spent up to now is        6.3 secs

     total energy              =    -302.86483423 Ry
     Harris-Foulkes estimate   =   -2428.78594755 Ry
     estimated scf accuracy    <      52.15784591 Ry

     iteration # 25     ecut=    30.00 Ry     beta=0.70
     Davidson diagonalization with overlap
     ethr =  1.00E-02,  avg # of iterations =  7.0

     negative rho (up, down):  8.726E-01 0.000E+00

     total cpu time spent up to now is        6.4 secs

     total energy              =      52.24777762 Ry
     Harris-Foulkes estimate   =   -3679.82120871 Ry
     estimated scf accuracy    <      41.79264297 Ry

     iteration # 26     ecut=    30.00 Ry     beta=0.70
     Davidson diagonalization with overlap
     ethr =  1.00E-02,  avg # of iterations =  7.0

     negative rho (up, down):  1.112E+00 0.000E+00

     total cpu time spent up to now is        6.5 secs

     total energy              =   -2295.98452609 Ry
     Harris-Foulkes estimate   =    -223.75532466 Ry
     estimated scf accuracy    <      57.58771346 Ry

     iteration # 27     ecut=    30.00 Ry     beta=0.70
     Davidson diagonalization with overlap
     ethr =  1.00E-02,  avg # of iterations =  4.0

     negative rho (up, down):  1.192E+00 0.000E+00

     total cpu time spent up to now is        6.5 secs

     total energy              =   -1801.42164054 Ry
     Harris-Foulkes estimate   =  -25252.70526331 Ry
     estimated scf accuracy    <      54.74272485 Ry

     iteration # 28     ecut=    30.00 Ry     beta=0.70
     Davidson diagonalization with overlap
     ethr =  1.00E-02,  avg # of iterations = 12.0

     negative rho (up, down):  9.252E-01 0.000E+00

     total cpu time spent up to now is        6.6 secs

     total energy              =    -501.43623952 Ry
     Harris-Foulkes estimate   =  -27274.27088663 Ry
     estimated scf accuracy    <      38.82443338 Ry

     iteration # 29     ecut=    30.00 Ry     beta=0.70
     Davidson diagonalization with overlap
     ethr =  1.00E-02,  avg # of iterations =  9.0

     negative rho (up, down):  7.323E-01 0.000E+00

     total cpu time spent up to now is        6.6 secs

     total energy              =    -200.24899007 Ry
     Harris-Foulkes estimate   =  -47246.55585384 Ry
     estimated scf accuracy    <      28.95317473 Ry

     iteration # 30     ecut=    30.00 Ry     beta=0.70
     Davidson diagonalization with overlap
     ethr =  1.00E-02,  avg # of iterations = 10.0

     negative rho (up, down):  7.479E-01 0.000E+00

     total cpu time spent up to now is        6.7 secs

     total energy              =     -20.26538619 Ry
     Harris-Foulkes estimate   =  -17021.87644490 Ry
     estimated scf accuracy    <      36.72106776 Ry

     iteration # 31     ecut=    30.00 Ry     beta=0.70
     Davidson diagonalization with overlap
     ethr =  1.00E-02,  avg # of iterations =  7.0

     negative rho (up, down):  3.456E-01 0.000E+00

     total cpu time spent up to now is        6.7 secs

     total energy              =      43.96273631 Ry
     Harris-Foulkes estimate   =   -1441.16581569 Ry
     estimated scf accuracy    <      26.85865266 Ry

     iteration # 32     ecut=    30.00 Ry     beta=0.70
     Davidson diagonalization with overlap
     ethr =  1.00E-02,  avg # of iterations =  9.0

     negative rho (up, down):  4.330E-01 0.000E+00

     total cpu time spent up to now is        6.8 secs

     total energy              =    -116.13118665 Ry
     Harris-Foulkes estimate   =   -2305.84491092 Ry
     estimated scf accuracy    <      24.48190883 Ry

     iteration # 33     ecut=    30.00 Ry     beta=0.70
     Davidson diagonalization with overlap
     ethr =  1.00E-02,  avg # of iterations =  6.0

     negative rho (up, down):  5.509E-01 0.000E+00

     total cpu time spent up to now is        6.9 secs

     total energy              =    -224.90981249 Ry
     Harris-Foulkes estimate   =   -4277.42396739 Ry
     estimated scf accuracy    <      24.53198184 Ry

     iteration # 34     ecut=    30.00 Ry     beta=0.70
     Davidson diagonalization with overlap
     ethr =  1.00E-02,  avg # of iterations =  8.0

     negative rho (up, down):  5.103E-01 0.000E+00

     total cpu time spent up to now is        6.9 secs

     total energy              =     -67.84102531 Ry
     Harris-Foulkes estimate   =  -11590.73767411 Ry
     estimated scf accuracy    <      21.62938998 Ry

     iteration # 35     ecut=    30.00 Ry     beta=0.70
     Davidson diagonalization with overlap
     ethr =  1.00E-02,  avg # of iterations =  7.0

     negative rho (up, down):  2.135E-01 0.000E+00

     total cpu time spent up to now is        7.0 secs

     total energy              =      60.70404785 Ry
     Harris-Foulkes estimate   =   -7775.06939753 Ry
     estimated scf accuracy    <      25.84993431 Ry

     iteration # 36     ecut=    30.00 Ry     beta=0.70
     Davidson diagonalization with overlap
     ethr =  1.00E-02,  avg # of iterations = 10.0

     negative rho (up, down):  2.688E-01 0.000E+00

     total cpu time spent up to now is        7.0 secs

     total energy              =   -5187.60653382 Ry
     Harris-Foulkes estimate   =    -221.11643468 Ry
     estimated scf accuracy    <      24.90400297 Ry

     iteration # 37     ecut=    30.00 Ry     beta=0.70
     Davidson diagonalization with overlap
     ethr =  1.00E-02,  avg # of iterations =  8.0

     negative rho (up, down):  2.067E-01 0.000E+00

     total cpu time spent up to now is        7.1 secs

     total energy              =       3.82662315 Ry
     Harris-Foulkes estimate   =  -12932.62442372 Ry
     estimated scf accuracy    <      24.55789666 Ry

     iteration # 38     ecut=    30.00 Ry     beta=0.70
     Davidson diagonalization with overlap
     ethr =  1.00E-02,  avg # of iterations =  5.0

     negative rho (up, down):  7.366E-02 0.000E+00

     total cpu time spent up to now is        7.1 secs

     total energy              =      31.02978236 Ry
     Harris-Foulkes estimate   =    -128.49344816 Ry
     estimated scf accuracy    <      23.66155028 Ry

     iteration # 39     ecut=    30.00 Ry     beta=0.70
     Davidson diagonalization with overlap
     ethr =  1.00E-02,  avg # of iterations =  5.0

     negative rho (up, down):  1.195E-02 0.000E+00

     total cpu time spent up to now is        7.2 secs

     total energy              =      40.82065144 Ry
     Harris-Foulkes estimate   =   -1423.39857805 Ry
     estimated scf accuracy    <      16.43960867 Ry

     iteration # 40     ecut=    30.00 Ry     beta=0.70
     Davidson diagonalization with overlap
     ethr =  1.00E-02,  avg # of iterations =  4.0

     negative rho (up, down):  4.034E-02 0.000E+00

     total cpu time spent up to now is        7.2 secs

     total energy              =      -7.49806317 Ry
     Harris-Foulkes estimate   =    -196.66993750 Ry
     estimated scf accuracy    <      20.61074273 Ry

     iteration # 41     ecut=    30.00 Ry     beta=0.70
     Davidson diagonalization with overlap
     ethr =  1.00E-02,  avg # of iterations =  5.0

     negative rho (up, down):  1.751E-02 0.000E+00

     total cpu time spent up to now is        7.3 secs

     total energy              =      54.42288717 Ry
     Harris-Foulkes estimate   =    -425.59746764 Ry
     estimated scf accuracy    <      18.42932981 Ry

     iteration # 42     ecut=    30.00 Ry     beta=0.70
     Davidson diagonalization with overlap
     ethr =  1.00E-02,  avg # of iterations =  5.0

     negative rho (up, down):  2.911E-02 0.000E+00

     total cpu time spent up to now is        7.3 secs

     total energy              =     -21.48973993 Ry
     Harris-Foulkes estimate   =     -43.71930861 Ry
     estimated scf accuracy    <      15.18186935 Ry

     iteration # 43     ecut=    30.00 Ry     beta=0.70
     Davidson diagonalization with overlap
     ethr =  1.00E-02,  avg # of iterations =  8.0

     negative rho (up, down):  8.448E-02 0.000E+00

     total cpu time spent up to now is        7.4 secs

     total energy              =      62.85560795 Ry
     Harris-Foulkes estimate   =     -80.38226295 Ry
     estimated scf accuracy    <      16.41679314 Ry

     iteration # 44     ecut=    30.00 Ry     beta=0.70
     Davidson diagonalization with overlap
     ethr =  1.00E-02,  avg # of iterations =  5.0

     negative rho (up, down):  1.512E-01 0.000E+00

     total cpu time spent up to now is        7.4 secs

     total energy              =      25.10609509 Ry
     Harris-Foulkes estimate   =    -129.38974860 Ry
     estimated scf accuracy    <      16.80665141 Ry

     iteration # 45     ecut=    30.00 Ry     beta=0.70
     Davidson diagonalization with overlap
     ethr =  1.00E-02,  avg # of iterations =  5.0

     negative rho (up, down):  1.070E-01 0.000E+00

     total cpu time spent up to now is        7.5 secs

     total energy              =      15.95269507 Ry
     Harris-Foulkes estimate   =    -190.28026369 Ry
     estimated scf accuracy    <      14.50323034 Ry

     iteration # 46     ecut=    30.00 Ry     beta=0.70
     Davidson diagonalization with overlap
     ethr =  1.00E-02,  avg # of iterations =  4.0

     negative rho (up, down):  1.464E-01 0.000E+00

     total cpu time spent up to now is        7.5 secs

     total energy              =      29.87056443 Ry
     Harris-Foulkes estimate   =    -294.33482917 Ry
     estimated scf accuracy    <      18.34469503 Ry

     iteration # 47     ecut=    30.00 Ry     beta=0.70
     Davidson diagonalization with overlap
     ethr =  1.00E-02,  avg # of iterations =  4.0

     negative rho (up, down):  2.274E-01 0.000E+00

     total cpu time spent up to now is        7.6 secs

     total energy              =     -35.21392401 Ry
     Harris-Foulkes estimate   =     -36.59223924 Ry
     estimated scf accuracy    <      11.58200297 Ry

     iteration # 48     ecut=    30.00 Ry     beta=0.70
     Davidson diagonalization with overlap
     ethr =  1.00E-02,  avg # of iterations =  4.0

     negative rho (up, down):  2.047E-01 0.000E+00

     total cpu time spent up to now is        7.6 secs

     total energy              =     -36.38361905 Ry
     Harris-Foulkes estimate   =     -35.79238558 Ry
     estimated scf accuracy    <       5.01371252 Ry

     iteration # 49     ecut=    30.00 Ry     beta=0.70
     Davidson diagonalization with overlap
     ethr =  1.00E-02,  avg # of iterations =  3.0

     negative rho (up, down):  3.645E-02 0.000E+00

     total cpu time spent up to now is        7.7 secs

     total energy              =     -43.98737776 Ry
     Harris-Foulkes estimate   =     -70.70112335 Ry
     estimated scf accuracy    <      10.26331949 Ry

     iteration # 50     ecut=    30.00 Ry     beta=0.70
     Davidson diagonalization with overlap
     ethr =  1.00E-02,  avg # of iterations =  6.0

     negative rho (up, down):  1.557E-01 0.000E+00

     total cpu time spent up to now is        7.7 secs

     total energy              =    -312.34185822 Ry
     Harris-Foulkes estimate   =    -719.26716369 Ry
     estimated scf accuracy    <      25.11693177 Ry

     iteration # 51     ecut=    30.00 Ry     beta=0.70
     Davidson diagonalization with overlap
     ethr =  1.00E-02,  avg # of iterations =  7.0

     negative rho (up, down):  1.678E-01 0.000E+00

     total cpu time spent up to now is        7.7 secs

     total energy              =      51.23016635 Ry
     Harris-Foulkes estimate   =    -897.48749891 Ry
     estimated scf accuracy    <      39.34685838 Ry

     iteration # 52     ecut=    30.00 Ry     beta=0.70
     Davidson diagonalization with overlap
     ethr =  1.00E-02,  avg # of iterations =  8.0

     negative rho (up, down):  1.307E-01 0.000E+00

     total cpu time spent up to now is        7.8 secs

     total energy              =      26.83383657 Ry
     Harris-Foulkes estimate   =    -179.73564359 Ry
     estimated scf accuracy    <      18.71948513 Ry

     iteration # 53     ecut=    30.00 Ry     beta=0.70
     Davidson diagonalization with overlap
     ethr =  1.00E-02,  avg # of iterations =  6.0

     negative rho (up, down):  1.728E-01 0.000E+00

     total cpu time spent up to now is        7.8 secs

     total energy              =      46.11572650 Ry
     Harris-Foulkes estimate   =    -239.48308514 Ry
     estimated scf accuracy    <      24.35086722 Ry

     iteration # 54     ecut=    30.00 Ry     beta=0.70
     Davidson diagonalization with overlap
     ethr =  1.00E-02,  avg # of iterations =  4.0

     negative rho (up, down):  2.141E-01 0.000E+00

     total cpu time spent up to now is        7.9 secs

     total energy              =    -376.15225029 Ry
     Harris-Foulkes estimate   =    -204.82443211 Ry
     estimated scf accuracy    <      20.45522306 Ry

     iteration # 55     ecut=    30.00 Ry     beta=0.70
     Davidson diagonalization with overlap
     ethr =  1.00E-02,  avg # of iterations =  9.0

     negative rho (up, down):  2.976E-01 0.000E+00

     total cpu time spent up to now is        8.0 secs

     total energy              =      45.21911047 Ry
     Harris-Foulkes estimate   =   -3764.20153275 Ry
     estimated scf accuracy    <      32.44149109 Ry

     iteration # 56     ecut=    30.00 Ry     beta=0.70
     Davidson diagonalization with overlap
     ethr =  1.00E-02,  avg # of iterations =  6.0

     negative rho (up, down):  3.706E-01 0.000E+00

     total cpu time spent up to now is        8.0 secs

     total energy              =     162.79804626 Ry
     Harris-Foulkes estimate   =    -634.85212241 Ry
     estimated scf accuracy    <      36.50925431 Ry

     iteration # 57     ecut=    30.00 Ry     beta=0.70
     Davidson diagonalization with overlap
     ethr =  1.00E-02,  avg # of iterations =  5.0

     negative rho (up, down):  6.235E-01 0.000E+00

     total cpu time spent up to now is        8.1 secs

     total energy              =     -37.61992029 Ry
     Harris-Foulkes estimate   =    -542.67629808 Ry
     estimated scf accuracy    <      37.07073387 Ry

     iteration # 58     ecut=    30.00 Ry     beta=0.70
     Davidson diagonalization with overlap
     ethr =  1.00E-02,  avg # of iterations = 10.0

     negative rho (up, down):  1.001E+00 0.000E+00

     total cpu time spent up to now is        8.1 secs

     total energy              =   -2208.32218708 Ry
     Harris-Foulkes estimate   =   -3499.93546949 Ry
     estimated scf accuracy    <      24.27281063 Ry

     iteration # 59     ecut=    30.00 Ry     beta=0.70
     Davidson diagonalization with overlap
     ethr =  1.00E-02,  avg # of iterations =  8.0

     negative rho (up, down):  1.273E+00 0.000E+00

     total cpu time spent up to now is        8.2 secs

     total energy              =    -178.76781008 Ry
     Harris-Foulkes estimate   =   -6903.05729964 Ry
     estimated scf accuracy    <      30.35289548 Ry

     iteration # 60     ecut=    30.00 Ry     beta=0.70
     Davidson diagonalization with overlap
     ethr =  1.00E-02,  avg # of iterations =  8.0

     negative rho (up, down):  8.826E-01 0.000E+00

     total cpu time spent up to now is        8.2 secs

     total energy              =     -10.53976795 Ry
     Harris-Foulkes estimate   =   -2490.56232131 Ry
     estimated scf accuracy    <      25.24228226 Ry

     iteration # 61     ecut=    30.00 Ry     beta=0.70
     Davidson diagonalization with overlap
     ethr =  1.00E-02,  avg # of iterations =  9.0

     negative rho (up, down):  1.199E+00 0.000E+00

     total cpu time spent up to now is        8.3 secs

     total energy              =      25.86745871 Ry
     Harris-Foulkes estimate   =  -17623.80890530 Ry
     estimated scf accuracy    <      28.22902647 Ry

     iteration # 62     ecut=    30.00 Ry     beta=0.70
     Davidson diagonalization with overlap
     ethr =  1.00E-02,  avg # of iterations = 10.0

     negative rho (up, down):  9.334E-01 0.000E+00

     total cpu time spent up to now is        8.4 secs

     total energy              =      29.56719625 Ry
     Harris-Foulkes estimate   =   -2342.92373623 Ry
     estimated scf accuracy    <      24.40469566 Ry

     iteration # 63     ecut=    30.00 Ry     beta=0.70
     Davidson diagonalization with overlap
     ethr =  1.00E-02,  avg # of iterations =  9.0

     negative rho (up, down):  7.061E-01 0.000E+00

     total cpu time spent up to now is        8.4 secs

     total energy              =      15.67129861 Ry
     Harris-Foulkes estimate   =    -917.16966958 Ry
     estimated scf accuracy    <      24.48904589 Ry

     iteration # 64     ecut=    30.00 Ry     beta=0.70
     Davidson diagonalization with overlap
     ethr =  1.00E-02,  avg # of iterations =  8.0

     negative rho (up, down):  6.796E-01 0.000E+00

     total cpu time spent up to now is        8.5 secs

     total energy              =    -549.52198416 Ry
     Harris-Foulkes estimate   =  -15819.94880292 Ry
     estimated scf accuracy    <      23.39707341 Ry

     iteration # 65     ecut=    30.00 Ry     beta=0.70
     Davidson diagonalization with overlap
     ethr =  1.00E-02,  avg # of iterations =  8.0

     negative rho (up, down):  5.118E-01 0.000E+00

     total cpu time spent up to now is        8.5 secs

     total energy              =     182.25876784 Ry
     Harris-Foulkes estimate   =  -10322.06415012 Ry
     estimated scf accuracy    <      19.40549294 Ry

     iteration # 66     ecut=    30.00 Ry     beta=0.70
     Davidson diagonalization with overlap
     ethr =  1.00E-02,  avg # of iterations =  7.0

     negative rho (up, down):  2.828E-02 0.000E+00

     total cpu time spent up to now is        8.6 secs

     total energy              =     102.69528725 Ry
     Harris-Foulkes estimate   =   -1580.05820717 Ry
     estimated scf accuracy    <      13.65457355 Ry

     iteration # 67     ecut=    30.00 Ry     beta=0.70
     Davidson diagonalization with overlap
     ethr =  1.00E-02,  avg # of iterations =  7.0

     negative rho (up, down):  1.046E-01 0.000E+00

     total cpu time spent up to now is        8.7 secs

     total energy              =      41.80554691 Ry
     Harris-Foulkes estimate   =   -1158.14306335 Ry
     estimated scf accuracy    <      18.93661822 Ry

     iteration # 68     ecut=    30.00 Ry     beta=0.70
     Davidson diagonalization with overlap
     ethr =  1.00E-02,  avg # of iterations = 10.0

     negative rho (up, down):  8.537E-02 0.000E+00

     total cpu time spent up to now is        8.7 secs

     total energy              =      73.44747216 Ry
     Harris-Foulkes estimate   =   -1484.82022039 Ry
     estimated scf accuracy    <      19.88904854 Ry

     iteration # 69     ecut=    30.00 Ry     beta=0.70
     Davidson diagonalization with overlap
     ethr =  1.00E-02,  avg # of iterations = 12.0

     negative rho (up, down):  1.991E-02 0.000E+00

     total cpu time spent up to now is        8.8 secs

     total energy              =      30.61305560 Ry
     Harris-Foulkes estimate   =    -187.72136935 Ry
     estimated scf accuracy    <      20.51039152 Ry

     iteration # 70     ecut=    30.00 Ry     beta=0.70
     Davidson diagonalization with overlap
     ethr =  1.00E-02,  avg # of iterations =  9.0

     negative rho (up, down):  1.752E-03 0.000E+00

     total cpu time spent up to now is        8.8 secs

     total energy              =     -55.55288690 Ry
     Harris-Foulkes estimate   =     -59.83017908 Ry
     estimated scf accuracy    <      44.05953852 Ry

     iteration # 71     ecut=    30.00 Ry     beta=0.70
     Davidson diagonalization with overlap
     ethr =  1.00E-02,  avg # of iterations =  1.0

     negative rho (up, down):  1.220E-04 0.000E+00

     total cpu time spent up to now is        8.9 secs

     total energy              =     -48.96901812 Ry
     Harris-Foulkes estimate   =     -55.57214067 Ry
     estimated scf accuracy    <      38.01334389 Ry

     iteration # 72     ecut=    30.00 Ry     beta=0.70
     Davidson diagonalization with overlap
     ethr =  1.00E-02,  avg # of iterations =  1.0

     negative rho (up, down):  1.622E-01 0.000E+00

     total cpu time spent up to now is        8.9 secs

     total energy              =     -37.39110000 Ry
     Harris-Foulkes estimate   =     -49.03343763 Ry
     estimated scf accuracy    <      28.79333897 Ry

     iteration # 73     ecut=    30.00 Ry     beta=0.70
     Davidson diagonalization with overlap
     ethr =  1.00E-02,  avg # of iterations =  8.0

     negative rho (up, down):  2.854E-01 0.000E+00

     total cpu time spent up to now is        8.9 secs

     total energy              =   -1333.77826699 Ry
     Harris-Foulkes estimate   =    -357.63555464 Ry
     estimated scf accuracy    <      39.06524667 Ry

     iteration # 74     ecut=    30.00 Ry     beta=0.70
     Davidson diagonalization with overlap
     ethr =  1.00E-02,  avg # of iterations =  8.0

     negative rho (up, down):  2.882E-01 0.000E+00

     total cpu time spent up to now is        9.0 secs

     total energy              =    -159.48531674 Ry
     Harris-Foulkes estimate   =   -2518.95995636 Ry
     estimated scf accuracy    <      33.93792411 Ry

     iteration # 75     ecut=    30.00 Ry     beta=0.70
     Davidson diagonalization with overlap
     ethr =  1.00E-02,  avg # of iterations =  8.0

     negative rho (up, down):  4.674E-01 0.000E+00

     total cpu time spent up to now is        9.1 secs

     total energy              =     -48.29079868 Ry
     Harris-Foulkes estimate   =    -376.28890321 Ry
     estimated scf accuracy    <      34.89632190 Ry

     iteration # 76     ecut=    30.00 Ry     beta=0.70
     Davidson diagonalization with overlap
     ethr =  1.00E-02,  avg # of iterations =  7.0

     negative rho (up, down):  3.919E-01 0.000E+00

     total cpu time spent up to now is        9.1 secs

     total energy              =   -3440.36947050 Ry
     Harris-Foulkes estimate   =   -1094.92910255 Ry
     estimated scf accuracy    <      37.56318477 Ry

     iteration # 77     ecut=    30.00 Ry     beta=0.70
     Davidson diagonalization with overlap
     ethr =  1.00E-02,  avg # of iterations =  7.0

     negative rho (up, down):  4.740E-01 0.000E+00

     total cpu time spent up to now is        9.2 secs

     total energy              =      15.19588968 Ry
     Harris-Foulkes estimate   =   -7194.17115826 Ry
     estimated scf accuracy    <      38.24032805 Ry

     iteration # 78     ecut=    30.00 Ry     beta=0.70
     Davidson diagonalization with overlap
     ethr =  1.00E-02,  avg # of iterations = 10.0

     negative rho (up, down):  1.024E+00 0.000E+00

     total cpu time spent up to now is        9.2 secs

     total energy              =   -2566.94305848 Ry
     Harris-Foulkes estimate   =    -679.87685279 Ry
     estimated scf accuracy    <      40.01043529 Ry

     iteration # 79     ecut=    30.00 Ry     beta=0.70
     Davidson diagonalization with overlap
     ethr =  1.00E-02,  avg # of iterations =  7.0

     negative rho (up, down):  6.983E-01 0.000E+00

     total cpu time spent up to now is        9.3 secs

     total energy              =    -202.41133426 Ry
     Harris-Foulkes estimate   =   -8016.83176752 Ry
     estimated scf accuracy    <      43.17339135 Ry

     iteration # 80     ecut=    30.00 Ry     beta=0.70
     Davidson diagonalization with overlap
     ethr =  1.00E-02,  avg # of iterations =  9.0

     negative rho (up, down):  7.108E-01 0.000E+00

     total cpu time spent up to now is        9.4 secs

     total energy              =      34.07421281 Ry
     Harris-Foulkes estimate   =   -1718.35288336 Ry
     estimated scf accuracy    <      37.07726621 Ry

     iteration # 81     ecut=    30.00 Ry     beta=0.70
     Davidson diagonalization with overlap
     ethr =  1.00E-02,  avg # of iterations =  6.0

     negative rho (up, down):  1.618E-01 0.000E+00

     total cpu time spent up to now is        9.4 secs

     total energy              =     115.92042083 Ry
     Harris-Foulkes estimate   =  -10080.46870195 Ry
     estimated scf accuracy    <      33.95273352 Ry

     iteration # 82     ecut=    30.00 Ry     beta=0.70
     Davidson diagonalization with overlap
     ethr =  1.00E-02,  avg # of iterations =  9.0

     negative rho (up, down):  3.808E-01 0.000E+00

     total cpu time spent up to now is        9.5 secs

     total energy              =      33.19689244 Ry
     Harris-Foulkes estimate   =    -379.61820160 Ry
     estimated scf accuracy    <      16.18057060 Ry

     iteration # 83     ecut=    30.00 Ry     beta=0.70
     Davidson diagonalization with overlap
     ethr =  1.00E-02,  avg # of iterations =  6.0

     negative rho (up, down):  4.627E-01 0.000E+00

     total cpu time spent up to now is        9.5 secs

     total energy              =     262.32905996 Ry
     Harris-Foulkes estimate   =   -5519.21826506 Ry
     estimated scf accuracy    <      24.19701693 Ry

     iteration # 84     ecut=    30.00 Ry     beta=0.70
     Davidson diagonalization with overlap
     ethr =  1.00E-02,  avg # of iterations =  8.0

     negative rho (up, down):  2.502E-01 0.000E+00

     total cpu time spent up to now is        9.6 secs

     total energy              =     127.76543262 Ry
     Harris-Foulkes estimate   =  -14233.26503603 Ry
     estimated scf accuracy    <      38.02412170 Ry

     iteration # 85     ecut=    30.00 Ry     beta=0.70
     Davidson diagonalization with overlap
     ethr =  1.00E-02,  avg # of iterations =  8.0

     negative rho (up, down):  2.789E-01 0.000E+00

     total cpu time spent up to now is        9.7 secs

     total energy              =     -47.25021028 Ry
     Harris-Foulkes estimate   =   -1056.32853633 Ry
     estimated scf accuracy    <      25.82713788 Ry

     iteration # 86     ecut=    30.00 Ry     beta=0.70
     Davidson diagonalization with overlap
     ethr =  1.00E-02,  avg # of iterations =  8.0

     negative rho (up, down):  1.700E-01 0.000E+00

     total cpu time spent up to now is        9.7 secs

     total energy              =     -12.81041364 Ry
     Harris-Foulkes estimate   =    -612.03820839 Ry
     estimated scf accuracy    <      21.69861966 Ry

     iteration # 87     ecut=    30.00 Ry     beta=0.70
     Davidson diagonalization with overlap
     ethr =  1.00E-02,  avg # of iterations =  8.0

     negative rho (up, down):  1.732E-01 0.000E+00

     total cpu time spent up to now is        9.8 secs

     total energy              =      84.51040384 Ry
     Harris-Foulkes estimate   =    -551.02359973 Ry
     estimated scf accuracy    <      26.59569402 Ry

     iteration # 88     ecut=    30.00 Ry     beta=0.70
     Davidson diagonalization with overlap
     ethr =  1.00E-02,  avg # of iterations =  6.0

     negative rho (up, down):  3.772E-05 0.000E+00

     total cpu time spent up to now is        9.8 secs

     total energy              =      68.12873907 Ry
     Harris-Foulkes estimate   =   -8647.28080442 Ry
     estimated scf accuracy    <      19.41595948 Ry

     iteration # 89     ecut=    30.00 Ry     beta=0.70
     Davidson diagonalization with overlap
     ethr =  1.00E-02,  avg # of iterations =  9.0

     negative rho (up, down):  8.568E-06 0.000E+00

     total cpu time spent up to now is        9.9 secs

     total energy              =     -45.14383378 Ry
     Harris-Foulkes estimate   =     -51.99973848 Ry
     estimated scf accuracy    <      35.93916943 Ry

     iteration # 90     ecut=    30.00 Ry     beta=0.70
     Davidson diagonalization with overlap
     ethr =  1.00E-02,  avg # of iterations =  1.0

     negative rho (up, down):  5.510E-02 0.000E+00

     total cpu time spent up to now is        9.9 secs

     total energy              =     -41.97186018 Ry
     Harris-Foulkes estimate   =     -45.22857740 Ry
     estimated scf accuracy    <      25.55559127 Ry

     iteration # 91     ecut=    30.00 Ry     beta=0.70
     Davidson diagonalization with overlap
     ethr =  1.00E-02,  avg # of iterations =  6.0

     negative rho (up, down):  9.463E-02 0.000E+00

     total cpu time spent up to now is       10.0 secs

     total energy              =      34.70315646 Ry
     Harris-Foulkes estimate   =    -322.98354003 Ry
     estimated scf accuracy    <      15.23750782 Ry

     iteration # 92     ecut=    30.00 Ry     beta=0.70
     Davidson diagonalization with overlap
     ethr =  1.00E-02,  avg # of iterations =  5.0

     negative rho (up, down):  2.471E-01 0.000E+00

     total cpu time spent up to now is       10.0 secs

     total energy              =   -2454.05344827 Ry
     Harris-Foulkes estimate   =   -1428.70994554 Ry
     estimated scf accuracy    <      20.58958970 Ry

     iteration # 93     ecut=    30.00 Ry     beta=0.70
     Davidson diagonalization with overlap
     ethr =  1.00E-02,  avg # of iterations =  7.0

     negative rho (up, down):  4.031E-01 0.000E+00

     total cpu time spent up to now is       10.1 secs

     total energy              =     -51.47781432 Ry
     Harris-Foulkes estimate   =   -8182.49825277 Ry
     estimated scf accuracy    <      21.03555097 Ry

     iteration # 94     ecut=    30.00 Ry     beta=0.70
     Davidson diagonalization with overlap
     ethr =  1.00E-02,  avg # of iterations =  8.0

     negative rho (up, down):  3.028E-01 0.000E+00

     total cpu time spent up to now is       10.1 secs

     total energy              =      64.58357730 Ry
     Harris-Foulkes estimate   =   -1490.53948800 Ry
     estimated scf accuracy    <      26.03365961 Ry

     iteration # 95     ecut=    30.00 Ry     beta=0.70
     Davidson diagonalization with overlap
     ethr =  1.00E-02,  avg # of iterations =  7.0

     negative rho (up, down):  3.095E-03 0.000E+00

     total cpu time spent up to now is       10.2 secs

     total energy              =      65.58870099 Ry
     Harris-Foulkes estimate   =   -1018.69640337 Ry
     estimated scf accuracy    <      25.41977364 Ry

     iteration # 96     ecut=    30.00 Ry     beta=0.70
     Davidson diagonalization with overlap
     ethr =  1.00E-02,  avg # of iterations = 11.0

     negative rho (up, down):  1.691E-01 0.000E+00

     total cpu time spent up to now is       10.3 secs

     total energy              =      -4.74297115 Ry
     Harris-Foulkes estimate   =    -103.00504129 Ry
     estimated scf accuracy    <      10.10296621 Ry

     iteration # 97     ecut=    30.00 Ry     beta=0.70
     Davidson diagonalization with overlap
     ethr =  1.00E-02,  avg # of iterations =  4.0

     negative rho (up, down):  3.622E-04 0.000E+00

     total cpu time spent up to now is       10.3 secs

     total energy              =      25.07092984 Ry
     Harris-Foulkes estimate   =    -648.59432469 Ry
     estimated scf accuracy    <      16.86515948 Ry

     iteration # 98     ecut=    30.00 Ry     beta=0.70
     Davidson diagonalization with overlap
     ethr =  1.00E-02,  avg # of iterations =  8.0

     negative rho (up, down):  8.281E-04 0.000E+00

     total cpu time spent up to now is       10.3 secs

     total energy              =     -37.38039919 Ry
     Harris-Foulkes estimate   =     -39.63839416 Ry
     estimated scf accuracy    <      13.45425497 Ry

     iteration # 99     ecut=    30.00 Ry     beta=0.70
     Davidson diagonalization with overlap
     ethr =  1.00E-02,  avg # of iterations =  1.0

     negative rho (up, down):  1.093E-03 0.000E+00

     total cpu time spent up to now is       10.4 secs

     total energy              =     -36.62008630 Ry
     Harris-Foulkes estimate   =     -37.47303045 Ry
     estimated scf accuracy    <       9.67172351 Ry

     iteration #100     ecut=    30.00 Ry     beta=0.70
     Davidson diagonalization with overlap
     ethr =  1.00E-02,  avg # of iterations =  1.0

     negative rho (up, down):  1.782E-01 0.000E+00

     total cpu time spent up to now is       10.4 secs

     total energy              =     -35.11922979 Ry
     Harris-Foulkes estimate   =     -36.64382526 Ry
     estimated scf accuracy    <       8.97300965 Ry

     End of self-consistent calculation

     convergence NOT achieved after 100 iterations: stopping

     Writing output data file pwscf.save
 
     init_run     :      0.09s CPU      0.11s WALL (       1 calls)
     electrons    :      7.88s CPU      9.50s WALL (       4 calls)
     update_pot   :      0.33s CPU      0.46s WALL (       3 calls)
     forces       :      0.08s CPU      0.08s WALL (       3 calls)

     Called by init_run:
     wfcinit      :      0.01s CPU      0.02s WALL (       1 calls)
     potinit      :      0.02s CPU      0.03s WALL (       1 calls)

     Called by electrons:
     c_bands      :      4.04s CPU      4.24s WALL (     202 calls)
     sum_band     :      0.60s CPU      0.63s WALL (     202 calls)
     v_of_rho     :      1.54s CPU      1.63s WALL (     206 calls)
     mix_rho      :      1.48s CPU      2.43s WALL (     202 calls)

     Called by c_bands:
     init_us_2    :      0.02s CPU      0.02s WALL (     405 calls)
     cegterg      :      4.00s CPU      4.14s WALL (     203 calls)

     Called by sum_band:

     Called by *egterg:
     h_psi        :      3.31s CPU      3.40s WALL (    1159 calls)
     g_psi        :      0.04s CPU      0.04s WALL (     955 calls)
     cdiaghg      :      0.23s CPU      0.24s WALL (    1154 calls)

     Called by h_psi:
     h_psi:pot    :      3.29s CPU      3.38s WALL (    1159 calls)
     h_psi:calbec :      0.04s CPU      0.06s WALL (    1159 calls)
     vloc_psi     :      3.24s CPU      3.31s WALL (    1159 calls)
     add_vuspsi   :      0.01s CPU      0.01s WALL (    1159 calls)

     General routines
     calbec       :      0.05s CPU      0.07s WALL (    1173 calls)
     fft          :      1.02s CPU      1.08s WALL (    2272 calls)
     fftw         :      3.31s CPU      3.40s WALL (   14718 calls)
     davcio       :      0.23s CPU      0.87s WALL (    3697 calls)
 
     Parallel routines
     fft_scatter  :      1.61s CPU      1.70s WALL (   16990 calls)
 
     PWSCF        :     8.55s CPU        10.50s WALL

 
   This run was terminated on:   8:51:14  14Feb2018            

=------------------------------------------------------------------------------=
   JOB DONE.
=------------------------------------------------------------------------------=
