
     Program PWSCF v.6.0 (svn rev. 13079) starts on 14Feb2018 at  8:52:20 

     This program is part of the open-source Quantum ESPRESSO suite
     for quantum simulation of materials; please cite
         "P. Giannozzi et al., J. Phys.:Condens. Matter 21 395502 (2009);
          URL http://www.quantum-espresso.org", 
     in publications or presentations arising from this work. More details at
     http://www.quantum-espresso.org/quote

     Parallel version (MPI), running on    28 processors
     R & G space division:  proc/nbgrp/npool/nimage =      28
     Reading input from inputs/MD-H2O-2/476.in

     Current dimensions of program PWSCF are:
     Max number of different atomic species (ntypx) = 10
     Max number of k-points (npk) =  40000
     Max angular momentum in pseudopotentials (lmaxx) =  3

     Subspace diagonalization in iterative solution of the eigenvalue problem:
     a serial algorithm will be used

 
     Parallelization info
     --------------------
     sticks:   dense  smooth     PW     G-vecs:    dense   smooth      PW
     Min         136     136     33                 6338     6338     787
     Max         137     137     34                 6341     6341     792
     Sum        3809    3809    949               177509   177509   22119
 


     bravais-lattice index     =            1
     lattice parameter (alat)  =      20.0000  a.u.
     unit-cell volume          =    8000.0000 (a.u.)^3
     number of atoms/cell      =            3
     number of atomic types    =            2
     number of electrons       =         8.00
     number of Kohn-Sham states=            8
     kinetic-energy cutoff     =      30.0000  Ry
     charge density cutoff     =     120.0000  Ry
     convergence threshold     =      1.0E-08
     mixing beta               =       0.7000
     number of iterations used =            8  plain     mixing
     Exchange-correlation      = BLYP ( 1  3  1  3 0 0)
     nstep                     =         5000


     celldm(1)=  20.000000  celldm(2)=   0.000000  celldm(3)=   0.000000
     celldm(4)=   0.000000  celldm(5)=   0.000000  celldm(6)=   0.000000

     crystal axes: (cart. coord. in units of alat)
               a(1) = (   1.000000   0.000000   0.000000 )  
               a(2) = (   0.000000   1.000000   0.000000 )  
               a(3) = (   0.000000   0.000000   1.000000 )  

     reciprocal axes: (cart. coord. in units 2 pi/alat)
               b(1) = (  1.000000  0.000000  0.000000 )  
               b(2) = (  0.000000  1.000000  0.000000 )  
               b(3) = (  0.000000  0.000000  1.000000 )  


     PseudoPot. # 1 for  H read from file:
     ./H.blyp-hgh.UPF
     MD5 check sum: c576e69559cde411e611be972c763230
     Pseudo is Norm-conserving, Zval =  1.0
     Generated in analytical, separable form
     Using radial grid of  929 points,  0 beta functions with: 

     PseudoPot. # 2 for  O read from file:
     ./O.blyp-hgh.UPF
     MD5 check sum: d0b7156309aa9befef28faac7bc56342
     Pseudo is Norm-conserving, Zval =  6.0
     Generated in analytical, separable form
     Using radial grid of 1095 points,  1 beta functions with: 
                l(1) =   0

     atomic species   valence    mass     pseudopotential
        H              1.00     1.01000      H( 1.00)
        O              6.00    16.00000      O( 1.00)

     No symmetry found



   Cartesian axes

     site n.     atom                  positions (alat units)
         1           H   tau(   1) = (   0.8132257   0.8670307   0.4011413  )
         2           H   tau(   2) = (   0.1486182   0.8619037   0.0970545  )
         3           O   tau(   3) = (   0.2206493   0.8392195   1.0323305  )

     number of k points=     1  Marzari-Vanderbilt smearing, width (Ry)=  0.0250
                       cart. coord. in units 2pi/alat
        k(    1) = (   0.0000000   0.0000000   0.0000000), wk =   2.0000000

     Dense  grid:   177509 G-vectors     FFT dimensions: (  72,  72,  72)

     Estimated max dynamical RAM per process >       6.09Mb

     Estimated total allocated dynamical RAM >     170.64Mb

     Initial potential from superposition of free atoms
     Check: negative starting charge=   -0.349666

     starting charge    7.99998, renormalised to    8.00000

     negative rho (up, down):  3.497E-01 0.000E+00
     Starting wfc are    6 randomized atomic wfcs +    2 random wfc

     total cpu time spent up to now is        0.2 secs

     per-process dynamical memory:    18.8 Mb

     Self-consistent Calculation

     iteration #  1     ecut=    30.00 Ry     beta=0.70
     Davidson diagonalization with overlap
     ethr =  1.00E-02,  avg # of iterations =  9.0

     negative rho (up, down):  9.149E-02 0.000E+00

     total cpu time spent up to now is        0.3 secs

     total energy              =     -30.35730029 Ry
     Harris-Foulkes estimate   =     -32.23488873 Ry
     estimated scf accuracy    <       2.16231784 Ry

     iteration #  2     ecut=    30.00 Ry     beta=0.70
     Davidson diagonalization with overlap
     ethr =  1.00E-02,  avg # of iterations =  3.0

     negative rho (up, down):  6.661E-02 0.000E+00

     total cpu time spent up to now is        0.3 secs

     total energy              =     -32.28958992 Ry
     Harris-Foulkes estimate   =     -34.58371549 Ry
     estimated scf accuracy    <       5.59333172 Ry

     iteration #  3     ecut=    30.00 Ry     beta=0.70
     Davidson diagonalization with overlap
     ethr =  1.00E-02,  avg # of iterations =  2.0

     negative rho (up, down):  6.409E-02 0.000E+00

     total cpu time spent up to now is        0.4 secs

     total energy              =     -32.43980010 Ry
     Harris-Foulkes estimate   =     -32.52501164 Ry
     estimated scf accuracy    <       1.81739356 Ry

     iteration #  4     ecut=    30.00 Ry     beta=0.70
     Davidson diagonalization with overlap
     ethr =  1.00E-02,  avg # of iterations =  1.0

     negative rho (up, down):  1.226E-02 0.000E+00

     total cpu time spent up to now is        0.4 secs

     total energy              =     -31.29875710 Ry
     Harris-Foulkes estimate   =     -32.44012778 Ry
     estimated scf accuracy    <       1.69915952 Ry

     iteration #  5     ecut=    30.00 Ry     beta=0.70
     Davidson diagonalization with overlap
     ethr =  1.00E-02,  avg # of iterations =  4.0

     negative rho (up, down):  2.269E-02 0.000E+00

     total cpu time spent up to now is        0.4 secs

     total energy              =     -33.32768342 Ry
     Harris-Foulkes estimate   =     -33.19038570 Ry
     estimated scf accuracy    <       7.61177198 Ry

     iteration #  6     ecut=    30.00 Ry     beta=0.70
     Davidson diagonalization with overlap
     ethr =  1.00E-02,  avg # of iterations =  1.0

     negative rho (up, down):  1.374E-02 0.000E+00

     total cpu time spent up to now is        0.5 secs

     total energy              =     -32.91969252 Ry
     Harris-Foulkes estimate   =     -33.33807795 Ry
     estimated scf accuracy    <       9.23348945 Ry

     iteration #  7     ecut=    30.00 Ry     beta=0.70
     Davidson diagonalization with overlap
     ethr =  1.00E-02,  avg # of iterations =  1.0

     negative rho (up, down):  1.158E-02 0.000E+00

     total cpu time spent up to now is        0.5 secs

     total energy              =     -32.85747182 Ry
     Harris-Foulkes estimate   =     -33.00115291 Ry
     estimated scf accuracy    <       3.25857294 Ry

     iteration #  8     ecut=    30.00 Ry     beta=0.70
     Davidson diagonalization with overlap
     ethr =  1.00E-02,  avg # of iterations =  1.0

     negative rho (up, down):  5.202E-02 0.000E+00

     total cpu time spent up to now is        0.5 secs

     total energy              =     -32.43392096 Ry
     Harris-Foulkes estimate   =     -32.86132713 Ry
     estimated scf accuracy    <       2.86702127 Ry

     iteration #  9     ecut=    30.00 Ry     beta=0.70
     Davidson diagonalization with overlap
     ethr =  1.00E-02,  avg # of iterations =  1.0

     negative rho (up, down):  5.138E-02 0.000E+00

     total cpu time spent up to now is        0.6 secs

     total energy              =     -32.00486419 Ry
     Harris-Foulkes estimate   =     -32.44452727 Ry
     estimated scf accuracy    <       2.07268847 Ry

     iteration # 10     ecut=    30.00 Ry     beta=0.70
     Davidson diagonalization with overlap
     ethr =  1.00E-02,  avg # of iterations =  1.0

     negative rho (up, down):  4.236E-02 0.000E+00

     total cpu time spent up to now is        0.6 secs

     total energy              =     -32.29178920 Ry
     Harris-Foulkes estimate   =     -32.02111295 Ry
     estimated scf accuracy    <       1.30842332 Ry

     iteration # 11     ecut=    30.00 Ry     beta=0.70
     Davidson diagonalization with overlap
     ethr =  1.00E-02,  avg # of iterations =  1.0

     negative rho (up, down):  2.969E-02 0.000E+00

     total cpu time spent up to now is        0.6 secs

     total energy              =     -32.12332915 Ry
     Harris-Foulkes estimate   =     -32.29723981 Ry
     estimated scf accuracy    <       1.75863710 Ry

     iteration # 12     ecut=    30.00 Ry     beta=0.70
     Davidson diagonalization with overlap
     ethr =  1.00E-02,  avg # of iterations =  1.0

     negative rho (up, down):  1.771E-01 0.000E+00

     total cpu time spent up to now is        0.7 secs

     total energy              =     -31.92124590 Ry
     Harris-Foulkes estimate   =     -32.12530053 Ry
     estimated scf accuracy    <       1.48023667 Ry

     iteration # 13     ecut=    30.00 Ry     beta=0.70
     Davidson diagonalization with overlap
     ethr =  1.00E-02,  avg # of iterations =  1.0

     negative rho (up, down):  3.587E-01 0.000E+00

     total cpu time spent up to now is        0.7 secs

     total energy              =     -31.95358942 Ry
     Harris-Foulkes estimate   =     -31.94754601 Ry
     estimated scf accuracy    <       0.06433018 Ry

     iteration # 14     ecut=    30.00 Ry     beta=0.70
     Davidson diagonalization with overlap
     ethr =  8.04E-04,  avg # of iterations =  2.0

     negative rho (up, down):  5.939E-03 0.000E+00

     total cpu time spent up to now is        0.7 secs

     total energy              =     -31.84250041 Ry
     Harris-Foulkes estimate   =     -32.11839677 Ry
     estimated scf accuracy    <       1.56134209 Ry

     iteration # 15     ecut=    30.00 Ry     beta=0.70
     Davidson diagonalization with overlap
     ethr =  8.04E-04,  avg # of iterations =  4.0

     negative rho (up, down):  1.003E-03 0.000E+00

     total cpu time spent up to now is        0.8 secs

     total energy              =     -32.02624664 Ry
     Harris-Foulkes estimate   =     -31.99612771 Ry
     estimated scf accuracy    <       0.93695820 Ry

     iteration # 16     ecut=    30.00 Ry     beta=0.70
     Davidson diagonalization with overlap
     ethr =  8.04E-04,  avg # of iterations =  1.0

     negative rho (up, down):  1.108E-04 0.000E+00

     total cpu time spent up to now is        0.8 secs

     total energy              =     -31.97526112 Ry
     Harris-Foulkes estimate   =     -32.02697767 Ry
     estimated scf accuracy    <       1.00067169 Ry

     iteration # 17     ecut=    30.00 Ry     beta=0.70
     Davidson diagonalization with overlap
     ethr =  8.04E-04,  avg # of iterations =  1.0

     negative rho (up, down):  7.070E-04 0.000E+00

     total cpu time spent up to now is        0.9 secs

     total energy              =     -31.96814916 Ry
     Harris-Foulkes estimate   =     -31.97550006 Ry
     estimated scf accuracy    <       0.91369068 Ry

     iteration # 18     ecut=    30.00 Ry     beta=0.70
     Davidson diagonalization with overlap
     ethr =  8.04E-04,  avg # of iterations =  1.0

     negative rho (up, down):  7.012E-05 0.000E+00

     total cpu time spent up to now is        0.9 secs

     total energy              =     -32.01575148 Ry
     Harris-Foulkes estimate   =     -31.96827011 Ry
     estimated scf accuracy    <       0.84359680 Ry

     iteration # 19     ecut=    30.00 Ry     beta=0.70
     Davidson diagonalization with overlap
     ethr =  8.04E-04,  avg # of iterations =  1.0

     negative rho (up, down):  3.567E-04 0.000E+00

     total cpu time spent up to now is        1.0 secs

     total energy              =     -32.07453946 Ry
     Harris-Foulkes estimate   =     -32.01797345 Ry
     estimated scf accuracy    <       1.00591878 Ry

     iteration # 20     ecut=    30.00 Ry     beta=0.70
     Davidson diagonalization with overlap
     ethr =  8.04E-04,  avg # of iterations =  1.0

     negative rho (up, down):  1.731E-03 0.000E+00

     total cpu time spent up to now is        1.0 secs

     total energy              =     -31.91585938 Ry
     Harris-Foulkes estimate   =     -32.07478569 Ry
     estimated scf accuracy    <       1.09603622 Ry

     iteration # 21     ecut=    30.00 Ry     beta=0.70
     Davidson diagonalization with overlap
     ethr =  8.04E-04,  avg # of iterations =  1.0

     negative rho (up, down):  2.197E-04 0.000E+00

     total cpu time spent up to now is        1.1 secs

     total energy              =     -31.90204915 Ry
     Harris-Foulkes estimate   =     -31.94983620 Ry
     estimated scf accuracy    <       0.29862242 Ry

     iteration # 22     ecut=    30.00 Ry     beta=0.70
     Davidson diagonalization with overlap
     ethr =  8.04E-04,  avg # of iterations =  1.0

     negative rho (up, down):  9.774E-04 0.000E+00

     total cpu time spent up to now is        1.2 secs

     total energy              =     -32.06646491 Ry
     Harris-Foulkes estimate   =     -32.00652222 Ry
     estimated scf accuracy    <       0.96370439 Ry

     iteration # 23     ecut=    30.00 Ry     beta=0.70
     Davidson diagonalization with overlap
     ethr =  8.04E-04,  avg # of iterations =  1.0

     negative rho (up, down):  2.192E-04 0.000E+00

     total cpu time spent up to now is        1.2 secs

     total energy              =     -32.01432590 Ry
     Harris-Foulkes estimate   =     -32.06663784 Ry
     estimated scf accuracy    <       1.04662058 Ry

     iteration # 24     ecut=    30.00 Ry     beta=0.70
     Davidson diagonalization with overlap
     ethr =  8.04E-04,  avg # of iterations =  1.0

     negative rho (up, down):  5.361E-05 0.000E+00

     total cpu time spent up to now is        1.3 secs

     total energy              =     -31.92921410 Ry
     Harris-Foulkes estimate   =     -32.01447205 Ry
     estimated scf accuracy    <       0.98990065 Ry

     iteration # 25     ecut=    30.00 Ry     beta=0.70
     Davidson diagonalization with overlap
     ethr =  8.04E-04,  avg # of iterations =  1.0

     negative rho (up, down):  1.898E-06 0.000E+00

     total cpu time spent up to now is        1.3 secs

     total energy              =     -31.94395224 Ry
     Harris-Foulkes estimate   =     -31.94614735 Ry
     estimated scf accuracy    <       0.00412205 Ry

     iteration # 26     ecut=    30.00 Ry     beta=0.70
     Davidson diagonalization with overlap
     ethr =  5.15E-05,  avg # of iterations =  8.0

     negative rho (up, down):  6.602E-07 0.000E+00

     total cpu time spent up to now is        1.4 secs

     total energy              =     -31.95128719 Ry
     Harris-Foulkes estimate   =     -31.97027861 Ry
     estimated scf accuracy    <       0.85557547 Ry

     iteration # 27     ecut=    30.00 Ry     beta=0.70
     Davidson diagonalization with overlap
     ethr =  5.15E-05,  avg # of iterations =  1.0

     negative rho (up, down):  3.119E-07 0.000E+00

     total cpu time spent up to now is        1.4 secs

     total energy              =     -31.93681763 Ry
     Harris-Foulkes estimate   =     -31.95337587 Ry
     estimated scf accuracy    <       0.42155431 Ry

     iteration # 28     ecut=    30.00 Ry     beta=0.70
     Davidson diagonalization with overlap
     ethr =  5.15E-05,  avg # of iterations =  1.0

     negative rho (up, down):  5.169E-08 0.000E+00

     total cpu time spent up to now is        1.5 secs

     total energy              =     -31.94443651 Ry
     Harris-Foulkes estimate   =     -31.94665924 Ry
     estimated scf accuracy    <       0.04293764 Ry

     iteration # 29     ecut=    30.00 Ry     beta=0.70
     Davidson diagonalization with overlap
     ethr =  5.15E-05,  avg # of iterations =  1.0

     total cpu time spent up to now is        1.6 secs

     total energy              =     -31.94553087 Ry
     Harris-Foulkes estimate   =     -31.94672234 Ry
     estimated scf accuracy    <       0.04399185 Ry

     iteration # 30     ecut=    30.00 Ry     beta=0.70
     Davidson diagonalization with overlap
     ethr =  5.15E-05,  avg # of iterations =  1.0

     total cpu time spent up to now is        1.6 secs

     total energy              =     -31.94612114 Ry
     Harris-Foulkes estimate   =     -31.94612047 Ry
     estimated scf accuracy    <       0.00000541 Ry

     iteration # 31     ecut=    30.00 Ry     beta=0.70
     Davidson diagonalization with overlap
     ethr =  6.76E-08,  avg # of iterations = 17.0

     total cpu time spent up to now is        1.7 secs

     total energy              =     -31.94615982 Ry
     Harris-Foulkes estimate   =     -31.94613671 Ry
     estimated scf accuracy    <       0.00104402 Ry

     iteration # 32     ecut=    30.00 Ry     beta=0.70
     Davidson diagonalization with overlap
     ethr =  6.76E-08,  avg # of iterations =  1.0

     total cpu time spent up to now is        1.8 secs

     total energy              =     -31.94610878 Ry
     Harris-Foulkes estimate   =     -31.94616938 Ry
     estimated scf accuracy    <       0.00353645 Ry

     iteration # 33     ecut=    30.00 Ry     beta=0.70
     Davidson diagonalization with overlap
     ethr =  6.76E-08,  avg # of iterations =  1.0

     total cpu time spent up to now is        1.9 secs

     total energy              =     -31.94611322 Ry
     Harris-Foulkes estimate   =     -31.94612854 Ry
     estimated scf accuracy    <       0.00041338 Ry

     iteration # 34     ecut=    30.00 Ry     beta=0.70
     Davidson diagonalization with overlap
     ethr =  6.76E-08,  avg # of iterations =  1.0

     total cpu time spent up to now is        1.9 secs

     total energy              =     -31.94612390 Ry
     Harris-Foulkes estimate   =     -31.94612453 Ry
     estimated scf accuracy    <       0.00008923 Ry

     iteration # 35     ecut=    30.00 Ry     beta=0.70
     Davidson diagonalization with overlap
     ethr =  6.76E-08,  avg # of iterations =  1.0

     total cpu time spent up to now is        2.0 secs

     total energy              =     -31.94612292 Ry
     Harris-Foulkes estimate   =     -31.94612399 Ry
     estimated scf accuracy    <       0.00004755 Ry

     iteration # 36     ecut=    30.00 Ry     beta=0.70
     Davidson diagonalization with overlap
     ethr =  6.76E-08,  avg # of iterations =  1.0

     total cpu time spent up to now is        2.1 secs

     total energy              =     -31.94612330 Ry
     Harris-Foulkes estimate   =     -31.94612332 Ry
     estimated scf accuracy    <       0.00000155 Ry

     iteration # 37     ecut=    30.00 Ry     beta=0.70
     Davidson diagonalization with overlap
     ethr =  1.94E-08,  avg # of iterations =  1.0

     total cpu time spent up to now is        2.2 secs

     End of self-consistent calculation

          k = 0.0000 0.0000 0.0000 ( 22119 PWs)   bands (ev):

   -24.8280 -10.6744  -7.0829  -7.0827  -6.9446  -0.7291   0.2859   0.7819

     the Fermi energy is    -6.9128 ev

!    total energy              =     -31.94612342 Ry
     Harris-Foulkes estimate   =     -31.94612332 Ry
     estimated scf accuracy    <          3.2E-09 Ry

     convergence has been achieved in  37 iterations

     Forces acting on atoms (Ry/au):

     atom    1 type  1   force =     0.00010009   -0.00019934   -0.00013995
     atom    2 type  1   force =    -0.01163637    0.00357089    0.01069019
     atom    3 type  2   force =     0.01153628   -0.00337155   -0.01055025

     Total force =     0.022765     Total SCF correction =     0.000154

     Molecular Dynamics Calculation

     Starting temperature  =  1000.00 K

     temperature is controlled by Andersen thermostat
     Collision frequency = 1.0000/timestep
     mass H                =     1.01
     mass O                =    16.00
     Time step             =   100.00 a.u.,  4.8378 femto-seconds

     Entering Dynamics:    iteration =     1
                           time      =   0.0048 pico-seconds


     Andersen thermostat:    3 collisions

ATOMIC_POSITIONS (bohr)
H       16.419659269  17.129360449   8.094273674
H        2.864629262  17.423237134   2.084647206
O        4.409993147  16.786036958  20.633037817


     kinetic energy (Ekin) =     0.00517896 Ry
     temperature           =   272.56394834 K 
     Ekin + Etot (const)   =   -31.94094446 Ry

     Linear momentum :    0.0000000000   -0.0000000000    0.0000000000

     Writing output data file pwscf.save
     Check: negative starting charge=   -0.349666
     NEW-OLD atomic charge density approx. for the potential
     Check: negative starting charge=   -0.349623

     negative rho (up, down):  3.285E-02 0.000E+00

     total cpu time spent up to now is        3.0 secs

     per-process dynamical memory:    20.4 Mb

     Self-consistent Calculation

     iteration #  1     ecut=    30.00 Ry     beta=0.70
     Davidson diagonalization with overlap
     c_bands:  1 eigenvalues not converged
     ethr =  1.00E-06,  avg # of iterations = 20.0

     negative rho (up, down):  7.388E-03 0.000E+00

     total cpu time spent up to now is        3.2 secs

     total energy              =     -31.39237108 Ry
     Harris-Foulkes estimate   =     -31.90749164 Ry
     estimated scf accuracy    <       0.67135348 Ry

     iteration #  2     ecut=    30.00 Ry     beta=0.70
     Davidson diagonalization with overlap
     ethr =  8.39E-03,  avg # of iterations =  3.0

     negative rho (up, down):  5.663E-03 0.000E+00

     total cpu time spent up to now is        3.2 secs

     total energy              =     -32.13220709 Ry
     Harris-Foulkes estimate   =     -33.29132095 Ry
     estimated scf accuracy    <       3.38617819 Ry

     iteration #  3     ecut=    30.00 Ry     beta=0.70
     Davidson diagonalization with overlap
     ethr =  8.39E-03,  avg # of iterations =  2.0

     negative rho (up, down):  5.006E-03 0.000E+00

     total cpu time spent up to now is        3.3 secs

     total energy              =     -32.07750197 Ry
     Harris-Foulkes estimate   =     -32.24301970 Ry
     estimated scf accuracy    <       1.33783484 Ry

     iteration #  4     ecut=    30.00 Ry     beta=0.70
     Davidson diagonalization with overlap
     ethr =  8.39E-03,  avg # of iterations =  1.0

     negative rho (up, down):  3.693E-03 0.000E+00

     total cpu time spent up to now is        3.3 secs

     total energy              =     -31.77313885 Ry
     Harris-Foulkes estimate   =     -32.07010981 Ry
     estimated scf accuracy    <       1.12015633 Ry

     iteration #  5     ecut=    30.00 Ry     beta=0.70
     Davidson diagonalization with overlap
     ethr =  8.39E-03,  avg # of iterations =  1.0

     negative rho (up, down):  5.318E-04 0.000E+00

     total cpu time spent up to now is        3.4 secs

     total energy              =     -32.04946558 Ry
     Harris-Foulkes estimate   =     -32.08577606 Ry
     estimated scf accuracy    <       1.39371812 Ry

     iteration #  6     ecut=    30.00 Ry     beta=0.70
     Davidson diagonalization with overlap
     ethr =  8.39E-03,  avg # of iterations =  1.0

     negative rho (up, down):  1.471E-04 0.000E+00

     total cpu time spent up to now is        3.4 secs

     total energy              =     -31.95563200 Ry
     Harris-Foulkes estimate   =     -32.05067377 Ry
     estimated scf accuracy    <       1.34123611 Ry

     iteration #  7     ecut=    30.00 Ry     beta=0.70
     Davidson diagonalization with overlap
     ethr =  8.39E-03,  avg # of iterations =  1.0

     negative rho (up, down):  7.788E-05 0.000E+00

     total cpu time spent up to now is        3.5 secs

     total energy              =     -31.88596949 Ry
     Harris-Foulkes estimate   =     -31.95249384 Ry
     estimated scf accuracy    <       1.40637904 Ry

     iteration #  8     ecut=    30.00 Ry     beta=0.70
     Davidson diagonalization with overlap
     ethr =  8.39E-03,  avg # of iterations =  1.0

     negative rho (up, down):  5.766E-06 0.000E+00

     total cpu time spent up to now is        3.5 secs

     total energy              =     -31.93585031 Ry
     Harris-Foulkes estimate   =     -31.93832718 Ry
     estimated scf accuracy    <       0.47379742 Ry

     iteration #  9     ecut=    30.00 Ry     beta=0.70
     Davidson diagonalization with overlap
     ethr =  5.92E-03,  avg # of iterations =  1.0

     negative rho (up, down):  1.088E-07 0.000E+00

     total cpu time spent up to now is        3.6 secs

     total energy              =     -31.91495285 Ry
     Harris-Foulkes estimate   =     -31.93599410 Ry
     estimated scf accuracy    <       0.36957478 Ry

     iteration # 10     ecut=    30.00 Ry     beta=0.70
     Davidson diagonalization with overlap
     ethr =  4.62E-03,  avg # of iterations =  1.0

     negative rho (up, down):  4.541E-06 0.000E+00

     total cpu time spent up to now is        3.6 secs

     total energy              =     -31.94404247 Ry
     Harris-Foulkes estimate   =     -31.93514891 Ry
     estimated scf accuracy    <       0.42219780 Ry

     iteration # 11     ecut=    30.00 Ry     beta=0.70
     Davidson diagonalization with overlap
     ethr =  4.62E-03,  avg # of iterations =  1.0

     negative rho (up, down):  3.037E-08 0.000E+00

     total cpu time spent up to now is        3.7 secs

     total energy              =     -31.94622069 Ry
     Harris-Foulkes estimate   =     -31.94719497 Ry
     estimated scf accuracy    <       1.18557539 Ry

     iteration # 12     ecut=    30.00 Ry     beta=0.70
     Davidson diagonalization with overlap
     ethr =  4.62E-03,  avg # of iterations =  1.0

     negative rho (up, down):  5.279E-08 0.000E+00

     total cpu time spent up to now is        3.8 secs

     total energy              =     -31.94331223 Ry
     Harris-Foulkes estimate   =     -31.94623190 Ry
     estimated scf accuracy    <       1.13744107 Ry

     iteration # 13     ecut=    30.00 Ry     beta=0.70
     Davidson diagonalization with overlap
     ethr =  4.62E-03,  avg # of iterations =  1.0

     negative rho (up, down):  2.558E-06 0.000E+00

     total cpu time spent up to now is        3.8 secs

     total energy              =     -31.90869553 Ry
     Harris-Foulkes estimate   =     -31.94341055 Ry
     estimated scf accuracy    <       0.98292013 Ry

     iteration # 14     ecut=    30.00 Ry     beta=0.70
     Davidson diagonalization with overlap
     ethr =  4.62E-03,  avg # of iterations =  1.0

     negative rho (up, down):  4.960E-07 0.000E+00

     total cpu time spent up to now is        3.9 secs

     total energy              =     -31.92945811 Ry
     Harris-Foulkes estimate   =     -31.93133396 Ry
     estimated scf accuracy    <       0.10678011 Ry

     iteration # 15     ecut=    30.00 Ry     beta=0.70
     Davidson diagonalization with overlap
     ethr =  1.33E-03,  avg # of iterations =  1.0

     negative rho (up, down):  2.991E-07 0.000E+00

     total cpu time spent up to now is        3.9 secs

     total energy              =     -31.92942819 Ry
     Harris-Foulkes estimate   =     -31.93002482 Ry
     estimated scf accuracy    <       0.01546211 Ry

     iteration # 16     ecut=    30.00 Ry     beta=0.70
     Davidson diagonalization with overlap
     ethr =  1.93E-04,  avg # of iterations =  1.0

     negative rho (up, down):  7.745E-08 0.000E+00

     total cpu time spent up to now is        4.0 secs

     total energy              =     -31.93000272 Ry
     Harris-Foulkes estimate   =     -31.92986852 Ry
     estimated scf accuracy    <       0.00380046 Ry

     iteration # 17     ecut=    30.00 Ry     beta=0.70
     Davidson diagonalization with overlap
     ethr =  4.75E-05,  avg # of iterations =  1.0

     negative rho (up, down):  4.792E-08 0.000E+00

     total cpu time spent up to now is        4.1 secs

     total energy              =     -31.92988533 Ry
     Harris-Foulkes estimate   =     -31.93009401 Ry
     estimated scf accuracy    <       0.02168519 Ry

     iteration # 18     ecut=    30.00 Ry     beta=0.70
     Davidson diagonalization with overlap
     ethr =  4.75E-05,  avg # of iterations =  1.0

     negative rho (up, down):  1.358E-08 0.000E+00

     total cpu time spent up to now is        4.1 secs

     total energy              =     -31.92992965 Ry
     Harris-Foulkes estimate   =     -31.92992482 Ry
     estimated scf accuracy    <       0.00827810 Ry

     iteration # 19     ecut=    30.00 Ry     beta=0.70
     Davidson diagonalization with overlap
     ethr =  4.75E-05,  avg # of iterations =  1.0

     total cpu time spent up to now is        4.2 secs

     total energy              =     -31.92972860 Ry
     Harris-Foulkes estimate   =     -31.92992980 Ry
     estimated scf accuracy    <       0.00858491 Ry

     iteration # 20     ecut=    30.00 Ry     beta=0.70
     Davidson diagonalization with overlap
     ethr =  4.75E-05,  avg # of iterations =  1.0

     total cpu time spent up to now is        4.3 secs

     total energy              =     -31.92981938 Ry
     Harris-Foulkes estimate   =     -31.92982225 Ry
     estimated scf accuracy    <       0.00004392 Ry

     iteration # 21     ecut=    30.00 Ry     beta=0.70
     Davidson diagonalization with overlap
     ethr =  5.49E-07,  avg # of iterations = 17.0

     total cpu time spent up to now is        4.3 secs

     total energy              =     -31.92982108 Ry
     Harris-Foulkes estimate   =     -31.92982264 Ry
     estimated scf accuracy    <       0.00008665 Ry

     iteration # 22     ecut=    30.00 Ry     beta=0.70
     Davidson diagonalization with overlap
     ethr =  5.49E-07,  avg # of iterations =  1.0

     total cpu time spent up to now is        4.4 secs

     total energy              =     -31.92982140 Ry
     Harris-Foulkes estimate   =     -31.92982156 Ry
     estimated scf accuracy    <       0.00001047 Ry

     iteration # 23     ecut=    30.00 Ry     beta=0.70
     Davidson diagonalization with overlap
     ethr =  1.31E-07,  avg # of iterations =  1.0

     total cpu time spent up to now is        4.5 secs

     total energy              =     -31.92982149 Ry
     Harris-Foulkes estimate   =     -31.92982149 Ry
     estimated scf accuracy    <       0.00000034 Ry

     iteration # 24     ecut=    30.00 Ry     beta=0.70
     Davidson diagonalization with overlap
     ethr =  4.28E-09,  avg # of iterations =  1.0

     total cpu time spent up to now is        4.5 secs

     End of self-consistent calculation

          k = 0.0000 0.0000 0.0000 ( 22119 PWs)   bands (ev):

   -24.3669 -10.3201  -7.0380  -7.0380  -6.9018  -1.1078   0.1560   0.7805

     the Fermi energy is    -6.8687 ev

!    total energy              =     -31.92982151 Ry
     Harris-Foulkes estimate   =     -31.92982149 Ry
     estimated scf accuracy    <          3.8E-10 Ry

     convergence has been achieved in  24 iterations

     Forces acting on atoms (Ry/au):

     atom    1 type  1   force =     0.00009347   -0.00017566   -0.00018689
     atom    2 type  1   force =     0.09908885   -0.04094675   -0.09290771
     atom    3 type  2   force =    -0.09918232    0.04112241    0.09309460

     Total force =     0.200803     Total SCF correction =     0.000089

     Entering Dynamics:    iteration =     2
                           time      =   0.0097 pico-seconds


     Andersen thermostat:    3 collisions

ATOMIC_POSITIONS (bohr)
H       16.819990703  16.933560900   8.247274998
H        4.289550246  17.048033196   0.975756376
O        4.294774088  16.822081553  20.693378342


     kinetic energy (Ekin) =     0.07045354 Ry
     temperature           =  3707.90698116 K 
     Ekin + Etot (const)   =   -31.85936797 Ry
     Message from routine dynamics:
     Total linear momentum <> 0

     Linear momentum :    0.0947271074   -0.1635100569    0.0055435301

     Writing output data file pwscf.save

     first order wave-functions extrapolation
     Check: negative starting charge=   -0.349623
     first order charge density extrapolation
     Check: negative starting charge=   -0.359064

     negative rho (up, down):  3.752E-01 0.000E+00

     total cpu time spent up to now is        5.3 secs

     per-process dynamical memory:    20.4 Mb

     Self-consistent Calculation

     iteration #  1     ecut=    30.00 Ry     beta=0.70
     Davidson diagonalization with overlap
     ethr =  1.00E-06,  avg # of iterations = 13.0

     negative rho (up, down):  7.798E-02 0.000E+00

     total cpu time spent up to now is        5.5 secs

     total energy              =      22.96521504 Ry
     Harris-Foulkes estimate   =    -130.71186965 Ry
     estimated scf accuracy    <       6.37968550 Ry

     iteration #  2     ecut=    30.00 Ry     beta=0.70
     Davidson diagonalization with overlap
     ethr =  1.00E-02,  avg # of iterations =  5.0

     negative rho (up, down):  4.862E-02 0.000E+00

     total cpu time spent up to now is        5.6 secs

     total energy              =      14.80177951 Ry
     Harris-Foulkes estimate   =     -29.51640178 Ry
     estimated scf accuracy    <      10.12496607 Ry

     iteration #  3     ecut=    30.00 Ry     beta=0.70
     Davidson diagonalization with overlap
     ethr =  1.00E-02,  avg # of iterations =  3.0

     negative rho (up, down):  3.330E-02 0.000E+00

     total cpu time spent up to now is        5.7 secs

     total energy              =     -12.50008242 Ry
     Harris-Foulkes estimate   =     -14.82723054 Ry
     estimated scf accuracy    <       6.31322214 Ry

     iteration #  4     ecut=    30.00 Ry     beta=0.70
     Davidson diagonalization with overlap
     ethr =  1.00E-02,  avg # of iterations =  2.0

     negative rho (up, down):  1.961E-02 0.000E+00

     total cpu time spent up to now is        5.8 secs

     total energy              =     -11.52270232 Ry
     Harris-Foulkes estimate   =     -12.62464870 Ry
     estimated scf accuracy    <       2.69032385 Ry

     iteration #  5     ecut=    30.00 Ry     beta=0.70
     Davidson diagonalization with overlap
     ethr =  1.00E-02,  avg # of iterations =  1.0

     negative rho (up, down):  2.057E-02 0.000E+00

     total cpu time spent up to now is        5.8 secs

     total energy              =     -12.06342877 Ry
     Harris-Foulkes estimate   =     -12.36952713 Ry
     estimated scf accuracy    <       2.93961280 Ry

     iteration #  6     ecut=    30.00 Ry     beta=0.70
     Davidson diagonalization with overlap
     ethr =  1.00E-02,  avg # of iterations =  1.0

     negative rho (up, down):  1.996E-02 0.000E+00

     total cpu time spent up to now is        5.9 secs

     total energy              =     -11.89282145 Ry
     Harris-Foulkes estimate   =     -12.06662021 Ry
     estimated scf accuracy    <       2.45661599 Ry

     iteration #  7     ecut=    30.00 Ry     beta=0.70
     Davidson diagonalization with overlap
     ethr =  1.00E-02,  avg # of iterations =  1.0

     negative rho (up, down):  1.806E-02 0.000E+00

     total cpu time spent up to now is        5.9 secs

     total energy              =     -11.54395493 Ry
     Harris-Foulkes estimate   =     -11.89422395 Ry
     estimated scf accuracy    <       2.19492336 Ry

     iteration #  8     ecut=    30.00 Ry     beta=0.70
     Davidson diagonalization with overlap
     ethr =  1.00E-02,  avg # of iterations =  1.0

     negative rho (up, down):  5.292E-02 0.000E+00

     total cpu time spent up to now is        6.0 secs

     total energy              =     -11.81772411 Ry
     Harris-Foulkes estimate   =     -11.73079449 Ry
     estimated scf accuracy    <       1.38331416 Ry

     iteration #  9     ecut=    30.00 Ry     beta=0.70
     Davidson diagonalization with overlap
     ethr =  1.00E-02,  avg # of iterations =  4.0

     negative rho (up, down):  5.286E-02 0.000E+00

     total cpu time spent up to now is        6.1 secs

     total energy              =    -141.54257107 Ry
     Harris-Foulkes estimate   =    -219.20066952 Ry
     estimated scf accuracy    <       6.82161084 Ry

     iteration # 10     ecut=    30.00 Ry     beta=0.70
     Davidson diagonalization with overlap
     ethr =  1.00E-02,  avg # of iterations =  2.0

     negative rho (up, down):  1.928E-01 0.000E+00

     total cpu time spent up to now is        6.1 secs

     total energy              =       2.26453600 Ry
     Harris-Foulkes estimate   =    -142.58403660 Ry
     estimated scf accuracy    <       6.61686005 Ry

     iteration # 11     ecut=    30.00 Ry     beta=0.70
     Davidson diagonalization with overlap
     ethr =  1.00E-02,  avg # of iterations =  3.0

     negative rho (up, down):  9.659E-03 0.000E+00

     total cpu time spent up to now is        6.2 secs

     total energy              =     -11.95167692 Ry
     Harris-Foulkes estimate   =     -16.83245554 Ry
     estimated scf accuracy    <       5.95641570 Ry

     iteration # 12     ecut=    30.00 Ry     beta=0.70
     Davidson diagonalization with overlap
     ethr =  1.00E-02,  avg # of iterations =  4.0

     negative rho (up, down):  1.110E-02 0.000E+00

     total cpu time spent up to now is        6.3 secs

     total energy              =     -20.00355949 Ry
     Harris-Foulkes estimate   =     -48.35978413 Ry
     estimated scf accuracy    <      11.33273540 Ry

     iteration # 13     ecut=    30.00 Ry     beta=0.70
     Davidson diagonalization with overlap
     ethr =  1.00E-02,  avg # of iterations =  5.0

     negative rho (up, down):  2.951E-02 0.000E+00

     total cpu time spent up to now is        6.4 secs

     total energy              =      22.83115307 Ry
     Harris-Foulkes estimate   =    -107.25612910 Ry
     estimated scf accuracy    <      29.62282756 Ry

     iteration # 14     ecut=    30.00 Ry     beta=0.70
     Davidson diagonalization with overlap
     ethr =  1.00E-02,  avg # of iterations =  4.0

     negative rho (up, down):  2.917E-02 0.000E+00

     total cpu time spent up to now is        6.5 secs

     total energy              =      -4.25791766 Ry
     Harris-Foulkes estimate   =     -17.50806772 Ry
     estimated scf accuracy    <       5.09771161 Ry

     iteration # 15     ecut=    30.00 Ry     beta=0.70
     Davidson diagonalization with overlap
     ethr =  1.00E-02,  avg # of iterations =  4.0

     negative rho (up, down):  3.570E-02 0.000E+00

     total cpu time spent up to now is        6.5 secs

     total energy              =     -57.49744834 Ry
     Harris-Foulkes estimate   =     -21.21019112 Ry
     estimated scf accuracy    <       7.40489651 Ry

     iteration # 16     ecut=    30.00 Ry     beta=0.70
     Davidson diagonalization with overlap
     ethr =  1.00E-02,  avg # of iterations =  3.0

     negative rho (up, down):  1.104E-01 0.000E+00

     total cpu time spent up to now is        6.6 secs

     total energy              =     -25.15444161 Ry
     Harris-Foulkes estimate   =    -488.27933100 Ry
     estimated scf accuracy    <      19.00512316 Ry

     iteration # 17     ecut=    30.00 Ry     beta=0.70
     Davidson diagonalization with overlap
     ethr =  1.00E-02,  avg # of iterations =  4.0

     negative rho (up, down):  4.844E-01 0.000E+00

     total cpu time spent up to now is        6.7 secs

     total energy              =    -335.81898787 Ry
     Harris-Foulkes estimate   =    -187.50116075 Ry
     estimated scf accuracy    <      70.38516662 Ry

     iteration # 18     ecut=    30.00 Ry     beta=0.70
     Davidson diagonalization with overlap
     ethr =  1.00E-02,  avg # of iterations =  5.0

     negative rho (up, down):  4.872E-01 0.000E+00

     total cpu time spent up to now is        6.8 secs

     total energy              =    -669.34010783 Ry
     Harris-Foulkes estimate   =    -754.60784197 Ry
     estimated scf accuracy    <      66.11522179 Ry

     iteration # 19     ecut=    30.00 Ry     beta=0.70
     Davidson diagonalization with overlap
     ethr =  1.00E-02,  avg # of iterations =  9.0

     negative rho (up, down):  5.610E-01 0.000E+00

     total cpu time spent up to now is        6.9 secs

     total energy              =    -266.44527583 Ry
     Harris-Foulkes estimate   =   -1439.45774942 Ry
     estimated scf accuracy    <      30.83489475 Ry

     iteration # 20     ecut=    30.00 Ry     beta=0.70
     Davidson diagonalization with overlap
     ethr =  1.00E-02,  avg # of iterations =  7.0

     negative rho (up, down):  5.588E-01 0.000E+00

     total cpu time spent up to now is        7.0 secs

     total energy              =      35.88535283 Ry
     Harris-Foulkes estimate   =   -1078.29571559 Ry
     estimated scf accuracy    <      64.62213650 Ry

     iteration # 21     ecut=    30.00 Ry     beta=0.70
     Davidson diagonalization with overlap
     ethr =  1.00E-02,  avg # of iterations =  7.0

     negative rho (up, down):  7.695E-01 0.000E+00

     total cpu time spent up to now is        7.1 secs

     total energy              =     -26.19730562 Ry
     Harris-Foulkes estimate   =   -1251.11727201 Ry
     estimated scf accuracy    <      61.11191509 Ry

     iteration # 22     ecut=    30.00 Ry     beta=0.70
     Davidson diagonalization with overlap
     ethr =  1.00E-02,  avg # of iterations =  6.0

     negative rho (up, down):  8.051E-01 0.000E+00

     total cpu time spent up to now is        7.2 secs

     total energy              =   -2400.78936318 Ry
     Harris-Foulkes estimate   =    -768.85725127 Ry
     estimated scf accuracy    <      56.29631551 Ry

     iteration # 23     ecut=    30.00 Ry     beta=0.70
     Davidson diagonalization with overlap
     ethr =  1.00E-02,  avg # of iterations =  6.0

     negative rho (up, down):  1.219E+00 0.000E+00

     total cpu time spent up to now is        7.3 secs

     total energy              =   -1221.09066606 Ry
     Harris-Foulkes estimate   =  -17967.31690605 Ry
     estimated scf accuracy    <      58.14579544 Ry

     iteration # 24     ecut=    30.00 Ry     beta=0.70
     Davidson diagonalization with overlap
     ethr =  1.00E-02,  avg # of iterations = 10.0

     negative rho (up, down):  1.772E+00 0.000E+00

     total cpu time spent up to now is        7.4 secs

     total energy              =    -948.84205804 Ry
     Harris-Foulkes estimate   =   -1970.58734149 Ry
     estimated scf accuracy    <      52.64756744 Ry

     iteration # 25     ecut=    30.00 Ry     beta=0.70
     Davidson diagonalization with overlap
     ethr =  1.00E-02,  avg # of iterations =  6.0

     negative rho (up, down):  2.245E+00 0.000E+00

     total cpu time spent up to now is        7.5 secs

     total energy              =   43846.37798746 Ry
     Harris-Foulkes estimate   =   -5576.80720219 Ry
     estimated scf accuracy    <      57.73878465 Ry

     iteration # 26     ecut=    30.00 Ry     beta=0.70
     Davidson diagonalization with overlap
     ethr =  1.00E-02,  avg # of iterations =  7.0

     negative rho (up, down):  2.765E+00 0.000E+00

     total cpu time spent up to now is        7.6 secs

     total energy              =    -747.21496560 Ry
     Harris-Foulkes estimate   =   -6509.66566310 Ry
     estimated scf accuracy    <      46.01534915 Ry

     iteration # 27     ecut=    30.00 Ry     beta=0.70
     Davidson diagonalization with overlap
     ethr =  1.00E-02,  avg # of iterations =  9.0

     negative rho (up, down):  3.050E+00 0.000E+00

     total cpu time spent up to now is        7.7 secs

     total energy              =     137.77421985 Ry
     Harris-Foulkes estimate   =  -13588.30361630 Ry
     estimated scf accuracy    <      35.02185533 Ry

     iteration # 28     ecut=    30.00 Ry     beta=0.70
     Davidson diagonalization with overlap
     ethr =  1.00E-02,  avg # of iterations =  8.0

     negative rho (up, down):  1.832E+00 0.000E+00

     total cpu time spent up to now is        7.8 secs

     total energy              =   -4990.84918427 Ry
     Harris-Foulkes estimate   =    -711.56178992 Ry
     estimated scf accuracy    <      33.25678211 Ry

     iteration # 29     ecut=    30.00 Ry     beta=0.70
     Davidson diagonalization with overlap
     ethr =  1.00E-02,  avg # of iterations =  6.0

     negative rho (up, down):  7.829E-01 0.000E+00

     total cpu time spent up to now is        7.9 secs

     total energy              =      15.03736209 Ry
     Harris-Foulkes estimate   =  -61009.20909434 Ry
     estimated scf accuracy    <      24.85041449 Ry

     iteration # 30     ecut=    30.00 Ry     beta=0.70
     Davidson diagonalization with overlap
     ethr =  1.00E-02,  avg # of iterations = 10.0

     negative rho (up, down):  7.372E-01 0.000E+00

     total cpu time spent up to now is        8.0 secs

     total energy              =    -193.39226363 Ry
     Harris-Foulkes estimate   =   -4701.75783465 Ry
     estimated scf accuracy    <      18.42858295 Ry

     iteration # 31     ecut=    30.00 Ry     beta=0.70
     Davidson diagonalization with overlap
     ethr =  1.00E-02,  avg # of iterations = 10.0

     negative rho (up, down):  4.670E-01 0.000E+00

     total cpu time spent up to now is        8.1 secs

     total energy              =      -7.88702384 Ry
     Harris-Foulkes estimate   =   -6612.45973244 Ry
     estimated scf accuracy    <      16.44278540 Ry

     iteration # 32     ecut=    30.00 Ry     beta=0.70
     Davidson diagonalization with overlap
     ethr =  1.00E-02,  avg # of iterations =  9.0

     negative rho (up, down):  1.886E-02 0.000E+00

     total cpu time spent up to now is        8.3 secs

     total energy              =     116.78722970 Ry
     Harris-Foulkes estimate   =   -2011.38464373 Ry
     estimated scf accuracy    <      18.66040654 Ry

     iteration # 33     ecut=    30.00 Ry     beta=0.70
     Davidson diagonalization with overlap
     ethr =  1.00E-02,  avg # of iterations =  7.0

     negative rho (up, down):  2.866E-02 0.000E+00

     total cpu time spent up to now is        8.3 secs

     total energy              =     -35.98534131 Ry
     Harris-Foulkes estimate   =     -54.69551122 Ry
     estimated scf accuracy    <      58.23750690 Ry

     iteration # 34     ecut=    30.00 Ry     beta=0.70
     Davidson diagonalization with overlap
     ethr =  1.00E-02,  avg # of iterations =  5.0

     negative rho (up, down):  2.110E-03 0.000E+00

     total cpu time spent up to now is        8.4 secs

     total energy              =     166.22369031 Ry
     Harris-Foulkes estimate   =   -7198.04496817 Ry
     estimated scf accuracy    <      21.91616168 Ry

     iteration # 35     ecut=    30.00 Ry     beta=0.70
     Davidson diagonalization with overlap
     ethr =  1.00E-02,  avg # of iterations =  8.0

     negative rho (up, down):  2.169E-01 0.000E+00

     total cpu time spent up to now is        8.5 secs

     total energy              =     -18.33872093 Ry
     Harris-Foulkes estimate   =     -38.29045104 Ry
     estimated scf accuracy    <      36.55896970 Ry

     iteration # 36     ecut=    30.00 Ry     beta=0.70
     Davidson diagonalization with overlap
     ethr =  1.00E-02,  avg # of iterations =  8.0

     negative rho (up, down):  8.780E-02 0.000E+00

     total cpu time spent up to now is        8.6 secs

     total energy              =     137.40088652 Ry
     Harris-Foulkes estimate   =   -3521.73636415 Ry
     estimated scf accuracy    <      35.33189506 Ry

     iteration # 37     ecut=    30.00 Ry     beta=0.70
     Davidson diagonalization with overlap
     ethr =  1.00E-02,  avg # of iterations =  6.0

     negative rho (up, down):  2.133E-02 0.000E+00

     total cpu time spent up to now is        8.7 secs

     total energy              =     145.06753940 Ry
     Harris-Foulkes estimate   =    -830.32025476 Ry
     estimated scf accuracy    <      34.55260269 Ry

     iteration # 38     ecut=    30.00 Ry     beta=0.70
     Davidson diagonalization with overlap
     ethr =  1.00E-02,  avg # of iterations =  9.0

     negative rho (up, down):  3.064E-03 0.000E+00

     total cpu time spent up to now is        8.8 secs

     total energy              =      32.17141951 Ry
     Harris-Foulkes estimate   =     -36.42425188 Ry
     estimated scf accuracy    <      10.96981509 Ry

     iteration # 39     ecut=    30.00 Ry     beta=0.70
     Davidson diagonalization with overlap
     ethr =  1.00E-02,  avg # of iterations =  6.0

     total cpu time spent up to now is        8.9 secs

     total energy              =      17.91341080 Ry
     Harris-Foulkes estimate   =    -175.65235092 Ry
     estimated scf accuracy    <      10.77841959 Ry

     iteration # 40     ecut=    30.00 Ry     beta=0.70
     Davidson diagonalization with overlap
     ethr =  1.00E-02,  avg # of iterations =  5.0

     negative rho (up, down):  8.899E-04 0.000E+00

     total cpu time spent up to now is        9.0 secs

     total energy              =     -21.17517915 Ry
     Harris-Foulkes estimate   =     -25.25897683 Ry
     estimated scf accuracy    <      20.11403981 Ry

     iteration # 41     ecut=    30.00 Ry     beta=0.70
     Davidson diagonalization with overlap
     ethr =  1.00E-02,  avg # of iterations =  4.0

     negative rho (up, down):  4.625E-04 0.000E+00

     total cpu time spent up to now is        9.1 secs

     total energy              =      18.06836270 Ry
     Harris-Foulkes estimate   =     -70.47025392 Ry
     estimated scf accuracy    <       7.46373236 Ry

     iteration # 42     ecut=    30.00 Ry     beta=0.70
     Davidson diagonalization with overlap
     ethr =  1.00E-02,  avg # of iterations =  4.0

     negative rho (up, down):  2.749E-04 0.000E+00

     total cpu time spent up to now is        9.1 secs

     total energy              =     -18.97319722 Ry
     Harris-Foulkes estimate   =     -22.30725821 Ry
     estimated scf accuracy    <      16.41226833 Ry

     iteration # 43     ecut=    30.00 Ry     beta=0.70
     Davidson diagonalization with overlap
     ethr =  1.00E-02,  avg # of iterations =  1.0

     negative rho (up, down):  7.588E-01 0.000E+00

     total cpu time spent up to now is        9.2 secs

     total energy              =     -10.40700120 Ry
     Harris-Foulkes estimate   =     -19.00539769 Ry
     estimated scf accuracy    <      11.99723277 Ry

     iteration # 44     ecut=    30.00 Ry     beta=0.70
     Davidson diagonalization with overlap
     ethr =  1.00E-02,  avg # of iterations = 10.0

     negative rho (up, down):  5.756E-01 0.000E+00

     total cpu time spent up to now is        9.4 secs

     total energy              =      -4.31428760 Ry
     Harris-Foulkes estimate   =    -722.40977834 Ry
     estimated scf accuracy    <      61.50531045 Ry

     iteration # 45     ecut=    30.00 Ry     beta=0.70
     Davidson diagonalization with overlap
     ethr =  1.00E-02,  avg # of iterations =  7.0

     negative rho (up, down):  8.719E-01 0.000E+00

     total cpu time spent up to now is        9.5 secs

     total energy              =    -378.87926903 Ry
     Harris-Foulkes estimate   =   -1902.14069422 Ry
     estimated scf accuracy    <      65.92361879 Ry

     iteration # 46     ecut=    30.00 Ry     beta=0.70
     Davidson diagonalization with overlap
     ethr =  1.00E-02,  avg # of iterations =  7.0

     negative rho (up, down):  2.662E-01 0.000E+00

     total cpu time spent up to now is        9.6 secs

     total energy              =      81.91812968 Ry
     Harris-Foulkes estimate   =    -790.71931500 Ry
     estimated scf accuracy    <      66.69949019 Ry

     iteration # 47     ecut=    30.00 Ry     beta=0.70
     Davidson diagonalization with overlap
     ethr =  1.00E-02,  avg # of iterations =  8.0

     negative rho (up, down):  2.037E-01 0.000E+00

     total cpu time spent up to now is        9.7 secs

     total energy              =     -24.40239197 Ry
     Harris-Foulkes estimate   =    -166.34653924 Ry
     estimated scf accuracy    <      33.47052707 Ry

     iteration # 48     ecut=    30.00 Ry     beta=0.70
     Davidson diagonalization with overlap
     ethr =  1.00E-02,  avg # of iterations =  9.0

     negative rho (up, down):  8.418E-02 0.000E+00

     total cpu time spent up to now is        9.8 secs

     total energy              =      38.13048310 Ry
     Harris-Foulkes estimate   =    -198.20774799 Ry
     estimated scf accuracy    <      31.43383061 Ry

     iteration # 49     ecut=    30.00 Ry     beta=0.70
     Davidson diagonalization with overlap
     ethr =  1.00E-02,  avg # of iterations =  7.0

     negative rho (up, down):  1.676E-01 0.000E+00

     total cpu time spent up to now is        9.9 secs

     total energy              =    -194.81760879 Ry
     Harris-Foulkes estimate   =    -303.05088454 Ry
     estimated scf accuracy    <      53.37811036 Ry

     iteration # 50     ecut=    30.00 Ry     beta=0.70
     Davidson diagonalization with overlap
     ethr =  1.00E-02,  avg # of iterations =  6.0

     negative rho (up, down):  2.471E-01 0.000E+00

     total cpu time spent up to now is       10.0 secs

     total energy              =   -1403.70853201 Ry
     Harris-Foulkes estimate   =    -616.38842746 Ry
     estimated scf accuracy    <      55.70072474 Ry

     iteration # 51     ecut=    30.00 Ry     beta=0.70
     Davidson diagonalization with overlap
     ethr =  1.00E-02,  avg # of iterations =  7.0

     negative rho (up, down):  5.315E-02 0.000E+00

     total cpu time spent up to now is       10.0 secs

     total energy              =     -21.61065098 Ry
     Harris-Foulkes estimate   =   -2740.57407212 Ry
     estimated scf accuracy    <      64.24188792 Ry

     iteration # 52     ecut=    30.00 Ry     beta=0.70
     Davidson diagonalization with overlap
     ethr =  1.00E-02,  avg # of iterations =  8.0

     negative rho (up, down):  1.745E+00 0.000E+00

     total cpu time spent up to now is       10.2 secs

     total energy              =    -911.79946635 Ry
     Harris-Foulkes estimate   =    -477.19478103 Ry
     estimated scf accuracy    <      21.45010694 Ry

     iteration # 53     ecut=    30.00 Ry     beta=0.70
     Davidson diagonalization with overlap
     ethr =  1.00E-02,  avg # of iterations =  5.0

     negative rho (up, down):  2.026E+00 0.000E+00

     total cpu time spent up to now is       10.3 secs

     total energy              =      76.21260768 Ry
     Harris-Foulkes estimate   =  -12995.97399569 Ry
     estimated scf accuracy    <      33.73939746 Ry

     iteration # 54     ecut=    30.00 Ry     beta=0.70
     Davidson diagonalization with overlap
     ethr =  1.00E-02,  avg # of iterations =  8.0

     negative rho (up, down):  2.151E+00 0.000E+00

     total cpu time spent up to now is       10.4 secs

     total energy              =     -23.65851210 Ry
     Harris-Foulkes estimate   =   -1568.44892413 Ry
     estimated scf accuracy    <      26.15438595 Ry

     iteration # 55     ecut=    30.00 Ry     beta=0.70
     Davidson diagonalization with overlap
     ethr =  1.00E-02,  avg # of iterations =  9.0

     negative rho (up, down):  2.123E+00 0.000E+00

     total cpu time spent up to now is       10.5 secs

     total energy              =    1073.17801999 Ry
     Harris-Foulkes estimate   =    -486.61960352 Ry
     estimated scf accuracy    <      26.73760807 Ry

     iteration # 56     ecut=    30.00 Ry     beta=0.70
     Davidson diagonalization with overlap
     ethr =  1.00E-02,  avg # of iterations =  7.0

     negative rho (up, down):  2.326E+00 0.000E+00

     total cpu time spent up to now is       10.6 secs

     total energy              =    -237.71060175 Ry
     Harris-Foulkes estimate   =  -20529.97170166 Ry
     estimated scf accuracy    <      37.03244601 Ry

     iteration # 57     ecut=    30.00 Ry     beta=0.70
     Davidson diagonalization with overlap
     ethr =  1.00E-02,  avg # of iterations =  8.0

     negative rho (up, down):  1.990E+00 0.000E+00

     total cpu time spent up to now is       10.7 secs

     total energy              =     -28.36475015 Ry
     Harris-Foulkes estimate   =   -7473.75825968 Ry
     estimated scf accuracy    <      28.92152353 Ry

     iteration # 58     ecut=    30.00 Ry     beta=0.70
     Davidson diagonalization with overlap
     ethr =  1.00E-02,  avg # of iterations =  9.0

     negative rho (up, down):  6.718E-01 0.000E+00

     total cpu time spent up to now is       10.8 secs

     total energy              =     103.11027875 Ry
     Harris-Foulkes estimate   =   -2423.59799821 Ry
     estimated scf accuracy    <      31.73246183 Ry

     iteration # 59     ecut=    30.00 Ry     beta=0.70
     Davidson diagonalization with overlap
     ethr =  1.00E-02,  avg # of iterations =  7.0

     negative rho (up, down):  6.682E-01 0.000E+00

     total cpu time spent up to now is       10.9 secs

     total energy              =      87.91847862 Ry
     Harris-Foulkes estimate   =   -3782.96111152 Ry
     estimated scf accuracy    <      17.48589162 Ry

     iteration # 60     ecut=    30.00 Ry     beta=0.70
     Davidson diagonalization with overlap
     ethr =  1.00E-02,  avg # of iterations =  7.0

     negative rho (up, down):  3.706E-01 0.000E+00

     total cpu time spent up to now is       11.0 secs

     total energy              =   -1583.42330902 Ry
     Harris-Foulkes estimate   =   -2605.92593271 Ry
     estimated scf accuracy    <      28.48072414 Ry

     iteration # 61     ecut=    30.00 Ry     beta=0.70
     Davidson diagonalization with overlap
     ethr =  1.00E-02,  avg # of iterations =  5.0

     negative rho (up, down):  2.738E-01 0.000E+00

     total cpu time spent up to now is       11.0 secs

     total energy              =       6.59709719 Ry
     Harris-Foulkes estimate   =   -6646.18379274 Ry
     estimated scf accuracy    <      26.57519762 Ry

     iteration # 62     ecut=    30.00 Ry     beta=0.70
     Davidson diagonalization with overlap
     ethr =  1.00E-02,  avg # of iterations =  9.0

     negative rho (up, down):  2.691E-01 0.000E+00

     total cpu time spent up to now is       11.2 secs

     total energy              =     153.44182537 Ry
     Harris-Foulkes estimate   =   -3631.58956966 Ry
     estimated scf accuracy    <      23.78054753 Ry

     iteration # 63     ecut=    30.00 Ry     beta=0.70
     Davidson diagonalization with overlap
     ethr =  1.00E-02,  avg # of iterations =  6.0

     negative rho (up, down):  3.138E-01 0.000E+00

     total cpu time spent up to now is       11.3 secs

     total energy              =      75.58326443 Ry
     Harris-Foulkes estimate   =    -732.40843803 Ry
     estimated scf accuracy    <      32.44280131 Ry

     iteration # 64     ecut=    30.00 Ry     beta=0.70
     Davidson diagonalization with overlap
     ethr =  1.00E-02,  avg # of iterations =  5.0

     negative rho (up, down):  2.965E-01 0.000E+00

     total cpu time spent up to now is       11.4 secs

     total energy              =     149.86878918 Ry
     Harris-Foulkes estimate   =   -3662.59657397 Ry
     estimated scf accuracy    <      16.43972333 Ry

     iteration # 65     ecut=    30.00 Ry     beta=0.70
     Davidson diagonalization with overlap
     ethr =  1.00E-02,  avg # of iterations =  8.0

     negative rho (up, down):  3.116E-03 0.000E+00

     total cpu time spent up to now is       11.5 secs

     total energy              =     124.90920105 Ry
     Harris-Foulkes estimate   =    -232.96197458 Ry
     estimated scf accuracy    <      19.58654038 Ry

     iteration # 66     ecut=    30.00 Ry     beta=0.70
     Davidson diagonalization with overlap
     ethr =  1.00E-02,  avg # of iterations =  7.0

     negative rho (up, down):  5.061E-05 0.000E+00

     total cpu time spent up to now is       11.6 secs

     total energy              =       9.10144823 Ry
     Harris-Foulkes estimate   =    -420.11752174 Ry
     estimated scf accuracy    <      32.81331062 Ry

     iteration # 67     ecut=    30.00 Ry     beta=0.70
     Davidson diagonalization with overlap
     ethr =  1.00E-02,  avg # of iterations =  7.0

     total cpu time spent up to now is       11.7 secs

     total energy              =     -35.57568959 Ry
     Harris-Foulkes estimate   =     -38.46980768 Ry
     estimated scf accuracy    <      38.45375368 Ry

     iteration # 68     ecut=    30.00 Ry     beta=0.70
     Davidson diagonalization with overlap
     ethr =  1.00E-02,  avg # of iterations =  1.0

     negative rho (up, down):  2.107E+00 0.000E+00

     total cpu time spent up to now is       11.8 secs

     total energy              =     -19.17915367 Ry
     Harris-Foulkes estimate   =     -35.58914216 Ry
     estimated scf accuracy    <      34.52427576 Ry

     iteration # 69     ecut=    30.00 Ry     beta=0.70
     Davidson diagonalization with overlap
     ethr =  1.00E-02,  avg # of iterations =  8.0

     negative rho (up, down):  1.469E+00 0.000E+00

     total cpu time spent up to now is       11.9 secs

     total energy              =      50.57582299 Ry
     Harris-Foulkes estimate   =    -548.33614269 Ry
     estimated scf accuracy    <      51.47990822 Ry

     iteration # 70     ecut=    30.00 Ry     beta=0.70
     Davidson diagonalization with overlap
     ethr =  1.00E-02,  avg # of iterations =  7.0

     negative rho (up, down):  1.646E+00 0.000E+00

     total cpu time spent up to now is       12.0 secs

     total energy              =     -53.54927297 Ry
     Harris-Foulkes estimate   =   -3039.17560347 Ry
     estimated scf accuracy    <      47.07407785 Ry

     iteration # 71     ecut=    30.00 Ry     beta=0.70
     Davidson diagonalization with overlap
     ethr =  1.00E-02,  avg # of iterations =  8.0

     negative rho (up, down):  9.250E-01 0.000E+00

     total cpu time spent up to now is       12.1 secs

     total energy              =      83.97300511 Ry
     Harris-Foulkes estimate   =    -469.37419516 Ry
     estimated scf accuracy    <      71.88097363 Ry

     iteration # 72     ecut=    30.00 Ry     beta=0.70
     Davidson diagonalization with overlap
     ethr =  1.00E-02,  avg # of iterations =  9.0

     negative rho (up, down):  7.284E-01 0.000E+00

     total cpu time spent up to now is       12.2 secs

     total energy              =    -137.42119989 Ry
     Harris-Foulkes estimate   =   -1606.93662148 Ry
     estimated scf accuracy    <      52.92348681 Ry

     iteration # 73     ecut=    30.00 Ry     beta=0.70
     Davidson diagonalization with overlap
     ethr =  1.00E-02,  avg # of iterations =  6.0

     negative rho (up, down):  1.304E+00 0.000E+00

     total cpu time spent up to now is       12.3 secs

     total energy              =    -202.45049829 Ry
     Harris-Foulkes estimate   =    -370.88776115 Ry
     estimated scf accuracy    <      33.49010971 Ry

     iteration # 74     ecut=    30.00 Ry     beta=0.70
     Davidson diagonalization with overlap
     ethr =  1.00E-02,  avg # of iterations =  8.0

     negative rho (up, down):  1.432E+00 0.000E+00

     total cpu time spent up to now is       12.5 secs

     total energy              =      39.22866916 Ry
     Harris-Foulkes estimate   =   -2646.25685152 Ry
     estimated scf accuracy    <      41.81242195 Ry

     iteration # 75     ecut=    30.00 Ry     beta=0.70
     Davidson diagonalization with overlap
     ethr =  1.00E-02,  avg # of iterations =  7.0

     negative rho (up, down):  3.548E-01 0.000E+00

     total cpu time spent up to now is       12.6 secs

     total energy              =      55.74582805 Ry
     Harris-Foulkes estimate   =    -409.13240122 Ry
     estimated scf accuracy    <      60.99724217 Ry

     iteration # 76     ecut=    30.00 Ry     beta=0.70
     Davidson diagonalization with overlap
     ethr =  1.00E-02,  avg # of iterations =  6.0

     negative rho (up, down):  7.442E-01 0.000E+00

     total cpu time spent up to now is       12.6 secs

     total energy              =      28.12656250 Ry
     Harris-Foulkes estimate   =   -1004.31007897 Ry
     estimated scf accuracy    <      27.50049747 Ry

     iteration # 77     ecut=    30.00 Ry     beta=0.70
     Davidson diagonalization with overlap
     ethr =  1.00E-02,  avg # of iterations =  7.0

     negative rho (up, down):  2.100E+00 0.000E+00

     total cpu time spent up to now is       12.7 secs

     total energy              =     858.88906847 Ry
     Harris-Foulkes estimate   =   -2204.83690237 Ry
     estimated scf accuracy    <      34.08630825 Ry

     iteration # 78     ecut=    30.00 Ry     beta=0.70
     Davidson diagonalization with overlap
     ethr =  1.00E-02,  avg # of iterations =  8.0

     negative rho (up, down):  1.730E+00 0.000E+00

     total cpu time spent up to now is       12.8 secs

     total energy              =    -421.35419175 Ry
     Harris-Foulkes estimate   =   -3673.06887899 Ry
     estimated scf accuracy    <      36.24631595 Ry

     iteration # 79     ecut=    30.00 Ry     beta=0.70
     Davidson diagonalization with overlap
     ethr =  1.00E-02,  avg # of iterations =  6.0

     negative rho (up, down):  1.439E+00 0.000E+00

     total cpu time spent up to now is       12.8 secs

     total energy              =     -55.61941663 Ry
     Harris-Foulkes estimate   =  -21832.86116447 Ry
     estimated scf accuracy    <      23.10338522 Ry

     iteration # 80     ecut=    30.00 Ry     beta=0.70
     Davidson diagonalization with overlap
     ethr =  1.00E-02,  avg # of iterations =  8.0

     negative rho (up, down):  7.552E-01 0.000E+00

     total cpu time spent up to now is       13.0 secs

     total energy              =    -803.06196749 Ry
     Harris-Foulkes estimate   =   -2806.57513746 Ry
     estimated scf accuracy    <      32.99969797 Ry

     iteration # 81     ecut=    30.00 Ry     beta=0.70
     Davidson diagonalization with overlap
     ethr =  1.00E-02,  avg # of iterations =  7.0

     negative rho (up, down):  7.036E-01 0.000E+00

     total cpu time spent up to now is       13.1 secs

     total energy              =     105.13835278 Ry
     Harris-Foulkes estimate   =   -4788.38098997 Ry
     estimated scf accuracy    <      20.79355262 Ry

     iteration # 82     ecut=    30.00 Ry     beta=0.70
     Davidson diagonalization with overlap
     ethr =  1.00E-02,  avg # of iterations =  8.0

     negative rho (up, down):  5.330E-01 0.000E+00

     total cpu time spent up to now is       13.2 secs

     total energy              =     107.61948991 Ry
     Harris-Foulkes estimate   =    -450.07519418 Ry
     estimated scf accuracy    <      20.81175760 Ry

     iteration # 83     ecut=    30.00 Ry     beta=0.70
     Davidson diagonalization with overlap
     ethr =  1.00E-02,  avg # of iterations =  7.0

     negative rho (up, down):  1.705E-01 0.000E+00

     total cpu time spent up to now is       13.2 secs

     total energy              =      55.54191892 Ry
     Harris-Foulkes estimate   =    -373.56048501 Ry
     estimated scf accuracy    <      15.35461580 Ry

     iteration # 84     ecut=    30.00 Ry     beta=0.70
     Davidson diagonalization with overlap
     ethr =  1.00E-02,  avg # of iterations =  5.0

     negative rho (up, down):  4.052E-02 0.000E+00

     total cpu time spent up to now is       13.3 secs

     total energy              =     126.80948494 Ry
     Harris-Foulkes estimate   =   -2030.22202081 Ry
     estimated scf accuracy    <      20.67378479 Ry

     iteration # 85     ecut=    30.00 Ry     beta=0.70
     Davidson diagonalization with overlap
     ethr =  1.00E-02,  avg # of iterations =  8.0

     negative rho (up, down):  1.496E-01 0.000E+00

     total cpu time spent up to now is       13.4 secs

     total energy              =     339.72554393 Ry
     Harris-Foulkes estimate   =    -605.31065437 Ry
     estimated scf accuracy    <      14.84387737 Ry

     iteration # 86     ecut=    30.00 Ry     beta=0.70
     Davidson diagonalization with overlap
     ethr =  1.00E-02,  avg # of iterations = 10.0

     negative rho (up, down):  1.276E-01 0.000E+00

     total cpu time spent up to now is       13.6 secs

     total energy              =      34.89889596 Ry
     Harris-Foulkes estimate   =    -117.56559240 Ry
     estimated scf accuracy    <      22.80395349 Ry

     iteration # 87     ecut=    30.00 Ry     beta=0.70
     Davidson diagonalization with overlap
     ethr =  1.00E-02,  avg # of iterations =  7.0

     negative rho (up, down):  1.310E-01 0.000E+00

     total cpu time spent up to now is       13.7 secs

     total energy              =     -19.14745121 Ry
     Harris-Foulkes estimate   =   -1341.83719920 Ry
     estimated scf accuracy    <      26.56768899 Ry

     iteration # 88     ecut=    30.00 Ry     beta=0.70
     Davidson diagonalization with overlap
     ethr =  1.00E-02,  avg # of iterations =  5.0

     negative rho (up, down):  2.214E-01 0.000E+00

     total cpu time spent up to now is       13.8 secs

     total energy              =     138.01143771 Ry
     Harris-Foulkes estimate   =    -478.28346722 Ry
     estimated scf accuracy    <      22.15701679 Ry

     iteration # 89     ecut=    30.00 Ry     beta=0.70
     Davidson diagonalization with overlap
     ethr =  1.00E-02,  avg # of iterations =  7.0

     total cpu time spent up to now is       13.9 secs

     total energy              =       6.56283196 Ry
     Harris-Foulkes estimate   =    -636.32411028 Ry
     estimated scf accuracy    <      33.70408535 Ry

     iteration # 90     ecut=    30.00 Ry     beta=0.70
     Davidson diagonalization with overlap
     ethr =  1.00E-02,  avg # of iterations = 10.0

     negative rho (up, down):  3.601E-02 0.000E+00

     total cpu time spent up to now is       14.0 secs

     total energy              =     -38.17294427 Ry
     Harris-Foulkes estimate   =     -39.54342199 Ry
     estimated scf accuracy    <      40.03486922 Ry

     iteration # 91     ecut=    30.00 Ry     beta=0.70
     Davidson diagonalization with overlap
     ethr =  1.00E-02,  avg # of iterations =  6.0

     negative rho (up, down):  5.561E-02 0.000E+00

     total cpu time spent up to now is       14.0 secs

     total energy              =      38.76821159 Ry
     Harris-Foulkes estimate   =    -227.62886443 Ry
     estimated scf accuracy    <      22.06594238 Ry

     iteration # 92     ecut=    30.00 Ry     beta=0.70
     Davidson diagonalization with overlap
     ethr =  1.00E-02,  avg # of iterations =  5.0

     negative rho (up, down):  9.439E-02 0.000E+00

     total cpu time spent up to now is       14.1 secs

     total energy              =      47.10147416 Ry
     Harris-Foulkes estimate   =    -226.91300669 Ry
     estimated scf accuracy    <      14.87710690 Ry

     iteration # 93     ecut=    30.00 Ry     beta=0.70
     Davidson diagonalization with overlap
     ethr =  1.00E-02,  avg # of iterations =  4.0

     negative rho (up, down):  1.280E-01 0.000E+00

     total cpu time spent up to now is       14.1 secs

     total energy              =      32.70173725 Ry
     Harris-Foulkes estimate   =   -2863.37536502 Ry
     estimated scf accuracy    <      28.50882719 Ry

     iteration # 94     ecut=    30.00 Ry     beta=0.70
     Davidson diagonalization with overlap
     ethr =  1.00E-02,  avg # of iterations =  8.0

     negative rho (up, down):  1.516E-01 0.000E+00

     total cpu time spent up to now is       14.2 secs

     total energy              =     141.41136269 Ry
     Harris-Foulkes estimate   =   -1420.33700948 Ry
     estimated scf accuracy    <      25.23834611 Ry

     iteration # 95     ecut=    30.00 Ry     beta=0.70
     Davidson diagonalization with overlap
     ethr =  1.00E-02,  avg # of iterations =  7.0

     negative rho (up, down):  2.201E-02 0.000E+00

     total cpu time spent up to now is       14.3 secs

     total energy              =      68.65217326 Ry
     Harris-Foulkes estimate   =    -894.71377448 Ry
     estimated scf accuracy    <      30.22652669 Ry

     iteration # 96     ecut=    30.00 Ry     beta=0.70
     Davidson diagonalization with overlap
     ethr =  1.00E-02,  avg # of iterations =  5.0

     negative rho (up, down):  8.633E-02 0.000E+00

     total cpu time spent up to now is       14.4 secs

     total energy              =      26.24896216 Ry
     Harris-Foulkes estimate   =   -4213.94684369 Ry
     estimated scf accuracy    <      20.71598078 Ry

     iteration # 97     ecut=    30.00 Ry     beta=0.70
     Davidson diagonalization with overlap
     ethr =  1.00E-02,  avg # of iterations =  5.0

     negative rho (up, down):  9.694E-02 0.000E+00

     total cpu time spent up to now is       14.4 secs

     total energy              =      12.65436873 Ry
     Harris-Foulkes estimate   =    -966.79153199 Ry
     estimated scf accuracy    <      27.37806328 Ry

     iteration # 98     ecut=    30.00 Ry     beta=0.70
     Davidson diagonalization with overlap
     ethr =  1.00E-02,  avg # of iterations =  9.0

     negative rho (up, down):  6.387E-04 0.000E+00

     total cpu time spent up to now is       14.6 secs

     total energy              =     130.38896277 Ry
     Harris-Foulkes estimate   =    -795.43800680 Ry
     estimated scf accuracy    <      18.87064534 Ry

     iteration # 99     ecut=    30.00 Ry     beta=0.70
     Davidson diagonalization with overlap
     ethr =  1.00E-02,  avg # of iterations =  9.0

     negative rho (up, down):  3.571E-02 0.000E+00

     total cpu time spent up to now is       14.7 secs

     total energy              =     -28.96057036 Ry
     Harris-Foulkes estimate   =     -30.30537744 Ry
     estimated scf accuracy    <      28.11549523 Ry

     iteration #100     ecut=    30.00 Ry     beta=0.70
     Davidson diagonalization with overlap
     ethr =  1.00E-02,  avg # of iterations =  7.0

     negative rho (up, down):  1.737E-01 0.000E+00

     total cpu time spent up to now is       14.9 secs

     total energy              =    -320.15101497 Ry
     Harris-Foulkes estimate   =    -212.18580693 Ry
     estimated scf accuracy    <      17.73786866 Ry

     End of self-consistent calculation

     convergence NOT achieved after 100 iterations: stopping

     Writing output data file pwscf.save
 
     init_run     :      0.09s CPU      0.11s WALL (       1 calls)
     electrons    :     10.27s CPU     13.37s WALL (       3 calls)
     update_pot   :      0.40s CPU      0.62s WALL (       2 calls)
     forces       :      0.05s CPU      0.09s WALL (       2 calls)

     Called by init_run:
     wfcinit      :      0.01s CPU      0.02s WALL (       1 calls)
     potinit      :      0.02s CPU      0.03s WALL (       1 calls)

     Called by electrons:
     c_bands      :      5.45s CPU      6.41s WALL (     161 calls)
     sum_band     :      0.61s CPU      0.65s WALL (     161 calls)
     v_of_rho     :      1.83s CPU      2.15s WALL (     164 calls)
     mix_rho      :      1.82s CPU      2.87s WALL (     161 calls)

     Called by c_bands:
     init_us_2    :      0.02s CPU      0.02s WALL (     323 calls)
     cegterg      :      5.34s CPU      6.02s WALL (     161 calls)

     Called by sum_band:

     Called by *egterg:
     h_psi        :      3.90s CPU      4.40s WALL (     944 calls)
     g_psi        :      0.03s CPU      0.03s WALL (     782 calls)
     cdiaghg      :      0.51s CPU      0.57s WALL (     941 calls)

     Called by h_psi:
     h_psi:pot    :      3.88s CPU      4.38s WALL (     944 calls)
     h_psi:calbec :      0.65s CPU      0.76s WALL (     944 calls)
     vloc_psi     :      3.22s CPU      3.60s WALL (     944 calls)
     add_vuspsi   :      0.01s CPU      0.01s WALL (     944 calls)

     General routines
     calbec       :      0.73s CPU      0.86s WALL (     953 calls)
     fft          :      1.11s CPU      1.22s WALL (    1808 calls)
     fftw         :      3.38s CPU      3.79s WALL (   11996 calls)
     davcio       :      0.19s CPU      0.68s WALL (    2966 calls)
 
     Parallel routines
     fft_scatter  :      2.46s CPU      2.92s WALL (   13804 calls)
 
     PWSCF        :    11.03s CPU        15.14s WALL

 
   This run was terminated on:   8:52:35  14Feb2018            

=------------------------------------------------------------------------------=
   JOB DONE.
=------------------------------------------------------------------------------=
