
     Program PWSCF v.6.0 (svn rev. 13079) starts on 14Feb2018 at  8:52:46 

     This program is part of the open-source Quantum ESPRESSO suite
     for quantum simulation of materials; please cite
         "P. Giannozzi et al., J. Phys.:Condens. Matter 21 395502 (2009);
          URL http://www.quantum-espresso.org", 
     in publications or presentations arising from this work. More details at
     http://www.quantum-espresso.org/quote

     Parallel version (MPI), running on    28 processors
     R & G space division:  proc/nbgrp/npool/nimage =      28
     Reading input from inputs/MD-H2O-2/478.in

     Current dimensions of program PWSCF are:
     Max number of different atomic species (ntypx) = 10
     Max number of k-points (npk) =  40000
     Max angular momentum in pseudopotentials (lmaxx) =  3

     Subspace diagonalization in iterative solution of the eigenvalue problem:
     a serial algorithm will be used

 
     Parallelization info
     --------------------
     sticks:   dense  smooth     PW     G-vecs:    dense   smooth      PW
     Min         136     136     33                 6338     6338     787
     Max         137     137     34                 6341     6341     792
     Sum        3809    3809    949               177509   177509   22119
 


     bravais-lattice index     =            1
     lattice parameter (alat)  =      20.0000  a.u.
     unit-cell volume          =    8000.0000 (a.u.)^3
     number of atoms/cell      =            3
     number of atomic types    =            2
     number of electrons       =         8.00
     number of Kohn-Sham states=            8
     kinetic-energy cutoff     =      30.0000  Ry
     charge density cutoff     =     120.0000  Ry
     convergence threshold     =      1.0E-08
     mixing beta               =       0.7000
     number of iterations used =            8  plain     mixing
     Exchange-correlation      = BLYP ( 1  3  1  3 0 0)
     nstep                     =         5000


     celldm(1)=  20.000000  celldm(2)=   0.000000  celldm(3)=   0.000000
     celldm(4)=   0.000000  celldm(5)=   0.000000  celldm(6)=   0.000000

     crystal axes: (cart. coord. in units of alat)
               a(1) = (   1.000000   0.000000   0.000000 )  
               a(2) = (   0.000000   1.000000   0.000000 )  
               a(3) = (   0.000000   0.000000   1.000000 )  

     reciprocal axes: (cart. coord. in units 2 pi/alat)
               b(1) = (  1.000000  0.000000  0.000000 )  
               b(2) = (  0.000000  1.000000  0.000000 )  
               b(3) = (  0.000000  0.000000  1.000000 )  


     PseudoPot. # 1 for  H read from file:
     ./H.blyp-hgh.UPF
     MD5 check sum: c576e69559cde411e611be972c763230
     Pseudo is Norm-conserving, Zval =  1.0
     Generated in analytical, separable form
     Using radial grid of  929 points,  0 beta functions with: 

     PseudoPot. # 2 for  O read from file:
     ./O.blyp-hgh.UPF
     MD5 check sum: d0b7156309aa9befef28faac7bc56342
     Pseudo is Norm-conserving, Zval =  6.0
     Generated in analytical, separable form
     Using radial grid of 1095 points,  1 beta functions with: 
                l(1) =   0

     atomic species   valence    mass     pseudopotential
        H              1.00     1.01000      H( 1.00)
        O              6.00    16.00000      O( 1.00)

     No symmetry found



   Cartesian axes

     site n.     atom                  positions (alat units)
         1           H   tau(   1) = (   0.3824327   0.7498098   0.9936940  )
         2           H   tau(   2) = (   0.1385935   0.0616567   1.1734569  )
         3           O   tau(   3) = (   0.1042501   1.0109247   0.2517151  )

     number of k points=     1  Marzari-Vanderbilt smearing, width (Ry)=  0.0250
                       cart. coord. in units 2pi/alat
        k(    1) = (   0.0000000   0.0000000   0.0000000), wk =   2.0000000

     Dense  grid:   177509 G-vectors     FFT dimensions: (  72,  72,  72)

     Estimated max dynamical RAM per process >       6.09Mb

     Estimated total allocated dynamical RAM >     170.64Mb

     Initial potential from superposition of free atoms
     Check: negative starting charge=   -0.346941

     starting charge    7.99998, renormalised to    8.00000

     negative rho (up, down):  3.469E-01 0.000E+00
     Starting wfc are    6 randomized atomic wfcs +    2 random wfc

     total cpu time spent up to now is        0.2 secs

     per-process dynamical memory:    18.8 Mb

     Self-consistent Calculation

     iteration #  1     ecut=    30.00 Ry     beta=0.70
     Davidson diagonalization with overlap
     ethr =  1.00E-02,  avg # of iterations =  9.0

     negative rho (up, down):  9.067E-02 0.000E+00

     total cpu time spent up to now is        0.3 secs

     total energy              =     -30.38204283 Ry
     Harris-Foulkes estimate   =     -32.23423487 Ry
     estimated scf accuracy    <       2.13433259 Ry

     iteration #  2     ecut=    30.00 Ry     beta=0.70
     Davidson diagonalization with overlap
     ethr =  1.00E-02,  avg # of iterations =  4.0

     negative rho (up, down):  6.600E-02 0.000E+00

     total cpu time spent up to now is        0.3 secs

     total energy              =     -32.27737339 Ry
     Harris-Foulkes estimate   =     -34.53285088 Ry
     estimated scf accuracy    <       5.50420596 Ry

     iteration #  3     ecut=    30.00 Ry     beta=0.70
     Davidson diagonalization with overlap
     ethr =  1.00E-02,  avg # of iterations =  2.0

     negative rho (up, down):  6.342E-02 0.000E+00

     total cpu time spent up to now is        0.4 secs

     total energy              =     -32.42550932 Ry
     Harris-Foulkes estimate   =     -32.51155072 Ry
     estimated scf accuracy    <       1.77698764 Ry

     iteration #  4     ecut=    30.00 Ry     beta=0.70
     Davidson diagonalization with overlap
     ethr =  1.00E-02,  avg # of iterations =  1.0

     negative rho (up, down):  1.108E-02 0.000E+00

     total cpu time spent up to now is        0.4 secs

     total energy              =     -31.30194696 Ry
     Harris-Foulkes estimate   =     -32.42582545 Ry
     estimated scf accuracy    <       1.65736134 Ry

     iteration #  5     ecut=    30.00 Ry     beta=0.70
     Davidson diagonalization with overlap
     ethr =  1.00E-02,  avg # of iterations =  3.0

     negative rho (up, down):  1.983E-02 0.000E+00

     total cpu time spent up to now is        0.4 secs

     total energy              =     -33.36398296 Ry
     Harris-Foulkes estimate   =     -33.24571844 Ry
     estimated scf accuracy    <       8.19611590 Ry

     iteration #  6     ecut=    30.00 Ry     beta=0.70
     Davidson diagonalization with overlap
     ethr =  1.00E-02,  avg # of iterations =  1.0

     negative rho (up, down):  1.904E-02 0.000E+00

     total cpu time spent up to now is        0.5 secs

     total energy              =     -33.31610814 Ry
     Harris-Foulkes estimate   =     -33.37303488 Ry
     estimated scf accuracy    <       9.33914140 Ry

     iteration #  7     ecut=    30.00 Ry     beta=0.70
     Davidson diagonalization with overlap
     ethr =  1.00E-02,  avg # of iterations =  1.0

     negative rho (up, down):  2.822E-02 0.000E+00

     total cpu time spent up to now is        0.5 secs

     total energy              =     -33.10784131 Ry
     Harris-Foulkes estimate   =     -33.31806825 Ry
     estimated scf accuracy    <       9.02783561 Ry

     iteration #  8     ecut=    30.00 Ry     beta=0.70
     Davidson diagonalization with overlap
     ethr =  1.00E-02,  avg # of iterations =  1.0

     negative rho (up, down):  2.557E-02 0.000E+00

     total cpu time spent up to now is        0.5 secs

     total energy              =     -32.87093890 Ry
     Harris-Foulkes estimate   =     -33.13074742 Ry
     estimated scf accuracy    <       5.25851448 Ry

     iteration #  9     ecut=    30.00 Ry     beta=0.70
     Davidson diagonalization with overlap
     ethr =  1.00E-02,  avg # of iterations =  1.0

     negative rho (up, down):  2.299E-02 0.000E+00

     total cpu time spent up to now is        0.6 secs

     total energy              =     -32.70063212 Ry
     Harris-Foulkes estimate   =     -32.91645371 Ry
     estimated scf accuracy    <       3.05360414 Ry

     iteration # 10     ecut=    30.00 Ry     beta=0.70
     Davidson diagonalization with overlap
     ethr =  1.00E-02,  avg # of iterations =  1.0

     negative rho (up, down):  4.153E-02 0.000E+00

     total cpu time spent up to now is        0.6 secs

     total energy              =     -32.49311611 Ry
     Harris-Foulkes estimate   =     -32.70461657 Ry
     estimated scf accuracy    <       2.60797155 Ry

     iteration # 11     ecut=    30.00 Ry     beta=0.70
     Davidson diagonalization with overlap
     ethr =  1.00E-02,  avg # of iterations =  1.0

     negative rho (up, down):  4.896E-02 0.000E+00

     total cpu time spent up to now is        0.6 secs

     total energy              =     -31.98152597 Ry
     Harris-Foulkes estimate   =     -32.49740344 Ry
     estimated scf accuracy    <       2.20783915 Ry

     iteration # 12     ecut=    30.00 Ry     beta=0.70
     Davidson diagonalization with overlap
     ethr =  1.00E-02,  avg # of iterations =  1.0

     negative rho (up, down):  8.999E-02 0.000E+00

     total cpu time spent up to now is        0.7 secs

     total energy              =     -31.70879712 Ry
     Harris-Foulkes estimate   =     -32.00377302 Ry
     estimated scf accuracy    <       1.32499694 Ry

     iteration # 13     ecut=    30.00 Ry     beta=0.70
     Davidson diagonalization with overlap
     ethr =  1.00E-02,  avg # of iterations =  1.0

     negative rho (up, down):  1.778E-01 0.000E+00

     total cpu time spent up to now is        0.7 secs

     total energy              =     -31.90463585 Ry
     Harris-Foulkes estimate   =     -32.11141682 Ry
     estimated scf accuracy    <       1.09175135 Ry

     iteration # 14     ecut=    30.00 Ry     beta=0.70
     Davidson diagonalization with overlap
     ethr =  1.00E-02,  avg # of iterations =  1.0

     negative rho (up, down):  8.062E-02 0.000E+00

     total cpu time spent up to now is        0.7 secs

     total energy              =     -31.92667233 Ry
     Harris-Foulkes estimate   =     -31.94122406 Ry
     estimated scf accuracy    <       0.35268525 Ry

     iteration # 15     ecut=    30.00 Ry     beta=0.70
     Davidson diagonalization with overlap
     ethr =  4.41E-03,  avg # of iterations =  1.0

     negative rho (up, down):  3.405E-02 0.000E+00

     total cpu time spent up to now is        0.8 secs

     total energy              =     -31.87081322 Ry
     Harris-Foulkes estimate   =     -31.94634095 Ry
     estimated scf accuracy    <       0.30409029 Ry

     iteration # 16     ecut=    30.00 Ry     beta=0.70
     Davidson diagonalization with overlap
     ethr =  3.80E-03,  avg # of iterations =  1.0

     negative rho (up, down):  1.171E-02 0.000E+00

     total cpu time spent up to now is        0.8 secs

     total energy              =     -31.94632596 Ry
     Harris-Foulkes estimate   =     -32.09263699 Ry
     estimated scf accuracy    <       1.38475143 Ry

     iteration # 17     ecut=    30.00 Ry     beta=0.70
     Davidson diagonalization with overlap
     ethr =  3.80E-03,  avg # of iterations =  1.0

     negative rho (up, down):  2.340E-03 0.000E+00

     total cpu time spent up to now is        0.8 secs

     total energy              =     -31.92313756 Ry
     Harris-Foulkes estimate   =     -31.94897246 Ry
     estimated scf accuracy    <       0.24893169 Ry

     iteration # 18     ecut=    30.00 Ry     beta=0.70
     Davidson diagonalization with overlap
     ethr =  3.11E-03,  avg # of iterations =  1.0

     negative rho (up, down):  8.938E-04 0.000E+00

     total cpu time spent up to now is        0.8 secs

     total energy              =     -31.92127118 Ry
     Harris-Foulkes estimate   =     -31.97047913 Ry
     estimated scf accuracy    <       0.83300995 Ry

     iteration # 19     ecut=    30.00 Ry     beta=0.70
     Davidson diagonalization with overlap
     ethr =  3.11E-03,  avg # of iterations =  1.0

     negative rho (up, down):  2.847E-04 0.000E+00

     total cpu time spent up to now is        0.9 secs

     total energy              =     -31.93939698 Ry
     Harris-Foulkes estimate   =     -31.94971853 Ry
     estimated scf accuracy    <       0.26495722 Ry

     iteration # 20     ecut=    30.00 Ry     beta=0.70
     Davidson diagonalization with overlap
     ethr =  3.11E-03,  avg # of iterations =  1.0

     negative rho (up, down):  1.577E-04 0.000E+00

     total cpu time spent up to now is        0.9 secs

     total energy              =     -31.95104514 Ry
     Harris-Foulkes estimate   =     -31.94724999 Ry
     estimated scf accuracy    <       0.06385065 Ry

     iteration # 21     ecut=    30.00 Ry     beta=0.70
     Davidson diagonalization with overlap
     ethr =  7.98E-04,  avg # of iterations =  1.0

     negative rho (up, down):  2.654E-04 0.000E+00

     total cpu time spent up to now is        0.9 secs

     total energy              =     -31.92651556 Ry
     Harris-Foulkes estimate   =     -31.95425145 Ry
     estimated scf accuracy    <       0.43940100 Ry

     iteration # 22     ecut=    30.00 Ry     beta=0.70
     Davidson diagonalization with overlap
     ethr =  7.98E-04,  avg # of iterations =  1.0

     negative rho (up, down):  9.746E-05 0.000E+00

     total cpu time spent up to now is        1.0 secs

     total energy              =     -31.93714135 Ry
     Harris-Foulkes estimate   =     -31.95469968 Ry
     estimated scf accuracy    <       0.63739829 Ry

     iteration # 23     ecut=    30.00 Ry     beta=0.70
     Davidson diagonalization with overlap
     ethr =  7.98E-04,  avg # of iterations =  1.0

     negative rho (up, down):  1.332E-04 0.000E+00

     total cpu time spent up to now is        1.0 secs

     total energy              =     -31.94618561 Ry
     Harris-Foulkes estimate   =     -31.94634505 Ry
     estimated scf accuracy    <       0.00272492 Ry

     iteration # 24     ecut=    30.00 Ry     beta=0.70
     Davidson diagonalization with overlap
     ethr =  3.41E-05,  avg # of iterations =  7.0

     negative rho (up, down):  9.777E-06 0.000E+00

     total cpu time spent up to now is        1.1 secs

     total energy              =     -31.94627957 Ry
     Harris-Foulkes estimate   =     -31.94635558 Ry
     estimated scf accuracy    <       0.00381722 Ry

     iteration # 25     ecut=    30.00 Ry     beta=0.70
     Davidson diagonalization with overlap
     ethr =  3.41E-05,  avg # of iterations =  1.0

     negative rho (up, down):  4.647E-07 0.000E+00

     total cpu time spent up to now is        1.1 secs

     total energy              =     -31.94629254 Ry
     Harris-Foulkes estimate   =     -31.94630954 Ry
     estimated scf accuracy    <       0.00023071 Ry

     iteration # 26     ecut=    30.00 Ry     beta=0.70
     Davidson diagonalization with overlap
     ethr =  2.88E-06,  avg # of iterations =  6.0

     negative rho (up, down):  1.806E-08 0.000E+00

     total cpu time spent up to now is        1.1 secs

     total energy              =     -31.94631890 Ry
     Harris-Foulkes estimate   =     -31.94632811 Ry
     estimated scf accuracy    <       0.00135443 Ry

     iteration # 27     ecut=    30.00 Ry     beta=0.70
     Davidson diagonalization with overlap
     ethr =  2.88E-06,  avg # of iterations =  1.0

     total cpu time spent up to now is        1.2 secs

     total energy              =     -31.94630118 Ry
     Harris-Foulkes estimate   =     -31.94632025 Ry
     estimated scf accuracy    <       0.00072121 Ry

     iteration # 28     ecut=    30.00 Ry     beta=0.70
     Davidson diagonalization with overlap
     ethr =  2.88E-06,  avg # of iterations =  1.0

     total cpu time spent up to now is        1.2 secs

     total energy              =     -31.94631144 Ry
     Harris-Foulkes estimate   =     -31.94631130 Ry
     estimated scf accuracy    <       0.00000099 Ry

     iteration # 29     ecut=    30.00 Ry     beta=0.70
     Davidson diagonalization with overlap
     ethr =  1.24E-08,  avg # of iterations =  1.0

     total cpu time spent up to now is        1.2 secs

     total energy              =     -31.94631143 Ry
     Harris-Foulkes estimate   =     -31.94631145 Ry
     estimated scf accuracy    <       0.00000232 Ry

     iteration # 30     ecut=    30.00 Ry     beta=0.70
     Davidson diagonalization with overlap
     ethr =  1.24E-08,  avg # of iterations =  1.0

     total cpu time spent up to now is        1.2 secs

     End of self-consistent calculation

          k = 0.0000 0.0000 0.0000 ( 22119 PWs)   bands (ev):

   -24.8031 -10.6476  -7.0618  -7.0572  -6.9134  -0.6994   0.2976   0.8412

     the Fermi energy is    -6.8868 ev

!    total energy              =     -31.94631155 Ry
     Harris-Foulkes estimate   =     -31.94631146 Ry
     estimated scf accuracy    <          3.9E-09 Ry

     convergence has been achieved in  30 iterations

     Forces acting on atoms (Ry/au):

     atom    1 type  1   force =    -0.00008014    0.00047767    0.00020809
     atom    2 type  1   force =     0.00556078    0.00996282   -0.01373960
     atom    3 type  2   force =    -0.00548064   -0.01044049    0.01353151

     Total force =     0.025325     Total SCF correction =     0.000118

     Molecular Dynamics Calculation

     Starting temperature  =  1000.00 K

     temperature is controlled by Andersen thermostat
     Collision frequency = 1.0000/timestep
     mass H                =     1.01
     mass O                =    16.00
     Time step             =   100.00 a.u.,  4.8378 femto-seconds

     Entering Dynamics:    iteration =     1
                           time      =   0.0048 pico-seconds


     Andersen thermostat:    3 collisions

ATOMIC_POSITIONS (bohr)
H        7.573749178  15.304707752  20.204079403
H        2.984105869   1.385090469  22.960535820
O        2.076331978  20.189426880   5.045564738


     kinetic energy (Ekin) =     0.02072080 Ry
     temperature           =  1090.51731553 K 
     Ekin + Etot (const)   =   -31.92559075 Ry

     Linear momentum :    0.0000000000   -0.0000000000   -0.0000000000

     Writing output data file pwscf.save
     Check: negative starting charge=   -0.346941
     NEW-OLD atomic charge density approx. for the potential
     Check: negative starting charge=   -0.344844

     negative rho (up, down):  6.501E-02 0.000E+00

     total cpu time spent up to now is        1.5 secs

     per-process dynamical memory:    20.4 Mb

     Self-consistent Calculation

     iteration #  1     ecut=    30.00 Ry     beta=0.70
     Davidson diagonalization with overlap
     c_bands:  1 eigenvalues not converged
     ethr =  1.00E-06,  avg # of iterations = 20.0

     negative rho (up, down):  1.545E-02 0.000E+00

     total cpu time spent up to now is        1.6 secs

     total energy              =     -30.58846214 Ry
     Harris-Foulkes estimate   =     -31.84462855 Ry
     estimated scf accuracy    <       1.60936587 Ry

     iteration #  2     ecut=    30.00 Ry     beta=0.70
     Davidson diagonalization with overlap
     ethr =  1.00E-02,  avg # of iterations =  3.0

     negative rho (up, down):  1.152E-02 0.000E+00

     total cpu time spent up to now is        1.6 secs

     total energy              =     -32.20216741 Ry
     Harris-Foulkes estimate   =     -34.36297005 Ry
     estimated scf accuracy    <       5.69495066 Ry

     iteration #  3     ecut=    30.00 Ry     beta=0.70
     Davidson diagonalization with overlap
     ethr =  1.00E-02,  avg # of iterations =  2.0

     negative rho (up, down):  9.786E-03 0.000E+00

     total cpu time spent up to now is        1.7 secs

     total energy              =     -32.17568684 Ry
     Harris-Foulkes estimate   =     -32.46991608 Ry
     estimated scf accuracy    <       1.76415075 Ry

     iteration #  4     ecut=    30.00 Ry     beta=0.70
     Davidson diagonalization with overlap
     ethr =  1.00E-02,  avg # of iterations =  2.0

     negative rho (up, down):  7.613E-03 0.000E+00

     total cpu time spent up to now is        1.7 secs

     total energy              =     -31.84973661 Ry
     Harris-Foulkes estimate   =     -32.17736214 Ry
     estimated scf accuracy    <       1.37961297 Ry

     iteration #  5     ecut=    30.00 Ry     beta=0.70
     Davidson diagonalization with overlap
     ethr =  1.00E-02,  avg # of iterations =  1.0

     negative rho (up, down):  2.794E-03 0.000E+00

     total cpu time spent up to now is        1.7 secs

     total energy              =     -31.84594747 Ry
     Harris-Foulkes estimate   =     -31.85509603 Ry
     estimated scf accuracy    <       0.18100258 Ry

     iteration #  6     ecut=    30.00 Ry     beta=0.70
     Davidson diagonalization with overlap
     ethr =  2.26E-03,  avg # of iterations =  2.0

     negative rho (up, down):  1.526E-04 0.000E+00

     total cpu time spent up to now is        1.8 secs

     total energy              =     -31.85953869 Ry
     Harris-Foulkes estimate   =     -31.87814914 Ry
     estimated scf accuracy    <       0.97473866 Ry

     iteration #  7     ecut=    30.00 Ry     beta=0.70
     Davidson diagonalization with overlap
     ethr =  2.26E-03,  avg # of iterations =  1.0

     negative rho (up, down):  2.553E-05 0.000E+00

     total cpu time spent up to now is        1.8 secs

     total energy              =     -31.86686493 Ry
     Harris-Foulkes estimate   =     -31.86647044 Ry
     estimated scf accuracy    <       0.07032338 Ry

     iteration #  8     ecut=    30.00 Ry     beta=0.70
     Davidson diagonalization with overlap
     ethr =  8.79E-04,  avg # of iterations =  1.0

     negative rho (up, down):  3.028E-06 0.000E+00

     total cpu time spent up to now is        1.8 secs

     total energy              =     -31.86190641 Ry
     Harris-Foulkes estimate   =     -31.86692535 Ry
     estimated scf accuracy    <       0.10674301 Ry

     iteration #  9     ecut=    30.00 Ry     beta=0.70
     Davidson diagonalization with overlap
     ethr =  8.79E-04,  avg # of iterations =  1.0

     negative rho (up, down):  1.485E-06 0.000E+00

     total cpu time spent up to now is        1.9 secs

     total energy              =     -31.86248171 Ry
     Harris-Foulkes estimate   =     -31.86649020 Ry
     estimated scf accuracy    <       0.06557719 Ry

     iteration # 10     ecut=    30.00 Ry     beta=0.70
     Davidson diagonalization with overlap
     ethr =  8.20E-04,  avg # of iterations =  1.0

     total cpu time spent up to now is        1.9 secs

     total energy              =     -31.86143594 Ry
     Harris-Foulkes estimate   =     -31.86707608 Ry
     estimated scf accuracy    <       0.11796232 Ry

     iteration # 11     ecut=    30.00 Ry     beta=0.70
     Davidson diagonalization with overlap
     ethr =  8.20E-04,  avg # of iterations =  1.0

     total cpu time spent up to now is        1.9 secs

     total energy              =     -31.86508885 Ry
     Harris-Foulkes estimate   =     -31.86666348 Ry
     estimated scf accuracy    <       0.07703963 Ry

     iteration # 12     ecut=    30.00 Ry     beta=0.70
     Davidson diagonalization with overlap
     ethr =  8.20E-04,  avg # of iterations =  1.0

     total cpu time spent up to now is        2.0 secs

     total energy              =     -31.86558880 Ry
     Harris-Foulkes estimate   =     -31.86564073 Ry
     estimated scf accuracy    <       0.00602439 Ry

     iteration # 13     ecut=    30.00 Ry     beta=0.70
     Davidson diagonalization with overlap
     ethr =  7.53E-05,  avg # of iterations =  3.0

     total cpu time spent up to now is        2.0 secs

     total energy              =     -31.86552135 Ry
     Harris-Foulkes estimate   =     -31.86559709 Ry
     estimated scf accuracy    <       0.00278958 Ry

     iteration # 14     ecut=    30.00 Ry     beta=0.70
     Davidson diagonalization with overlap
     ethr =  3.49E-05,  avg # of iterations =  1.0

     total cpu time spent up to now is        2.0 secs

     total energy              =     -31.86555972 Ry
     Harris-Foulkes estimate   =     -31.86555962 Ry
     estimated scf accuracy    <       0.00000133 Ry

     iteration # 15     ecut=    30.00 Ry     beta=0.70
     Davidson diagonalization with overlap
     c_bands:  1 eigenvalues not converged
     ethr =  1.67E-08,  avg # of iterations = 20.0

     total cpu time spent up to now is        2.1 secs

     total energy              =     -31.86555985 Ry
     Harris-Foulkes estimate   =     -31.86555976 Ry
     estimated scf accuracy    <       0.00000004 Ry

     iteration # 16     ecut=    30.00 Ry     beta=0.70
     Davidson diagonalization with overlap
     ethr =  4.51E-10,  avg # of iterations =  2.0

     total cpu time spent up to now is        2.1 secs

     End of self-consistent calculation

          k = 0.0000 0.0000 0.0000 ( 22119 PWs)   bands (ev):

   -23.9135  -9.7142  -6.9764  -6.9674  -6.8230  -2.1467   0.0166   0.8194

     the Fermi energy is    -6.7983 ev

!    total energy              =     -31.86555988 Ry
     Harris-Foulkes estimate   =     -31.86555985 Ry
     estimated scf accuracy    <          8.4E-10 Ry

     convergence has been achieved in  16 iterations

     Forces acting on atoms (Ry/au):

     atom    1 type  1   force =    -0.00022336    0.00045931    0.00023125
     atom    2 type  1   force =    -0.06826549   -0.08874805    0.15650649
     atom    3 type  2   force =     0.06848885    0.08828874   -0.15673774

     Total force =     0.272183     Total SCF correction =     0.000014

     Entering Dynamics:    iteration =     2
                           time      =   0.0097 pico-seconds


     Andersen thermostat:    3 collisions

ATOMIC_POSITIONS (bohr)
H        7.769929809  15.319698409  20.176445337
H        2.159237333   0.070674728  24.513098981
O        2.116017902  20.271453089   4.949303589


     kinetic energy (Ekin) =     0.07040977 Ry
     temperature           =  3705.60354497 K 
     Ekin + Etot (const)   =   -31.79515011 Ry
     Message from routine dynamics:
     Total linear momentum <> 0

     Linear momentum :    0.2295565653    0.1580678658    0.0731340109

     Writing output data file pwscf.save

     first order wave-functions extrapolation
     Check: negative starting charge=   -0.344844
     first order charge density extrapolation
     Check: negative starting charge=   -0.353948

     negative rho (up, down):  4.719E-01 0.000E+00

     total cpu time spent up to now is        2.4 secs

     per-process dynamical memory:    20.4 Mb

     Self-consistent Calculation

     iteration #  1     ecut=    30.00 Ry     beta=0.70
     Davidson diagonalization with overlap
     c_bands:  1 eigenvalues not converged
     ethr =  1.00E-06,  avg # of iterations = 20.0

     negative rho (up, down):  1.099E-01 0.000E+00

     total cpu time spent up to now is        2.5 secs

     total energy              =       8.26055732 Ry
     Harris-Foulkes estimate   =     -41.11891714 Ry
     estimated scf accuracy    <       6.83580864 Ry

     iteration #  2     ecut=    30.00 Ry     beta=0.70
     Davidson diagonalization with overlap
     ethr =  1.00E-02,  avg # of iterations =  5.0

     negative rho (up, down):  6.221E-02 0.000E+00

     total cpu time spent up to now is        2.6 secs

     total energy              =      -4.96220703 Ry
     Harris-Foulkes estimate   =     -23.68706944 Ry
     estimated scf accuracy    <       8.54822212 Ry

     iteration #  3     ecut=    30.00 Ry     beta=0.70
     Davidson diagonalization with overlap
     ethr =  1.00E-02,  avg # of iterations =  3.0

     negative rho (up, down):  4.398E-02 0.000E+00

     total cpu time spent up to now is        2.7 secs

     total energy              =     -20.93918705 Ry
     Harris-Foulkes estimate   =     -23.40042162 Ry
     estimated scf accuracy    <       6.84297784 Ry

     iteration #  4     ecut=    30.00 Ry     beta=0.70
     Davidson diagonalization with overlap
     ethr =  1.00E-02,  avg # of iterations =  2.0

     negative rho (up, down):  2.754E-02 0.000E+00

     total cpu time spent up to now is        2.8 secs

     total energy              =     -19.76934568 Ry
     Harris-Foulkes estimate   =     -21.05492615 Ry
     estimated scf accuracy    <       3.15602994 Ry

     iteration #  5     ecut=    30.00 Ry     beta=0.70
     Davidson diagonalization with overlap
     ethr =  1.00E-02,  avg # of iterations =  1.0

     negative rho (up, down):  2.760E-02 0.000E+00

     total cpu time spent up to now is        2.8 secs

     total energy              =     -20.20502787 Ry
     Harris-Foulkes estimate   =     -20.48019237 Ry
     estimated scf accuracy    <       2.78623017 Ry

     iteration #  6     ecut=    30.00 Ry     beta=0.70
     Davidson diagonalization with overlap
     ethr =  1.00E-02,  avg # of iterations =  1.0

     negative rho (up, down):  2.658E-02 0.000E+00

     total cpu time spent up to now is        2.8 secs

     total energy              =     -20.08756816 Ry
     Harris-Foulkes estimate   =     -20.20875894 Ry
     estimated scf accuracy    <       2.31489453 Ry

     iteration #  7     ecut=    30.00 Ry     beta=0.70
     Davidson diagonalization with overlap
     ethr =  1.00E-02,  avg # of iterations =  1.0

     negative rho (up, down):  2.112E-02 0.000E+00

     total cpu time spent up to now is        2.9 secs

     total energy              =     -19.43063204 Ry
     Harris-Foulkes estimate   =     -20.08824218 Ry
     estimated scf accuracy    <       2.14540465 Ry

     iteration #  8     ecut=    30.00 Ry     beta=0.70
     Davidson diagonalization with overlap
     ethr =  1.00E-02,  avg # of iterations =  1.0

     negative rho (up, down):  1.255E-01 0.000E+00

     total cpu time spent up to now is        2.9 secs

     total energy              =     -20.11976588 Ry
     Harris-Foulkes estimate   =     -19.97446644 Ry
     estimated scf accuracy    <       1.33774857 Ry

     iteration #  9     ecut=    30.00 Ry     beta=0.70
     Davidson diagonalization with overlap
     ethr =  1.00E-02,  avg # of iterations =  4.0

     negative rho (up, down):  1.262E-01 0.000E+00

     total cpu time spent up to now is        3.0 secs

     total energy              =     -13.99308319 Ry
     Harris-Foulkes estimate   =     -64.11692904 Ry
     estimated scf accuracy    <      17.91521024 Ry

     iteration # 10     ecut=    30.00 Ry     beta=0.70
     Davidson diagonalization with overlap
     ethr =  1.00E-02,  avg # of iterations =  3.0

     negative rho (up, down):  2.603E-01 0.000E+00

     total cpu time spent up to now is        3.0 secs

     total energy              =      -9.91363291 Ry
     Harris-Foulkes estimate   =     -24.93049131 Ry
     estimated scf accuracy    <       6.86939417 Ry

     iteration # 11     ecut=    30.00 Ry     beta=0.70
     Davidson diagonalization with overlap
     ethr =  1.00E-02,  avg # of iterations =  3.0

     negative rho (up, down):  1.085E-02 0.000E+00

     total cpu time spent up to now is        3.0 secs

     total energy              =     -16.51773126 Ry
     Harris-Foulkes estimate   =     -25.86399240 Ry
     estimated scf accuracy    <       6.46634557 Ry

     iteration # 12     ecut=    30.00 Ry     beta=0.70
     Davidson diagonalization with overlap
     ethr =  1.00E-02,  avg # of iterations =  3.0

     negative rho (up, down):  5.956E-03 0.000E+00

     total cpu time spent up to now is        3.1 secs

     total energy              =     -19.68386448 Ry
     Harris-Foulkes estimate   =     -20.85617704 Ry
     estimated scf accuracy    <       5.16407762 Ry

     iteration # 13     ecut=    30.00 Ry     beta=0.70
     Davidson diagonalization with overlap
     ethr =  1.00E-02,  avg # of iterations =  3.0

     negative rho (up, down):  1.463E-02 0.000E+00

     total cpu time spent up to now is        3.1 secs

     total energy              =     -62.48890283 Ry
     Harris-Foulkes estimate   =     -24.99922167 Ry
     estimated scf accuracy    <       8.68757895 Ry

     iteration # 14     ecut=    30.00 Ry     beta=0.70
     Davidson diagonalization with overlap
     ethr =  1.00E-02,  avg # of iterations =  4.0

     negative rho (up, down):  3.737E-02 0.000E+00

     total cpu time spent up to now is        3.2 secs

     total energy              =     -84.36367661 Ry
     Harris-Foulkes estimate   =    -200.16381691 Ry
     estimated scf accuracy    <      29.23894457 Ry

     iteration # 15     ecut=    30.00 Ry     beta=0.70
     Davidson diagonalization with overlap
     ethr =  1.00E-02,  avg # of iterations =  4.0

     negative rho (up, down):  3.326E-02 0.000E+00

     total cpu time spent up to now is        3.2 secs

     total energy              =     -32.50761538 Ry
     Harris-Foulkes estimate   =    -173.93893923 Ry
     estimated scf accuracy    <       6.76235327 Ry

     iteration # 16     ecut=    30.00 Ry     beta=0.70
     Davidson diagonalization with overlap
     ethr =  1.00E-02,  avg # of iterations =  4.0

     negative rho (up, down):  5.434E-02 0.000E+00

     total cpu time spent up to now is        3.2 secs

     total energy              =    -230.53941696 Ry
     Harris-Foulkes estimate   =     -71.67773270 Ry
     estimated scf accuracy    <      18.77487200 Ry

     iteration # 17     ecut=    30.00 Ry     beta=0.70
     Davidson diagonalization with overlap
     ethr =  1.00E-02,  avg # of iterations =  4.0

     negative rho (up, down):  7.320E-01 0.000E+00

     total cpu time spent up to now is        3.3 secs

     total energy              =    -180.82911123 Ry
     Harris-Foulkes estimate   =    -395.16484806 Ry
     estimated scf accuracy    <      39.32473284 Ry

     iteration # 18     ecut=    30.00 Ry     beta=0.70
     Davidson diagonalization with overlap
     ethr =  1.00E-02,  avg # of iterations =  6.0

     negative rho (up, down):  6.930E-01 0.000E+00

     total cpu time spent up to now is        3.3 secs

     total energy              =      40.36556942 Ry
     Harris-Foulkes estimate   =    -868.25782034 Ry
     estimated scf accuracy    <      61.73935846 Ry

     iteration # 19     ecut=    30.00 Ry     beta=0.70
     Davidson diagonalization with overlap
     ethr =  1.00E-02,  avg # of iterations =  7.0

     negative rho (up, down):  6.605E-01 0.000E+00

     total cpu time spent up to now is        3.4 secs

     total energy              =      52.62404207 Ry
     Harris-Foulkes estimate   =   -3448.96781594 Ry
     estimated scf accuracy    <      49.34940064 Ry

     iteration # 20     ecut=    30.00 Ry     beta=0.70
     Davidson diagonalization with overlap
     ethr =  1.00E-02,  avg # of iterations =  8.0

     negative rho (up, down):  7.207E-01 0.000E+00

     total cpu time spent up to now is        3.5 secs

     total energy              =    -112.87831518 Ry
     Harris-Foulkes estimate   =     -93.85137532 Ry
     estimated scf accuracy    <      55.21279355 Ry

     iteration # 21     ecut=    30.00 Ry     beta=0.70
     Davidson diagonalization with overlap
     ethr =  1.00E-02,  avg # of iterations =  7.0

     negative rho (up, down):  8.853E-01 0.000E+00

     total cpu time spent up to now is        3.5 secs

     total energy              =      46.48278499 Ry
     Harris-Foulkes estimate   =   -2538.92320552 Ry
     estimated scf accuracy    <      60.51060510 Ry

     iteration # 22     ecut=    30.00 Ry     beta=0.70
     Davidson diagonalization with overlap
     ethr =  1.00E-02,  avg # of iterations =  7.0

     negative rho (up, down):  1.081E+00 0.000E+00

     total cpu time spent up to now is        3.6 secs

     total energy              =    5856.54146410 Ry
     Harris-Foulkes estimate   =   -4451.82915192 Ry
     estimated scf accuracy    <      50.29190186 Ry

     iteration # 23     ecut=    30.00 Ry     beta=0.70
     Davidson diagonalization with overlap
     ethr =  1.00E-02,  avg # of iterations =  8.0

     negative rho (up, down):  1.272E+00 0.000E+00

     total cpu time spent up to now is        3.6 secs

     total energy              =      86.90587446 Ry
     Harris-Foulkes estimate   =   -2395.32107777 Ry
     estimated scf accuracy    <      48.65368815 Ry

     iteration # 24     ecut=    30.00 Ry     beta=0.70
     Davidson diagonalization with overlap
     ethr =  1.00E-02,  avg # of iterations =  7.0

     negative rho (up, down):  2.431E+00 0.000E+00

     total cpu time spent up to now is        3.7 secs

     total energy              =   -3969.69852383 Ry
     Harris-Foulkes estimate   =    -671.79172193 Ry
     estimated scf accuracy    <      49.05095078 Ry

     iteration # 25     ecut=    30.00 Ry     beta=0.70
     Davidson diagonalization with overlap
     ethr =  1.00E-02,  avg # of iterations =  9.0

     negative rho (up, down):  2.422E+00 0.000E+00

     total cpu time spent up to now is        3.7 secs

     total energy              =     120.99975745 Ry
     Harris-Foulkes estimate   =   -7959.41850799 Ry
     estimated scf accuracy    <      38.18443253 Ry

     iteration # 26     ecut=    30.00 Ry     beta=0.70
     Davidson diagonalization with overlap
     ethr =  1.00E-02,  avg # of iterations =  7.0

     negative rho (up, down):  2.041E+00 0.000E+00

     total cpu time spent up to now is        3.8 secs

     total energy              =      71.10931560 Ry
     Harris-Foulkes estimate   =    -911.94688510 Ry
     estimated scf accuracy    <      38.75095452 Ry

     iteration # 27     ecut=    30.00 Ry     beta=0.70
     Davidson diagonalization with overlap
     ethr =  1.00E-02,  avg # of iterations =  8.0

     negative rho (up, down):  1.501E+00 0.000E+00

     total cpu time spent up to now is        3.9 secs

     total energy              =      48.88503921 Ry
     Harris-Foulkes estimate   =  -15094.86803816 Ry
     estimated scf accuracy    <      41.97241774 Ry

     iteration # 28     ecut=    30.00 Ry     beta=0.70
     Davidson diagonalization with overlap
     ethr =  1.00E-02,  avg # of iterations =  8.0

     negative rho (up, down):  1.418E+00 0.000E+00

     total cpu time spent up to now is        4.0 secs

     total energy              =     -29.84165993 Ry
     Harris-Foulkes estimate   =   -2901.16642463 Ry
     estimated scf accuracy    <      24.51742562 Ry

     iteration # 29     ecut=    30.00 Ry     beta=0.70
     Davidson diagonalization with overlap
     ethr =  1.00E-02,  avg # of iterations = 15.0

     negative rho (up, down):  5.286E-01 0.000E+00

     total cpu time spent up to now is        4.0 secs

     total energy              =     108.75093158 Ry
     Harris-Foulkes estimate   =   -1262.24460480 Ry
     estimated scf accuracy    <      23.00802067 Ry

     iteration # 30     ecut=    30.00 Ry     beta=0.70
     Davidson diagonalization with overlap
     ethr =  1.00E-02,  avg # of iterations =  8.0

     negative rho (up, down):  4.451E-01 0.000E+00

     total cpu time spent up to now is        4.1 secs

     total energy              =      74.58764224 Ry
     Harris-Foulkes estimate   =   -1079.95104418 Ry
     estimated scf accuracy    <      27.40207613 Ry

     iteration # 31     ecut=    30.00 Ry     beta=0.70
     Davidson diagonalization with overlap
     ethr =  1.00E-02,  avg # of iterations =  7.0

     negative rho (up, down):  4.150E-01 0.000E+00

     total cpu time spent up to now is        4.2 secs

     total energy              =      95.42177027 Ry
     Harris-Foulkes estimate   =   -5011.08241580 Ry
     estimated scf accuracy    <      26.74592590 Ry

     iteration # 32     ecut=    30.00 Ry     beta=0.70
     Davidson diagonalization with overlap
     ethr =  1.00E-02,  avg # of iterations = 13.0

     negative rho (up, down):  2.577E-01 0.000E+00

     total cpu time spent up to now is        4.2 secs

     total energy              =      87.18964940 Ry
     Harris-Foulkes estimate   =   -1468.07910667 Ry
     estimated scf accuracy    <      16.63248444 Ry

     iteration # 33     ecut=    30.00 Ry     beta=0.70
     Davidson diagonalization with overlap
     ethr =  1.00E-02,  avg # of iterations =  7.0

     negative rho (up, down):  2.876E-02 0.000E+00

     total cpu time spent up to now is        4.3 secs

     total energy              =      52.09249500 Ry
     Harris-Foulkes estimate   =   -1122.68659119 Ry
     estimated scf accuracy    <      22.25795664 Ry

     iteration # 34     ecut=    30.00 Ry     beta=0.70
     Davidson diagonalization with overlap
     ethr =  1.00E-02,  avg # of iterations =  8.0

     negative rho (up, down):  4.064E-02 0.000E+00

     total cpu time spent up to now is        4.3 secs

     total energy              =      54.23359535 Ry
     Harris-Foulkes estimate   =   -1684.10047255 Ry
     estimated scf accuracy    <      22.18945517 Ry

     iteration # 35     ecut=    30.00 Ry     beta=0.70
     Davidson diagonalization with overlap
     ethr =  1.00E-02,  avg # of iterations =  6.0

     negative rho (up, down):  9.467E-02 0.000E+00

     total cpu time spent up to now is        4.4 secs

     total energy              =      24.23989974 Ry
     Harris-Foulkes estimate   =    -329.03942937 Ry
     estimated scf accuracy    <      15.84275474 Ry

     iteration # 36     ecut=    30.00 Ry     beta=0.70
     Davidson diagonalization with overlap
     ethr =  1.00E-02,  avg # of iterations =  6.0

     negative rho (up, down):  3.711E-02 0.000E+00

     total cpu time spent up to now is        4.4 secs

     total energy              =     -15.19369726 Ry
     Harris-Foulkes estimate   =   -1600.79395656 Ry
     estimated scf accuracy    <      24.61656309 Ry

     iteration # 37     ecut=    30.00 Ry     beta=0.70
     Davidson diagonalization with overlap
     ethr =  1.00E-02,  avg # of iterations =  6.0

     negative rho (up, down):  5.021E-02 0.000E+00

     total cpu time spent up to now is        4.5 secs

     total energy              =     -23.23609658 Ry
     Harris-Foulkes estimate   =    -204.63559531 Ry
     estimated scf accuracy    <      28.24491608 Ry

     iteration # 38     ecut=    30.00 Ry     beta=0.70
     Davidson diagonalization with overlap
     ethr =  1.00E-02,  avg # of iterations =  5.0

     negative rho (up, down):  4.201E-02 0.000E+00

     total cpu time spent up to now is        4.5 secs

     total energy              =      28.13105128 Ry
     Harris-Foulkes estimate   =     -94.35664625 Ry
     estimated scf accuracy    <      20.06852787 Ry

     iteration # 39     ecut=    30.00 Ry     beta=0.70
     Davidson diagonalization with overlap
     ethr =  1.00E-02,  avg # of iterations =  5.0

     negative rho (up, down):  2.306E-01 0.000E+00

     total cpu time spent up to now is        4.6 secs

     total energy              =      -0.41661099 Ry
     Harris-Foulkes estimate   =     -96.05746830 Ry
     estimated scf accuracy    <      31.26626797 Ry

     iteration # 40     ecut=    30.00 Ry     beta=0.70
     Davidson diagonalization with overlap
     ethr =  1.00E-02,  avg # of iterations =  5.0

     negative rho (up, down):  3.343E-01 0.000E+00

     total cpu time spent up to now is        4.6 secs

     total energy              =    -397.27598804 Ry
     Harris-Foulkes estimate   =    -104.11637661 Ry
     estimated scf accuracy    <      54.75016523 Ry

     iteration # 41     ecut=    30.00 Ry     beta=0.70
     Davidson diagonalization with overlap
     ethr =  1.00E-02,  avg # of iterations =  5.0

     negative rho (up, down):  5.272E-01 0.000E+00

     total cpu time spent up to now is        4.7 secs

     total energy              =      31.63336768 Ry
     Harris-Foulkes estimate   =   -1291.29067384 Ry
     estimated scf accuracy    <      32.32902445 Ry

     iteration # 42     ecut=    30.00 Ry     beta=0.70
     Davidson diagonalization with overlap
     ethr =  1.00E-02,  avg # of iterations =  8.0

     negative rho (up, down):  6.996E-01 0.000E+00

     total cpu time spent up to now is        4.7 secs

     total energy              =      68.79053801 Ry
     Harris-Foulkes estimate   =   -1641.05894985 Ry
     estimated scf accuracy    <      35.60515631 Ry

     iteration # 43     ecut=    30.00 Ry     beta=0.70
     Davidson diagonalization with overlap
     ethr =  1.00E-02,  avg # of iterations =  7.0

     negative rho (up, down):  9.772E-01 0.000E+00

     total cpu time spent up to now is        4.8 secs

     total energy              =      38.21953592 Ry
     Harris-Foulkes estimate   =    -292.49404927 Ry
     estimated scf accuracy    <      36.76568753 Ry

     iteration # 44     ecut=    30.00 Ry     beta=0.70
     Davidson diagonalization with overlap
     ethr =  1.00E-02,  avg # of iterations = 13.0

     negative rho (up, down):  1.229E+00 0.000E+00

     total cpu time spent up to now is        4.9 secs

     total energy              =      48.72176638 Ry
     Harris-Foulkes estimate   =   -2683.11090128 Ry
     estimated scf accuracy    <      29.11696162 Ry

     iteration # 45     ecut=    30.00 Ry     beta=0.70
     Davidson diagonalization with overlap
     ethr =  1.00E-02,  avg # of iterations =  9.0

     negative rho (up, down):  1.235E+00 0.000E+00

     total cpu time spent up to now is        4.9 secs

     total energy              =    -376.86620518 Ry
     Harris-Foulkes estimate   =   -1329.20382401 Ry
     estimated scf accuracy    <      37.71551575 Ry

     iteration # 46     ecut=    30.00 Ry     beta=0.70
     Davidson diagonalization with overlap
     ethr =  1.00E-02,  avg # of iterations =  8.0

     negative rho (up, down):  1.302E+00 0.000E+00

     total cpu time spent up to now is        5.0 secs

     total energy              =    -270.85903104 Ry
     Harris-Foulkes estimate   =   -7365.41642117 Ry
     estimated scf accuracy    <      45.73289789 Ry

     iteration # 47     ecut=    30.00 Ry     beta=0.70
     Davidson diagonalization with overlap
     ethr =  1.00E-02,  avg # of iterations =  8.0

     negative rho (up, down):  1.654E+00 0.000E+00

     total cpu time spent up to now is        5.0 secs

     total energy              =      60.37165476 Ry
     Harris-Foulkes estimate   =   -3597.12954643 Ry
     estimated scf accuracy    <      38.74381779 Ry

     iteration # 48     ecut=    30.00 Ry     beta=0.70
     Davidson diagonalization with overlap
     ethr =  1.00E-02,  avg # of iterations = 17.0

     negative rho (up, down):  1.781E+00 0.000E+00

     total cpu time spent up to now is        5.1 secs

     total energy              =      45.52079732 Ry
     Harris-Foulkes estimate   =    -757.06559748 Ry
     estimated scf accuracy    <      34.91694578 Ry

     iteration # 49     ecut=    30.00 Ry     beta=0.70
     Davidson diagonalization with overlap
     ethr =  1.00E-02,  avg # of iterations =  7.0

     negative rho (up, down):  8.032E-01 0.000E+00

     total cpu time spent up to now is        5.2 secs

     total energy              =      83.16760831 Ry
     Harris-Foulkes estimate   =   -2808.83582239 Ry
     estimated scf accuracy    <      25.80896273 Ry

     iteration # 50     ecut=    30.00 Ry     beta=0.70
     Davidson diagonalization with overlap
     ethr =  1.00E-02,  avg # of iterations =  7.0

     negative rho (up, down):  8.740E-01 0.000E+00

     total cpu time spent up to now is        5.2 secs

     total energy              =    -108.61220916 Ry
     Harris-Foulkes estimate   =    -264.92708150 Ry
     estimated scf accuracy    <      26.76897139 Ry

     iteration # 51     ecut=    30.00 Ry     beta=0.70
     Davidson diagonalization with overlap
     ethr =  1.00E-02,  avg # of iterations =  6.0

     negative rho (up, down):  9.978E-01 0.000E+00

     total cpu time spent up to now is        5.3 secs

     total energy              =      54.10587449 Ry
     Harris-Foulkes estimate   =   -2112.52772647 Ry
     estimated scf accuracy    <      28.00139191 Ry

     iteration # 52     ecut=    30.00 Ry     beta=0.70
     Davidson diagonalization with overlap
     ethr =  1.00E-02,  avg # of iterations =  8.0

     negative rho (up, down):  1.318E+00 0.000E+00

     total cpu time spent up to now is        5.3 secs

     total energy              =   -3499.32584757 Ry
     Harris-Foulkes estimate   =   -2054.69993615 Ry
     estimated scf accuracy    <      31.45406401 Ry

     iteration # 53     ecut=    30.00 Ry     beta=0.70
     Davidson diagonalization with overlap
     ethr =  1.00E-02,  avg # of iterations =  8.0

     negative rho (up, down):  1.401E+00 0.000E+00

     total cpu time spent up to now is        5.4 secs

     total energy              =      91.07346958 Ry
     Harris-Foulkes estimate   =   -7112.72992688 Ry
     estimated scf accuracy    <      34.13262557 Ry

     iteration # 54     ecut=    30.00 Ry     beta=0.70
     Davidson diagonalization with overlap
     ethr =  1.00E-02,  avg # of iterations = 12.0

     negative rho (up, down):  3.902E-01 0.000E+00

     total cpu time spent up to now is        5.5 secs

     total energy              =      50.08881494 Ry
     Harris-Foulkes estimate   =     -87.45903600 Ry
     estimated scf accuracy    <      29.45278546 Ry

     iteration # 55     ecut=    30.00 Ry     beta=0.70
     Davidson diagonalization with overlap
     ethr =  1.00E-02,  avg # of iterations =  7.0

     negative rho (up, down):  4.076E-02 0.000E+00

     total cpu time spent up to now is        5.5 secs

     total energy              =      70.69508911 Ry
     Harris-Foulkes estimate   =    -939.45535276 Ry
     estimated scf accuracy    <      19.50015943 Ry

     iteration # 56     ecut=    30.00 Ry     beta=0.70
     Davidson diagonalization with overlap
     ethr =  1.00E-02,  avg # of iterations =  5.0

     negative rho (up, down):  8.113E-03 0.000E+00

     total cpu time spent up to now is        5.6 secs

     total energy              =      60.93695539 Ry
     Harris-Foulkes estimate   =    -307.01232811 Ry
     estimated scf accuracy    <      26.07794197 Ry

     iteration # 57     ecut=    30.00 Ry     beta=0.70
     Davidson diagonalization with overlap
     ethr =  1.00E-02,  avg # of iterations =  9.0

     negative rho (up, down):  2.239E-02 0.000E+00

     total cpu time spent up to now is        5.6 secs

     total energy              =       3.18893113 Ry
     Harris-Foulkes estimate   =     -40.18363791 Ry
     estimated scf accuracy    <      10.55082182 Ry

     iteration # 58     ecut=    30.00 Ry     beta=0.70
     Davidson diagonalization with overlap
     ethr =  1.00E-02,  avg # of iterations =  4.0

     negative rho (up, down):  1.157E-01 0.000E+00

     total cpu time spent up to now is        5.7 secs

     total energy              =     -29.78955195 Ry
     Harris-Foulkes estimate   =     -23.83226106 Ry
     estimated scf accuracy    <       8.50656000 Ry

     iteration # 59     ecut=    30.00 Ry     beta=0.70
     Davidson diagonalization with overlap
     ethr =  1.00E-02,  avg # of iterations =  4.0

     negative rho (up, down):  1.254E-01 0.000E+00

     total cpu time spent up to now is        5.7 secs

     total energy              =      69.82781460 Ry
     Harris-Foulkes estimate   =     -69.54897510 Ry
     estimated scf accuracy    <      12.60166119 Ry

     iteration # 60     ecut=    30.00 Ry     beta=0.70
     Davidson diagonalization with overlap
     ethr =  1.00E-02,  avg # of iterations =  5.0

     negative rho (up, down):  9.442E-02 0.000E+00

     total cpu time spent up to now is        5.8 secs

     total energy              =    -162.00008312 Ry
     Harris-Foulkes estimate   =    -106.55337840 Ry
     estimated scf accuracy    <      11.99275844 Ry

     iteration # 61     ecut=    30.00 Ry     beta=0.70
     Davidson diagonalization with overlap
     ethr =  1.00E-02,  avg # of iterations =  5.0

     negative rho (up, down):  1.027E-02 0.000E+00

     total cpu time spent up to now is        5.8 secs

     total energy              =     114.89781677 Ry
     Harris-Foulkes estimate   =    -639.34142011 Ry
     estimated scf accuracy    <      34.19427736 Ry

     iteration # 62     ecut=    30.00 Ry     beta=0.70
     Davidson diagonalization with overlap
     ethr =  1.00E-02,  avg # of iterations =  9.0

     negative rho (up, down):  3.321E-02 0.000E+00

     total cpu time spent up to now is        5.9 secs

     total energy              =      -3.24826238 Ry
     Harris-Foulkes estimate   =     -35.17442684 Ry
     estimated scf accuracy    <       7.88348101 Ry

     iteration # 63     ecut=    30.00 Ry     beta=0.70
     Davidson diagonalization with overlap
     ethr =  1.00E-02,  avg # of iterations =  3.0

     negative rho (up, down):  1.000E-01 0.000E+00

     total cpu time spent up to now is        5.9 secs

     total energy              =      20.72686746 Ry
     Harris-Foulkes estimate   =    -229.23664553 Ry
     estimated scf accuracy    <      10.61013581 Ry

     iteration # 64     ecut=    30.00 Ry     beta=0.70
     Davidson diagonalization with overlap
     ethr =  1.00E-02,  avg # of iterations =  6.0

     negative rho (up, down):  1.301E-01 0.000E+00

     total cpu time spent up to now is        6.0 secs

     total energy              =      43.73392390 Ry
     Harris-Foulkes estimate   =   -1326.21653697 Ry
     estimated scf accuracy    <      35.63888912 Ry

     iteration # 65     ecut=    30.00 Ry     beta=0.70
     Davidson diagonalization with overlap
     ethr =  1.00E-02,  avg # of iterations =  4.0

     negative rho (up, down):  1.905E-01 0.000E+00

     total cpu time spent up to now is        6.0 secs

     total energy              =     -14.55192352 Ry
     Harris-Foulkes estimate   =    -132.79899594 Ry
     estimated scf accuracy    <       6.91858004 Ry

     iteration # 66     ecut=    30.00 Ry     beta=0.70
     Davidson diagonalization with overlap
     ethr =  1.00E-02,  avg # of iterations =  7.0

     negative rho (up, down):  1.869E-01 0.000E+00

     total cpu time spent up to now is        6.0 secs

     total energy              =    -949.62352307 Ry
     Harris-Foulkes estimate   =   -6890.04648488 Ry
     estimated scf accuracy    <      39.10066389 Ry

     iteration # 67     ecut=    30.00 Ry     beta=0.70
     Davidson diagonalization with overlap
     ethr =  1.00E-02,  avg # of iterations = 10.0

     negative rho (up, down):  4.054E-01 0.000E+00

     total cpu time spent up to now is        6.1 secs

     total energy              =     -32.63003937 Ry
     Harris-Foulkes estimate   =   -1640.13093566 Ry
     estimated scf accuracy    <       9.13520429 Ry

     iteration # 68     ecut=    30.00 Ry     beta=0.70
     Davidson diagonalization with overlap
     ethr =  1.00E-02,  avg # of iterations =  8.0

     negative rho (up, down):  5.066E-01 0.000E+00

     total cpu time spent up to now is        6.2 secs

     total energy              =      80.81767073 Ry
     Harris-Foulkes estimate   =  -24828.92445651 Ry
     estimated scf accuracy    <      32.12851642 Ry

     iteration # 69     ecut=    30.00 Ry     beta=0.70
     Davidson diagonalization with overlap
     ethr =  1.00E-02,  avg # of iterations =  8.0

     negative rho (up, down):  2.828E-01 0.000E+00

     total cpu time spent up to now is        6.2 secs

     total energy              =     -27.27740993 Ry
     Harris-Foulkes estimate   =    -192.10221683 Ry
     estimated scf accuracy    <      34.78823968 Ry

     iteration # 70     ecut=    30.00 Ry     beta=0.70
     Davidson diagonalization with overlap
     ethr =  1.00E-02,  avg # of iterations =  7.0

     negative rho (up, down):  3.663E-01 0.000E+00

     total cpu time spent up to now is        6.3 secs

     total energy              =      17.01103518 Ry
     Harris-Foulkes estimate   =    -258.62624444 Ry
     estimated scf accuracy    <      37.10674235 Ry

     iteration # 71     ecut=    30.00 Ry     beta=0.70
     Davidson diagonalization with overlap
     ethr =  1.00E-02,  avg # of iterations =  6.0

     negative rho (up, down):  4.291E-01 0.000E+00

     total cpu time spent up to now is        6.3 secs

     total energy              =     -78.85132001 Ry
     Harris-Foulkes estimate   =    -516.66474036 Ry
     estimated scf accuracy    <      41.74942174 Ry

     iteration # 72     ecut=    30.00 Ry     beta=0.70
     Davidson diagonalization with overlap
     ethr =  1.00E-02,  avg # of iterations =  5.0

     negative rho (up, down):  4.159E-01 0.000E+00

     total cpu time spent up to now is        6.4 secs

     total energy              =      48.59123034 Ry
     Harris-Foulkes estimate   =    -809.59209480 Ry
     estimated scf accuracy    <      47.35751993 Ry

     iteration # 73     ecut=    30.00 Ry     beta=0.70
     Davidson diagonalization with overlap
     ethr =  1.00E-02,  avg # of iterations =  8.0

     negative rho (up, down):  6.324E-01 0.000E+00

     total cpu time spent up to now is        6.5 secs

     total energy              =    -118.60822745 Ry
     Harris-Foulkes estimate   =   -3781.49701992 Ry
     estimated scf accuracy    <      30.29784300 Ry

     iteration # 74     ecut=    30.00 Ry     beta=0.70
     Davidson diagonalization with overlap
     ethr =  1.00E-02,  avg # of iterations =  4.0

     negative rho (up, down):  1.135E+00 0.000E+00

     total cpu time spent up to now is        6.5 secs

     total energy              =     112.16679857 Ry
     Harris-Foulkes estimate   =   -2718.35496350 Ry
     estimated scf accuracy    <      34.56042107 Ry

     iteration # 75     ecut=    30.00 Ry     beta=0.70
     Davidson diagonalization with overlap
     ethr =  1.00E-02,  avg # of iterations =  9.0

     negative rho (up, down):  3.658E-01 0.000E+00

     total cpu time spent up to now is        6.6 secs

     total energy              =     286.09272299 Ry
     Harris-Foulkes estimate   =    -499.74563929 Ry
     estimated scf accuracy    <      28.15823147 Ry

     iteration # 76     ecut=    30.00 Ry     beta=0.70
     Davidson diagonalization with overlap
     ethr =  1.00E-02,  avg # of iterations =  7.0

     negative rho (up, down):  5.414E-01 0.000E+00

     total cpu time spent up to now is        6.6 secs

     total energy              =      70.60096006 Ry
     Harris-Foulkes estimate   =    -396.40443893 Ry
     estimated scf accuracy    <      31.41112093 Ry

     iteration # 77     ecut=    30.00 Ry     beta=0.70
     Davidson diagonalization with overlap
     ethr =  1.00E-02,  avg # of iterations =  6.0

     negative rho (up, down):  6.354E-01 0.000E+00

     total cpu time spent up to now is        6.7 secs

     total energy              =     113.39595159 Ry
     Harris-Foulkes estimate   =    -839.60587759 Ry
     estimated scf accuracy    <      25.59910876 Ry

     iteration # 78     ecut=    30.00 Ry     beta=0.70
     Davidson diagonalization with overlap
     ethr =  1.00E-02,  avg # of iterations =  9.0

     negative rho (up, down):  9.234E-01 0.000E+00

     total cpu time spent up to now is        6.8 secs

     total energy              =     -65.85193435 Ry
     Harris-Foulkes estimate   =    -372.94905064 Ry
     estimated scf accuracy    <      34.99558565 Ry

     iteration # 79     ecut=    30.00 Ry     beta=0.70
     Davidson diagonalization with overlap
     ethr =  1.00E-02,  avg # of iterations =  5.0

     negative rho (up, down):  8.790E-01 0.000E+00

     total cpu time spent up to now is        6.8 secs

     total energy              =    -131.09813657 Ry
     Harris-Foulkes estimate   =   -5173.47975551 Ry
     estimated scf accuracy    <      34.58343947 Ry

     iteration # 80     ecut=    30.00 Ry     beta=0.70
     Davidson diagonalization with overlap
     ethr =  1.00E-02,  avg # of iterations = 12.0

     negative rho (up, down):  9.840E-01 0.000E+00

     total cpu time spent up to now is        6.9 secs

     total energy              =     -26.45542746 Ry
     Harris-Foulkes estimate   =   -1047.07879895 Ry
     estimated scf accuracy    <      28.31198680 Ry

     iteration # 81     ecut=    30.00 Ry     beta=0.70
     Davidson diagonalization with overlap
     ethr =  1.00E-02,  avg # of iterations =  5.0

     negative rho (up, down):  5.235E-01 0.000E+00

     total cpu time spent up to now is        6.9 secs

     total energy              =     -27.05502058 Ry
     Harris-Foulkes estimate   =   -8418.91766470 Ry
     estimated scf accuracy    <      24.41642993 Ry

     iteration # 82     ecut=    30.00 Ry     beta=0.70
     Davidson diagonalization with overlap
     ethr =  1.00E-02,  avg # of iterations =  4.0

     negative rho (up, down):  3.558E-01 0.000E+00

     total cpu time spent up to now is        7.0 secs

     total energy              =     130.04642694 Ry
     Harris-Foulkes estimate   =  -10202.97934132 Ry
     estimated scf accuracy    <      24.59811435 Ry

     iteration # 83     ecut=    30.00 Ry     beta=0.70
     Davidson diagonalization with overlap
     ethr =  1.00E-02,  avg # of iterations =  9.0

     negative rho (up, down):  5.102E-02 0.000E+00

     total cpu time spent up to now is        7.0 secs

     total energy              =     131.41191144 Ry
     Harris-Foulkes estimate   =   -1748.66137338 Ry
     estimated scf accuracy    <      24.22066853 Ry

     iteration # 84     ecut=    30.00 Ry     beta=0.70
     Davidson diagonalization with overlap
     ethr =  1.00E-02,  avg # of iterations =  7.0

     negative rho (up, down):  1.807E-01 0.000E+00

     total cpu time spent up to now is        7.1 secs

     total energy              =      49.80065186 Ry
     Harris-Foulkes estimate   =    -129.65603576 Ry
     estimated scf accuracy    <      33.31796858 Ry

     iteration # 85     ecut=    30.00 Ry     beta=0.70
     Davidson diagonalization with overlap
     ethr =  1.00E-02,  avg # of iterations =  5.0

     negative rho (up, down):  2.163E-01 0.000E+00

     total cpu time spent up to now is        7.1 secs

     total energy              =      34.05570899 Ry
     Harris-Foulkes estimate   =    -291.61740679 Ry
     estimated scf accuracy    <      14.08773908 Ry

     iteration # 86     ecut=    30.00 Ry     beta=0.70
     Davidson diagonalization with overlap
     ethr =  1.00E-02,  avg # of iterations =  5.0

     negative rho (up, down):  2.375E-01 0.000E+00

     total cpu time spent up to now is        7.2 secs

     total energy              =     103.30788144 Ry
     Harris-Foulkes estimate   =    -467.39278053 Ry
     estimated scf accuracy    <      43.83279286 Ry

     iteration # 87     ecut=    30.00 Ry     beta=0.70
     Davidson diagonalization with overlap
     ethr =  1.00E-02,  avg # of iterations =  8.0

     negative rho (up, down):  1.089E-01 0.000E+00

     total cpu time spent up to now is        7.2 secs

     total energy              =   -3560.63345838 Ry
     Harris-Foulkes estimate   =   -4073.85007943 Ry
     estimated scf accuracy    <      20.53931811 Ry

     iteration # 88     ecut=    30.00 Ry     beta=0.70
     Davidson diagonalization with overlap
     ethr =  1.00E-02,  avg # of iterations =  5.0

     negative rho (up, down):  3.209E-02 0.000E+00

     total cpu time spent up to now is        7.3 secs

     total energy              =    -863.14196484 Ry
     Harris-Foulkes estimate   =   -5790.92167281 Ry
     estimated scf accuracy    <      17.42732029 Ry

     iteration # 89     ecut=    30.00 Ry     beta=0.70
     Davidson diagonalization with overlap
     ethr =  1.00E-02,  avg # of iterations =  5.0

     negative rho (up, down):  1.090E-02 0.000E+00

     total cpu time spent up to now is        7.3 secs

     total energy              =      43.70612506 Ry
     Harris-Foulkes estimate   =   -3190.42085795 Ry
     estimated scf accuracy    <      14.72325443 Ry

     iteration # 90     ecut=    30.00 Ry     beta=0.70
     Davidson diagonalization with overlap
     ethr =  1.00E-02,  avg # of iterations =  5.0

     negative rho (up, down):  3.316E-07 0.000E+00

     total cpu time spent up to now is        7.4 secs

     total energy              =      -0.64947909 Ry
     Harris-Foulkes estimate   =    -128.09815880 Ry
     estimated scf accuracy    <      27.06504386 Ry

     iteration # 91     ecut=    30.00 Ry     beta=0.70
     Davidson diagonalization with overlap
     ethr =  1.00E-02,  avg # of iterations =  5.0

     negative rho (up, down):  1.527E-02 0.000E+00

     total cpu time spent up to now is        7.4 secs

     total energy              =     -40.38902461 Ry
     Harris-Foulkes estimate   =     -41.91902211 Ry
     estimated scf accuracy    <      32.67754955 Ry

     iteration # 92     ecut=    30.00 Ry     beta=0.70
     Davidson diagonalization with overlap
     ethr =  1.00E-02,  avg # of iterations =  6.0

     negative rho (up, down):  2.590E-01 0.000E+00

     total cpu time spent up to now is        7.4 secs

     total energy              =      86.24351903 Ry
     Harris-Foulkes estimate   =    -478.41125136 Ry
     estimated scf accuracy    <      17.16334675 Ry

     iteration # 93     ecut=    30.00 Ry     beta=0.70
     Davidson diagonalization with overlap
     ethr =  1.00E-02,  avg # of iterations =  8.0

     negative rho (up, down):  1.999E-01 0.000E+00

     total cpu time spent up to now is        7.5 secs

     total energy              =   -1086.78993006 Ry
     Harris-Foulkes estimate   =    -565.41715921 Ry
     estimated scf accuracy    <      22.57208987 Ry

     iteration # 94     ecut=    30.00 Ry     beta=0.70
     Davidson diagonalization with overlap
     ethr =  1.00E-02,  avg # of iterations = 12.0

     negative rho (up, down):  2.329E-01 0.000E+00

     total cpu time spent up to now is        7.6 secs

     total energy              =      45.39599727 Ry
     Harris-Foulkes estimate   =   -2235.66443973 Ry
     estimated scf accuracy    <      18.23476934 Ry

     iteration # 95     ecut=    30.00 Ry     beta=0.70
     Davidson diagonalization with overlap
     ethr =  1.00E-02,  avg # of iterations =  6.0

     negative rho (up, down):  1.700E-01 0.000E+00

     total cpu time spent up to now is        7.6 secs

     total energy              =   -4425.84941884 Ry
     Harris-Foulkes estimate   =     -99.90909752 Ry
     estimated scf accuracy    <      18.42761353 Ry

     iteration # 96     ecut=    30.00 Ry     beta=0.70
     Davidson diagonalization with overlap
     ethr =  1.00E-02,  avg # of iterations =  9.0

     negative rho (up, down):  1.350E-01 0.000E+00

     total cpu time spent up to now is        7.7 secs

     total energy              =      51.92909051 Ry
     Harris-Foulkes estimate   =  -17527.40246764 Ry
     estimated scf accuracy    <       9.49934616 Ry

     iteration # 97     ecut=    30.00 Ry     beta=0.70
     Davidson diagonalization with overlap
     ethr =  1.00E-02,  avg # of iterations =  6.0

     negative rho (up, down):  1.730E-02 0.000E+00

     total cpu time spent up to now is        7.7 secs

     total energy              =      -4.25236105 Ry
     Harris-Foulkes estimate   =     -46.48519379 Ry
     estimated scf accuracy    <      22.20147981 Ry

     iteration # 98     ecut=    30.00 Ry     beta=0.70
     Davidson diagonalization with overlap
     ethr =  1.00E-02,  avg # of iterations =  4.0

     negative rho (up, down):  8.396E-03 0.000E+00

     total cpu time spent up to now is        7.8 secs

     total energy              =      24.57102246 Ry
     Harris-Foulkes estimate   =    -328.54032242 Ry
     estimated scf accuracy    <      17.33874645 Ry

     iteration # 99     ecut=    30.00 Ry     beta=0.70
     Davidson diagonalization with overlap
     ethr =  1.00E-02,  avg # of iterations =  6.0

     negative rho (up, down):  3.359E-02 0.000E+00

     total cpu time spent up to now is        7.8 secs

     total energy              =     -38.46124334 Ry
     Harris-Foulkes estimate   =     -38.35214039 Ry
     estimated scf accuracy    <      27.04240314 Ry

     iteration #100     ecut=    30.00 Ry     beta=0.70
     Davidson diagonalization with overlap
     ethr =  1.00E-02,  avg # of iterations =  4.0

     negative rho (up, down):  4.505E-04 0.000E+00

     total cpu time spent up to now is        7.9 secs

     total energy              =      11.21904989 Ry
     Harris-Foulkes estimate   =    -272.96960309 Ry
     estimated scf accuracy    <      18.83430304 Ry

     End of self-consistent calculation

     convergence NOT achieved after 100 iterations: stopping

     Writing output data file pwscf.save
 
     init_run     :      0.09s CPU      0.10s WALL (       1 calls)
     electrons    :      6.02s CPU      7.24s WALL (       3 calls)
     update_pot   :      0.20s CPU      0.28s WALL (       2 calls)
     forces       :      0.05s CPU      0.05s WALL (       2 calls)

     Called by init_run:
     wfcinit      :      0.01s CPU      0.02s WALL (       1 calls)
     potinit      :      0.02s CPU      0.03s WALL (       1 calls)

     Called by electrons:
     c_bands      :      3.15s CPU      3.30s WALL (     146 calls)
     sum_band     :      0.42s CPU      0.47s WALL (     146 calls)
     v_of_rho     :      1.12s CPU      1.19s WALL (     149 calls)
     mix_rho      :      1.19s CPU      1.90s WALL (     146 calls)

     Called by c_bands:
     init_us_2    :      0.01s CPU      0.02s WALL (     293 calls)
     cegterg      :      3.12s CPU      3.23s WALL (     146 calls)

     Called by sum_band:

     Called by *egterg:
     h_psi        :      2.56s CPU      2.64s WALL (     922 calls)
     g_psi        :      0.03s CPU      0.03s WALL (     775 calls)
     cdiaghg      :      0.20s CPU      0.20s WALL (     919 calls)

     Called by h_psi:
     h_psi:pot    :      2.54s CPU      2.62s WALL (     922 calls)
     h_psi:calbec :      0.05s CPU      0.05s WALL (     922 calls)
     vloc_psi     :      2.49s CPU      2.56s WALL (     922 calls)
     add_vuspsi   :      0.01s CPU      0.01s WALL (     922 calls)

     General routines
     calbec       :      0.05s CPU      0.06s WALL (     931 calls)
     fft          :      0.67s CPU      0.72s WALL (    1643 calls)
     fftw         :      2.52s CPU      2.62s WALL (   11340 calls)
     davcio       :      0.16s CPU      0.61s WALL (    2666 calls)
 
     Parallel routines
     fft_scatter  :      1.20s CPU      1.30s WALL (   12983 calls)
 
     PWSCF        :     6.50s CPU         7.95s WALL

 
   This run was terminated on:   8:52:54  14Feb2018            

=------------------------------------------------------------------------------=
   JOB DONE.
=------------------------------------------------------------------------------=
