
     Program PWSCF v.6.0 (svn rev. 13079) starts on 14Feb2018 at  8:53:26 

     This program is part of the open-source Quantum ESPRESSO suite
     for quantum simulation of materials; please cite
         "P. Giannozzi et al., J. Phys.:Condens. Matter 21 395502 (2009);
          URL http://www.quantum-espresso.org", 
     in publications or presentations arising from this work. More details at
     http://www.quantum-espresso.org/quote

     Parallel version (MPI), running on    28 processors
     R & G space division:  proc/nbgrp/npool/nimage =      28
     Reading input from inputs/MD-H2O-2/482.in

     Current dimensions of program PWSCF are:
     Max number of different atomic species (ntypx) = 10
     Max number of k-points (npk) =  40000
     Max angular momentum in pseudopotentials (lmaxx) =  3

     Subspace diagonalization in iterative solution of the eigenvalue problem:
     a serial algorithm will be used

 
     Parallelization info
     --------------------
     sticks:   dense  smooth     PW     G-vecs:    dense   smooth      PW
     Min         136     136     33                 6338     6338     787
     Max         137     137     34                 6341     6341     792
     Sum        3809    3809    949               177509   177509   22119
 


     bravais-lattice index     =            1
     lattice parameter (alat)  =      20.0000  a.u.
     unit-cell volume          =    8000.0000 (a.u.)^3
     number of atoms/cell      =            3
     number of atomic types    =            2
     number of electrons       =         8.00
     number of Kohn-Sham states=            8
     kinetic-energy cutoff     =      30.0000  Ry
     charge density cutoff     =     120.0000  Ry
     convergence threshold     =      1.0E-08
     mixing beta               =       0.7000
     number of iterations used =            8  plain     mixing
     Exchange-correlation      = BLYP ( 1  3  1  3 0 0)
     nstep                     =         5000


     celldm(1)=  20.000000  celldm(2)=   0.000000  celldm(3)=   0.000000
     celldm(4)=   0.000000  celldm(5)=   0.000000  celldm(6)=   0.000000

     crystal axes: (cart. coord. in units of alat)
               a(1) = (   1.000000   0.000000   0.000000 )  
               a(2) = (   0.000000   1.000000   0.000000 )  
               a(3) = (   0.000000   0.000000   1.000000 )  

     reciprocal axes: (cart. coord. in units 2 pi/alat)
               b(1) = (  1.000000  0.000000  0.000000 )  
               b(2) = (  0.000000  1.000000  0.000000 )  
               b(3) = (  0.000000  0.000000  1.000000 )  


     PseudoPot. # 1 for  H read from file:
     ./H.blyp-hgh.UPF
     MD5 check sum: c576e69559cde411e611be972c763230
     Pseudo is Norm-conserving, Zval =  1.0
     Generated in analytical, separable form
     Using radial grid of  929 points,  0 beta functions with: 

     PseudoPot. # 2 for  O read from file:
     ./O.blyp-hgh.UPF
     MD5 check sum: d0b7156309aa9befef28faac7bc56342
     Pseudo is Norm-conserving, Zval =  6.0
     Generated in analytical, separable form
     Using radial grid of 1095 points,  1 beta functions with: 
                l(1) =   0

     atomic species   valence    mass     pseudopotential
        H              1.00     1.01000      H( 1.00)
        O              6.00    16.00000      O( 1.00)

     No symmetry found



   Cartesian axes

     site n.     atom                  positions (alat units)
         1           H   tau(   1) = (   0.3125728   0.8449009   0.3654342  )
         2           H   tau(   2) = (   0.0286535   0.2394477   0.1573934  )
         3           O   tau(   3) = (   0.9764637   0.3109700   0.1118714  )

     number of k points=     1  Marzari-Vanderbilt smearing, width (Ry)=  0.0250
                       cart. coord. in units 2pi/alat
        k(    1) = (   0.0000000   0.0000000   0.0000000), wk =   2.0000000

     Dense  grid:   177509 G-vectors     FFT dimensions: (  72,  72,  72)

     Estimated max dynamical RAM per process >       6.09Mb

     Estimated total allocated dynamical RAM >     170.64Mb

     Initial potential from superposition of free atoms
     Check: negative starting charge=   -0.349994

     starting charge    7.99998, renormalised to    8.00000

     negative rho (up, down):  3.500E-01 0.000E+00
     Starting wfc are    6 randomized atomic wfcs +    2 random wfc

     total cpu time spent up to now is        0.2 secs

     per-process dynamical memory:    18.8 Mb

     Self-consistent Calculation

     iteration #  1     ecut=    30.00 Ry     beta=0.70
     Davidson diagonalization with overlap
     ethr =  1.00E-02,  avg # of iterations =  9.0

     negative rho (up, down):  9.173E-02 0.000E+00

     total cpu time spent up to now is        0.3 secs

     total energy              =     -30.31772339 Ry
     Harris-Foulkes estimate   =     -32.23529705 Ry
     estimated scf accuracy    <       2.20799462 Ry

     iteration #  2     ecut=    30.00 Ry     beta=0.70
     Davidson diagonalization with overlap
     ethr =  1.00E-02,  avg # of iterations =  3.0

     negative rho (up, down):  6.671E-02 0.000E+00

     total cpu time spent up to now is        0.3 secs

     total energy              =     -32.30846868 Ry
     Harris-Foulkes estimate   =     -34.64022532 Ry
     estimated scf accuracy    <       5.66717898 Ry

     iteration #  3     ecut=    30.00 Ry     beta=0.70
     Davidson diagonalization with overlap
     ethr =  1.00E-02,  avg # of iterations =  2.0

     negative rho (up, down):  6.404E-02 0.000E+00

     total cpu time spent up to now is        0.4 secs

     total energy              =     -32.45323724 Ry
     Harris-Foulkes estimate   =     -32.54520445 Ry
     estimated scf accuracy    <       1.84956481 Ry

     iteration #  4     ecut=    30.00 Ry     beta=0.70
     Davidson diagonalization with overlap
     ethr =  1.00E-02,  avg # of iterations =  1.0

     negative rho (up, down):  1.187E-02 0.000E+00

     total cpu time spent up to now is        0.4 secs

     total energy              =     -31.28489193 Ry
     Harris-Foulkes estimate   =     -32.45357175 Ry
     estimated scf accuracy    <       1.72290133 Ry

     iteration #  5     ecut=    30.00 Ry     beta=0.70
     Davidson diagonalization with overlap
     ethr =  1.00E-02,  avg # of iterations =  4.0

     negative rho (up, down):  2.541E-02 0.000E+00

     total cpu time spent up to now is        0.4 secs

     total energy              =     -33.44348256 Ry
     Harris-Foulkes estimate   =     -33.25948643 Ry
     estimated scf accuracy    <       8.73860386 Ry

     iteration #  6     ecut=    30.00 Ry     beta=0.70
     Davidson diagonalization with overlap
     ethr =  1.00E-02,  avg # of iterations =  3.0

     negative rho (up, down):  2.395E-02 0.000E+00

     total cpu time spent up to now is        0.5 secs

     total energy              =     -33.43793729 Ry
     Harris-Foulkes estimate   =     -33.45100629 Ry
     estimated scf accuracy    <       9.58312367 Ry

     iteration #  7     ecut=    30.00 Ry     beta=0.70
     Davidson diagonalization with overlap
     ethr =  1.00E-02,  avg # of iterations =  1.0

     negative rho (up, down):  2.557E-02 0.000E+00

     total cpu time spent up to now is        0.5 secs

     total energy              =     -33.41913777 Ry
     Harris-Foulkes estimate   =     -33.43909973 Ry
     estimated scf accuracy    <       9.57024945 Ry

     iteration #  8     ecut=    30.00 Ry     beta=0.70
     Davidson diagonalization with overlap
     ethr =  1.00E-02,  avg # of iterations =  1.0

     negative rho (up, down):  3.302E-02 0.000E+00

     total cpu time spent up to now is        0.5 secs

     total energy              =     -33.39658068 Ry
     Harris-Foulkes estimate   =     -33.42025156 Ry
     estimated scf accuracy    <       9.55571613 Ry

     iteration #  9     ecut=    30.00 Ry     beta=0.70
     Davidson diagonalization with overlap
     ethr =  1.00E-02,  avg # of iterations =  1.0

     negative rho (up, down):  2.812E-02 0.000E+00

     total cpu time spent up to now is        0.6 secs

     total energy              =     -33.41531421 Ry
     Harris-Foulkes estimate   =     -33.39800984 Ry
     estimated scf accuracy    <       9.53669595 Ry

     iteration # 10     ecut=    30.00 Ry     beta=0.70
     Davidson diagonalization with overlap
     ethr =  1.00E-02,  avg # of iterations =  1.0

     negative rho (up, down):  1.075E-01 0.000E+00

     total cpu time spent up to now is        0.6 secs

     total energy              =     -33.16273850 Ry
     Harris-Foulkes estimate   =     -33.41644699 Ry
     estimated scf accuracy    <       9.57716947 Ry

     iteration # 11     ecut=    30.00 Ry     beta=0.70
     Davidson diagonalization with overlap
     ethr =  1.00E-02,  avg # of iterations =  1.0

     negative rho (up, down):  8.747E-02 0.000E+00

     total cpu time spent up to now is        0.6 secs

     total energy              =     -31.76148628 Ry
     Harris-Foulkes estimate   =     -33.18002731 Ry
     estimated scf accuracy    <       6.77032854 Ry

     iteration # 12     ecut=    30.00 Ry     beta=0.70
     Davidson diagonalization with overlap
     ethr =  1.00E-02,  avg # of iterations =  2.0

     negative rho (up, down):  4.987E-02 0.000E+00

     total cpu time spent up to now is        0.6 secs

     total energy              =     -31.86432189 Ry
     Harris-Foulkes estimate   =     -32.21769771 Ry
     estimated scf accuracy    <       1.70068248 Ry

     iteration # 13     ecut=    30.00 Ry     beta=0.70
     Davidson diagonalization with overlap
     ethr =  1.00E-02,  avg # of iterations =  1.0

     negative rho (up, down):  1.027E-01 0.000E+00

     total cpu time spent up to now is        0.7 secs

     total energy              =     -31.78083439 Ry
     Harris-Foulkes estimate   =     -31.95712654 Ry
     estimated scf accuracy    <       0.87006400 Ry

     iteration # 14     ecut=    30.00 Ry     beta=0.70
     Davidson diagonalization with overlap
     ethr =  1.00E-02,  avg # of iterations =  1.0

     negative rho (up, down):  1.134E-01 0.000E+00

     total cpu time spent up to now is        0.7 secs

     total energy              =     -32.06401843 Ry
     Harris-Foulkes estimate   =     -32.10956935 Ry
     estimated scf accuracy    <       1.44511855 Ry

     iteration # 15     ecut=    30.00 Ry     beta=0.70
     Davidson diagonalization with overlap
     ethr =  1.00E-02,  avg # of iterations =  1.0

     negative rho (up, down):  1.326E-01 0.000E+00

     total cpu time spent up to now is        0.7 secs

     total energy              =     -32.01021654 Ry
     Harris-Foulkes estimate   =     -32.06425804 Ry
     estimated scf accuracy    <       1.38676829 Ry

     iteration # 16     ecut=    30.00 Ry     beta=0.70
     Davidson diagonalization with overlap
     ethr =  1.00E-02,  avg # of iterations =  1.0

     negative rho (up, down):  3.643E-02 0.000E+00

     total cpu time spent up to now is        0.8 secs

     total energy              =     -32.01355529 Ry
     Harris-Foulkes estimate   =     -32.01048792 Ry
     estimated scf accuracy    <       1.30855115 Ry

     iteration # 17     ecut=    30.00 Ry     beta=0.70
     Davidson diagonalization with overlap
     ethr =  1.00E-02,  avg # of iterations =  1.0

     negative rho (up, down):  3.002E-03 0.000E+00

     total cpu time spent up to now is        0.8 secs

     total energy              =     -32.02202618 Ry
     Harris-Foulkes estimate   =     -32.01378958 Ry
     estimated scf accuracy    <       1.30614266 Ry

     iteration # 18     ecut=    30.00 Ry     beta=0.70
     Davidson diagonalization with overlap
     ethr =  1.00E-02,  avg # of iterations =  1.0

     negative rho (up, down):  2.275E-03 0.000E+00

     total cpu time spent up to now is        0.8 secs

     total energy              =     -31.95772042 Ry
     Harris-Foulkes estimate   =     -32.02212353 Ry
     estimated scf accuracy    <       1.30394387 Ry

     iteration # 19     ecut=    30.00 Ry     beta=0.70
     Davidson diagonalization with overlap
     ethr =  1.00E-02,  avg # of iterations =  1.0

     negative rho (up, down):  5.416E-06 0.000E+00

     total cpu time spent up to now is        0.9 secs

     total energy              =     -31.93360992 Ry
     Harris-Foulkes estimate   =     -31.95518637 Ry
     estimated scf accuracy    <       0.73566831 Ry

     iteration # 20     ecut=    30.00 Ry     beta=0.70
     Davidson diagonalization with overlap
     ethr =  9.20E-03,  avg # of iterations =  1.0

     negative rho (up, down):  6.279E-04 0.000E+00

     total cpu time spent up to now is        0.9 secs

     total energy              =     -31.96033429 Ry
     Harris-Foulkes estimate   =     -31.94612085 Ry
     estimated scf accuracy    <       0.02159262 Ry

     iteration # 21     ecut=    30.00 Ry     beta=0.70
     Davidson diagonalization with overlap
     ethr =  2.70E-04,  avg # of iterations =  4.0

     negative rho (up, down):  5.280E-04 0.000E+00

     total cpu time spent up to now is        0.9 secs

     total energy              =     -31.98610438 Ry
     Harris-Foulkes estimate   =     -32.01516678 Ry
     estimated scf accuracy    <       1.00381560 Ry

     iteration # 22     ecut=    30.00 Ry     beta=0.70
     Davidson diagonalization with overlap
     ethr =  2.70E-04,  avg # of iterations =  1.0

     negative rho (up, down):  3.315E-03 0.000E+00

     total cpu time spent up to now is        1.0 secs

     total energy              =     -31.95168232 Ry
     Harris-Foulkes estimate   =     -31.98617857 Ry
     estimated scf accuracy    <       0.95962663 Ry

     iteration # 23     ecut=    30.00 Ry     beta=0.70
     Davidson diagonalization with overlap
     ethr =  2.70E-04,  avg # of iterations =  1.0

     negative rho (up, down):  1.975E-03 0.000E+00

     total cpu time spent up to now is        1.0 secs

     total energy              =     -31.92875876 Ry
     Harris-Foulkes estimate   =     -31.95429250 Ry
     estimated scf accuracy    <       0.47785405 Ry

     iteration # 24     ecut=    30.00 Ry     beta=0.70
     Davidson diagonalization with overlap
     ethr =  2.70E-04,  avg # of iterations =  1.0

     negative rho (up, down):  2.182E-04 0.000E+00

     total cpu time spent up to now is        1.0 secs

     total energy              =     -31.93180606 Ry
     Harris-Foulkes estimate   =     -31.95070251 Ry
     estimated scf accuracy    <       0.38720613 Ry

     iteration # 25     ecut=    30.00 Ry     beta=0.70
     Davidson diagonalization with overlap
     ethr =  2.70E-04,  avg # of iterations =  1.0

     negative rho (up, down):  4.441E-06 0.000E+00

     total cpu time spent up to now is        1.1 secs

     total energy              =     -31.93872708 Ry
     Harris-Foulkes estimate   =     -31.95017310 Ry
     estimated scf accuracy    <       0.27511469 Ry

     iteration # 26     ecut=    30.00 Ry     beta=0.70
     Davidson diagonalization with overlap
     ethr =  2.70E-04,  avg # of iterations =  1.0

     negative rho (up, down):  8.726E-05 0.000E+00

     total cpu time spent up to now is        1.1 secs

     total energy              =     -31.94339896 Ry
     Harris-Foulkes estimate   =     -31.94679586 Ry
     estimated scf accuracy    <       0.07203648 Ry

     iteration # 27     ecut=    30.00 Ry     beta=0.70
     Davidson diagonalization with overlap
     ethr =  2.70E-04,  avg # of iterations =  1.0

     negative rho (up, down):  1.213E-05 0.000E+00

     total cpu time spent up to now is        1.1 secs

     total energy              =     -31.94782465 Ry
     Harris-Foulkes estimate   =     -31.94661294 Ry
     estimated scf accuracy    <       0.05248951 Ry

     iteration # 28     ecut=    30.00 Ry     beta=0.70
     Davidson diagonalization with overlap
     ethr =  2.70E-04,  avg # of iterations =  1.0

     negative rho (up, down):  8.085E-06 0.000E+00

     total cpu time spent up to now is        1.2 secs

     total energy              =     -31.94573104 Ry
     Harris-Foulkes estimate   =     -31.94829040 Ry
     estimated scf accuracy    <       0.16458622 Ry

     iteration # 29     ecut=    30.00 Ry     beta=0.70
     Davidson diagonalization with overlap
     ethr =  2.70E-04,  avg # of iterations =  1.0

     negative rho (up, down):  1.084E-08 0.000E+00

     total cpu time spent up to now is        1.2 secs

     total energy              =     -31.94517804 Ry
     Harris-Foulkes estimate   =     -31.94638554 Ry
     estimated scf accuracy    <       0.03618449 Ry

     iteration # 30     ecut=    30.00 Ry     beta=0.70
     Davidson diagonalization with overlap
     ethr =  2.70E-04,  avg # of iterations =  1.0

     total cpu time spent up to now is        1.2 secs

     total energy              =     -31.94585927 Ry
     Harris-Foulkes estimate   =     -31.94594108 Ry
     estimated scf accuracy    <       0.00302201 Ry

     iteration # 31     ecut=    30.00 Ry     beta=0.70
     Davidson diagonalization with overlap
     ethr =  3.78E-05,  avg # of iterations =  1.0

     total cpu time spent up to now is        1.3 secs

     total energy              =     -31.94590258 Ry
     Harris-Foulkes estimate   =     -31.94590331 Ry
     estimated scf accuracy    <       0.00001754 Ry

     iteration # 32     ecut=    30.00 Ry     beta=0.70
     Davidson diagonalization with overlap
     c_bands:  1 eigenvalues not converged
     ethr =  2.19E-07,  avg # of iterations = 20.0

     total cpu time spent up to now is        1.3 secs

     total energy              =     -31.94590366 Ry
     Harris-Foulkes estimate   =     -31.94590362 Ry
     estimated scf accuracy    <       0.00002297 Ry

     iteration # 33     ecut=    30.00 Ry     beta=0.70
     Davidson diagonalization with overlap
     ethr =  2.19E-07,  avg # of iterations = 18.0

     total cpu time spent up to now is        1.4 secs

     total energy              =     -31.94590361 Ry
     Harris-Foulkes estimate   =     -31.94590371 Ry
     estimated scf accuracy    <       0.00001115 Ry

     iteration # 34     ecut=    30.00 Ry     beta=0.70
     Davidson diagonalization with overlap
     ethr =  1.39E-07,  avg # of iterations =  1.0

     total cpu time spent up to now is        1.4 secs

     total energy              =     -31.94590333 Ry
     Harris-Foulkes estimate   =     -31.94590363 Ry
     estimated scf accuracy    <       0.00000492 Ry

     iteration # 35     ecut=    30.00 Ry     beta=0.70
     Davidson diagonalization with overlap
     ethr =  6.15E-08,  avg # of iterations =  1.0

     total cpu time spent up to now is        1.4 secs

     total energy              =     -31.94590341 Ry
     Harris-Foulkes estimate   =     -31.94590336 Ry
     estimated scf accuracy    <       0.00000048 Ry

     iteration # 36     ecut=    30.00 Ry     beta=0.70
     Davidson diagonalization with overlap
     ethr =  5.94E-09,  avg # of iterations =  1.0

     total cpu time spent up to now is        1.5 secs

     total energy              =     -31.94590346 Ry
     Harris-Foulkes estimate   =     -31.94590341 Ry
     estimated scf accuracy    <       0.00000002 Ry

     iteration # 37     ecut=    30.00 Ry     beta=0.70
     Davidson diagonalization with overlap
     ethr =  1.98E-10,  avg # of iterations =  1.0

     total cpu time spent up to now is        1.5 secs

     End of self-consistent calculation

          k = 0.0000 0.0000 0.0000 ( 22119 PWs)   bands (ev):

   -24.8058 -10.6526  -7.0661  -7.0653  -6.9274  -0.7213   0.3149   0.8088

     the Fermi energy is    -6.8957 ev

!    total energy              =     -31.94590346 Ry
     Harris-Foulkes estimate   =     -31.94590346 Ry
     estimated scf accuracy    <          6.6E-11 Ry

     convergence has been achieved in  37 iterations

     Forces acting on atoms (Ry/au):

     atom    1 type  1   force =    -0.00033375   -0.00042501   -0.00017026
     atom    2 type  1   force =     0.00743272   -0.01114194    0.00615889
     atom    3 type  2   force =    -0.00709897    0.01156695   -0.00598863

     Total force =     0.020921     Total SCF correction =     0.000014

     Molecular Dynamics Calculation

     Starting temperature  =  1000.00 K

     temperature is controlled by Andersen thermostat
     Collision frequency = 1.0000/timestep
     mass H                =     1.01
     mass O                =    16.00
     Time step             =   100.00 a.u.,  4.8378 femto-seconds

     Entering Dynamics:    iteration =     1
                           time      =   0.0048 pico-seconds


     Andersen thermostat:    3 collisions

ATOMIC_POSITIONS (bohr)
H        6.481201303  17.172249725   7.109631358
H        0.619973090   4.957450713   2.992423792
O       19.511811633   6.191452767   2.259805614


     kinetic energy (Ekin) =     0.01319564 Ry
     temperature           =   694.47456190 K 
     Ekin + Etot (const)   =   -31.93270782 Ry

     Linear momentum :   -0.0000000000   -0.0000000000   -0.0000000000

     Writing output data file pwscf.save
     Check: negative starting charge=   -0.349994
     NEW-OLD atomic charge density approx. for the potential
     Check: negative starting charge=   -0.349786

     negative rho (up, down):  8.337E-02 0.000E+00

     total cpu time spent up to now is        1.7 secs

     per-process dynamical memory:    20.4 Mb

     Self-consistent Calculation

     iteration #  1     ecut=    30.00 Ry     beta=0.70
     Davidson diagonalization with overlap
     c_bands:  1 eigenvalues not converged
     ethr =  1.00E-06,  avg # of iterations = 20.0

     negative rho (up, down):  2.131E-02 0.000E+00

     total cpu time spent up to now is        1.8 secs

     total energy              =     -31.42187902 Ry
     Harris-Foulkes estimate   =     -31.87371419 Ry
     estimated scf accuracy    <       0.63615900 Ry

     iteration #  2     ecut=    30.00 Ry     beta=0.70
     Davidson diagonalization with overlap
     ethr =  7.95E-03,  avg # of iterations =  3.0

     negative rho (up, down):  1.640E-04 0.000E+00

     total cpu time spent up to now is        1.9 secs

     total energy              =     -31.18709653 Ry
     Harris-Foulkes estimate   =     -33.54605545 Ry
     estimated scf accuracy    <       9.80289195 Ry

     iteration #  3     ecut=    30.00 Ry     beta=0.70
     Davidson diagonalization with overlap
     ethr =  7.95E-03,  avg # of iterations =  2.0

     negative rho (up, down):  1.183E-03 0.000E+00

     total cpu time spent up to now is        1.9 secs

     total energy              =     -32.01518534 Ry
     Harris-Foulkes estimate   =     -32.15576840 Ry
     estimated scf accuracy    <       1.65070100 Ry

     iteration #  4     ecut=    30.00 Ry     beta=0.70
     Davidson diagonalization with overlap
     ethr =  7.95E-03,  avg # of iterations =  1.0

     negative rho (up, down):  2.374E-03 0.000E+00

     total cpu time spent up to now is        1.9 secs

     total energy              =     -31.97895379 Ry
     Harris-Foulkes estimate   =     -32.02300121 Ry
     estimated scf accuracy    <       1.37349416 Ry

     iteration #  5     ecut=    30.00 Ry     beta=0.70
     Davidson diagonalization with overlap
     ethr =  7.95E-03,  avg # of iterations =  1.0

     negative rho (up, down):  7.217E-03 0.000E+00

     total cpu time spent up to now is        2.0 secs

     total energy              =     -31.91270132 Ry
     Harris-Foulkes estimate   =     -31.97970115 Ry
     estimated scf accuracy    <       1.39267652 Ry

     iteration #  6     ecut=    30.00 Ry     beta=0.70
     Davidson diagonalization with overlap
     ethr =  7.95E-03,  avg # of iterations =  1.0

     negative rho (up, down):  7.123E-03 0.000E+00

     total cpu time spent up to now is        2.0 secs

     total energy              =     -31.91425788 Ry
     Harris-Foulkes estimate   =     -31.91914279 Ry
     estimated scf accuracy    <       0.12502523 Ry

     iteration #  7     ecut=    30.00 Ry     beta=0.70
     Davidson diagonalization with overlap
     ethr =  1.56E-03,  avg # of iterations =  1.0

     negative rho (up, down):  1.498E-03 0.000E+00

     total cpu time spent up to now is        2.0 secs

     total energy              =     -31.92278137 Ry
     Harris-Foulkes estimate   =     -31.92779151 Ry
     estimated scf accuracy    <       0.35188235 Ry

     iteration #  8     ecut=    30.00 Ry     beta=0.70
     Davidson diagonalization with overlap
     ethr =  1.56E-03,  avg # of iterations =  1.0

     total cpu time spent up to now is        2.1 secs

     total energy              =     -31.92300562 Ry
     Harris-Foulkes estimate   =     -31.92576985 Ry
     estimated scf accuracy    <       0.02049620 Ry

     iteration #  9     ecut=    30.00 Ry     beta=0.70
     Davidson diagonalization with overlap
     ethr =  2.56E-04,  avg # of iterations =  3.0

     total cpu time spent up to now is        2.1 secs

     total energy              =     -31.92555582 Ry
     Harris-Foulkes estimate   =     -31.93089954 Ry
     estimated scf accuracy    <       0.43550137 Ry

     iteration # 10     ecut=    30.00 Ry     beta=0.70
     Davidson diagonalization with overlap
     ethr =  2.56E-04,  avg # of iterations =  1.0

     negative rho (up, down):  5.722E-05 0.000E+00

     total cpu time spent up to now is        2.1 secs

     total energy              =     -31.92278863 Ry
     Harris-Foulkes estimate   =     -31.92686377 Ry
     estimated scf accuracy    <       0.11013273 Ry

     iteration # 11     ecut=    30.00 Ry     beta=0.70
     Davidson diagonalization with overlap
     ethr =  2.56E-04,  avg # of iterations =  1.0

     negative rho (up, down):  1.089E-06 0.000E+00

     total cpu time spent up to now is        2.2 secs

     total energy              =     -31.92577037 Ry
     Harris-Foulkes estimate   =     -31.92587466 Ry
     estimated scf accuracy    <       0.02621156 Ry

     iteration # 12     ecut=    30.00 Ry     beta=0.70
     Davidson diagonalization with overlap
     ethr =  2.56E-04,  avg # of iterations =  1.0

     negative rho (up, down):  9.357E-08 0.000E+00

     total cpu time spent up to now is        2.2 secs

     total energy              =     -31.92569324 Ry
     Harris-Foulkes estimate   =     -31.92577858 Ry
     estimated scf accuracy    <       0.01905018 Ry

     iteration # 13     ecut=    30.00 Ry     beta=0.70
     Davidson diagonalization with overlap
     ethr =  2.38E-04,  avg # of iterations =  1.0

     total cpu time spent up to now is        2.2 secs

     total energy              =     -31.92544497 Ry
     Harris-Foulkes estimate   =     -31.92570050 Ry
     estimated scf accuracy    <       0.01331705 Ry

     iteration # 14     ecut=    30.00 Ry     beta=0.70
     Davidson diagonalization with overlap
     ethr =  1.66E-04,  avg # of iterations =  1.0

     total cpu time spent up to now is        2.3 secs

     total energy              =     -31.92551700 Ry
     Harris-Foulkes estimate   =     -31.92553737 Ry
     estimated scf accuracy    <       0.00093630 Ry

     iteration # 15     ecut=    30.00 Ry     beta=0.70
     Davidson diagonalization with overlap
     ethr =  1.17E-05,  avg # of iterations =  8.0

     total cpu time spent up to now is        2.3 secs

     total energy              =     -31.92552495 Ry
     Harris-Foulkes estimate   =     -31.92552547 Ry
     estimated scf accuracy    <       0.00002281 Ry

     iteration # 16     ecut=    30.00 Ry     beta=0.70
     Davidson diagonalization with overlap
     ethr =  2.85E-07,  avg # of iterations = 18.0

     total cpu time spent up to now is        2.4 secs

     total energy              =     -31.92552531 Ry
     Harris-Foulkes estimate   =     -31.92552519 Ry
     estimated scf accuracy    <       0.00000025 Ry

     iteration # 17     ecut=    30.00 Ry     beta=0.70
     Davidson diagonalization with overlap
     ethr =  3.10E-09,  avg # of iterations =  1.0

     total cpu time spent up to now is        2.4 secs

     total energy              =     -31.92552535 Ry
     Harris-Foulkes estimate   =     -31.92552532 Ry
     estimated scf accuracy    <       0.00000007 Ry

     iteration # 18     ecut=    30.00 Ry     beta=0.70
     Davidson diagonalization with overlap
     ethr =  8.90E-10,  avg # of iterations =  1.0

     total cpu time spent up to now is        2.4 secs

     End of self-consistent calculation

          k = 0.0000 0.0000 0.0000 ( 22119 PWs)   bands (ev):

   -25.3341 -10.8847  -7.1168  -7.1160  -6.9761  -0.5682   0.3992   0.8096

     the Fermi energy is    -6.9457 ev

!    total energy              =     -31.92552535 Ry
     Harris-Foulkes estimate   =     -31.92552535 Ry
     estimated scf accuracy    <          8.3E-09 Ry

     convergence has been achieved in  18 iterations

     Forces acting on atoms (Ry/au):

     atom    1 type  1   force =    -0.00047108   -0.00050048   -0.00038607
     atom    2 type  1   force =     0.13923257   -0.15612870    0.09098788
     atom    3 type  2   force =    -0.13876149    0.15662918   -0.09060181

     Total force =     0.322548     Total SCF correction =     0.000110

     Entering Dynamics:    iteration =     2
                           time      =   0.0097 pico-seconds


     Andersen thermostat:    3 collisions

ATOMIC_POSITIONS (bohr)
H        6.528497656  17.342962892   7.250568139
H        2.195708548   3.107578911   4.157063493
O       19.409357750   6.297449656   2.177391098


     kinetic energy (Ekin) =     0.10925880 Ry
     temperature           =  5750.19325550 K 
     Ekin + Etot (const)   =   -31.81626655 Ry
     Message from routine dynamics:
     Total linear momentum <> 0

     Linear momentum :   -0.0482643422    0.4839037204    0.0463385468

     Writing output data file pwscf.save

     first order wave-functions extrapolation
     Check: negative starting charge=   -0.349786
     first order charge density extrapolation
     Check: negative starting charge=   -0.344893

     negative rho (up, down):  3.879E-01 0.000E+00

     total cpu time spent up to now is        2.7 secs

     per-process dynamical memory:    20.4 Mb

     Self-consistent Calculation

     iteration #  1     ecut=    30.00 Ry     beta=0.70
     Davidson diagonalization with overlap
     c_bands:  1 eigenvalues not converged
     ethr =  1.00E-06,  avg # of iterations = 20.0

     negative rho (up, down):  1.001E-01 0.000E+00

     total cpu time spent up to now is        2.8 secs

     total energy              =      -8.22127553 Ry
     Harris-Foulkes estimate   =     -38.94549855 Ry
     estimated scf accuracy    <      11.99133310 Ry

     iteration #  2     ecut=    30.00 Ry     beta=0.70
     Davidson diagonalization with overlap
     ethr =  1.00E-02,  avg # of iterations =  4.0

     negative rho (up, down):  6.835E-02 0.000E+00

     total cpu time spent up to now is        2.8 secs

     total energy              =     -32.96473106 Ry
     Harris-Foulkes estimate   =     -41.58689029 Ry
     estimated scf accuracy    <      18.87504183 Ry

     iteration #  3     ecut=    30.00 Ry     beta=0.70
     Davidson diagonalization with overlap
     ethr =  1.00E-02,  avg # of iterations =  3.0

     negative rho (up, down):  4.497E-02 0.000E+00

     total cpu time spent up to now is        2.9 secs

     total energy              =     -31.34121136 Ry
     Harris-Foulkes estimate   =     -33.55955864 Ry
     estimated scf accuracy    <       6.04282145 Ry

     iteration #  4     ecut=    30.00 Ry     beta=0.70
     Davidson diagonalization with overlap
     ethr =  1.00E-02,  avg # of iterations =  3.0

     negative rho (up, down):  4.083E-02 0.000E+00

     total cpu time spent up to now is        2.9 secs

     total energy              =     -31.32625005 Ry
     Harris-Foulkes estimate   =     -32.50451691 Ry
     estimated scf accuracy    <       5.09915946 Ry

     iteration #  5     ecut=    30.00 Ry     beta=0.70
     Davidson diagonalization with overlap
     ethr =  1.00E-02,  avg # of iterations =  2.0

     negative rho (up, down):  1.894E-02 0.000E+00

     total cpu time spent up to now is        2.9 secs

     total energy              =     -31.49973628 Ry
     Harris-Foulkes estimate   =     -32.37892662 Ry
     estimated scf accuracy    <       4.03803603 Ry

     iteration #  6     ecut=    30.00 Ry     beta=0.70
     Davidson diagonalization with overlap
     ethr =  1.00E-02,  avg # of iterations =  1.0

     negative rho (up, down):  1.763E-02 0.000E+00

     total cpu time spent up to now is        3.0 secs

     total energy              =     -31.62129001 Ry
     Harris-Foulkes estimate   =     -31.63800142 Ry
     estimated scf accuracy    <       1.34375298 Ry

     iteration #  7     ecut=    30.00 Ry     beta=0.70
     Davidson diagonalization with overlap
     ethr =  1.00E-02,  avg # of iterations =  1.0

     negative rho (up, down):  1.856E-02 0.000E+00

     total cpu time spent up to now is        3.0 secs

     total energy              =     -31.56548880 Ry
     Harris-Foulkes estimate   =     -31.62806923 Ry
     estimated scf accuracy    <       1.69876029 Ry

     iteration #  8     ecut=    30.00 Ry     beta=0.70
     Davidson diagonalization with overlap
     ethr =  1.00E-02,  avg # of iterations =  1.0

     negative rho (up, down):  1.719E-02 0.000E+00

     total cpu time spent up to now is        3.0 secs

     total energy              =     -31.62836278 Ry
     Harris-Foulkes estimate   =     -31.63489786 Ry
     estimated scf accuracy    <       1.12401570 Ry

     iteration #  9     ecut=    30.00 Ry     beta=0.70
     Davidson diagonalization with overlap
     ethr =  1.00E-02,  avg # of iterations =  1.0

     negative rho (up, down):  7.646E-03 0.000E+00

     total cpu time spent up to now is        3.1 secs

     total energy              =     -31.50431771 Ry
     Harris-Foulkes estimate   =     -31.62882071 Ry
     estimated scf accuracy    <       1.25730151 Ry

     iteration # 10     ecut=    30.00 Ry     beta=0.70
     Davidson diagonalization with overlap
     ethr =  1.00E-02,  avg # of iterations =  1.0

     negative rho (up, down):  1.113E-04 0.000E+00

     total cpu time spent up to now is        3.1 secs

     total energy              =     -31.63939178 Ry
     Harris-Foulkes estimate   =     -31.60654654 Ry
     estimated scf accuracy    <       1.96086007 Ry

     iteration # 11     ecut=    30.00 Ry     beta=0.70
     Davidson diagonalization with overlap
     ethr =  1.00E-02,  avg # of iterations =  1.0

     negative rho (up, down):  3.744E-05 0.000E+00

     total cpu time spent up to now is        3.1 secs

     total energy              =     -31.56597947 Ry
     Harris-Foulkes estimate   =     -31.64161982 Ry
     estimated scf accuracy    <       1.89529492 Ry

     iteration # 12     ecut=    30.00 Ry     beta=0.70
     Davidson diagonalization with overlap
     ethr =  1.00E-02,  avg # of iterations =  1.0

     negative rho (up, down):  6.492E-06 0.000E+00

     total cpu time spent up to now is        3.2 secs

     total energy              =     -31.56316307 Ry
     Harris-Foulkes estimate   =     -31.57752181 Ry
     estimated scf accuracy    <       0.27612112 Ry

     iteration # 13     ecut=    30.00 Ry     beta=0.70
     Davidson diagonalization with overlap
     ethr =  3.45E-03,  avg # of iterations =  1.0

     negative rho (up, down):  3.746E-07 0.000E+00

     total cpu time spent up to now is        3.2 secs

     total energy              =     -31.57444912 Ry
     Harris-Foulkes estimate   =     -31.57886183 Ry
     estimated scf accuracy    <       0.32219558 Ry

     iteration # 14     ecut=    30.00 Ry     beta=0.70
     Davidson diagonalization with overlap
     ethr =  3.45E-03,  avg # of iterations =  1.0

     negative rho (up, down):  3.618E-08 0.000E+00

     total cpu time spent up to now is        3.3 secs

     total energy              =     -31.57095019 Ry
     Harris-Foulkes estimate   =     -31.57544124 Ry
     estimated scf accuracy    <       0.09254866 Ry

     iteration # 15     ecut=    30.00 Ry     beta=0.70
     Davidson diagonalization with overlap
     ethr =  1.16E-03,  avg # of iterations =  1.0

     negative rho (up, down):  5.789E-08 0.000E+00

     total cpu time spent up to now is        3.3 secs

     total energy              =     -31.57426616 Ry
     Harris-Foulkes estimate   =     -31.57529506 Ry
     estimated scf accuracy    <       0.09394026 Ry

     iteration # 16     ecut=    30.00 Ry     beta=0.70
     Davidson diagonalization with overlap
     ethr =  1.16E-03,  avg # of iterations =  1.0

     total cpu time spent up to now is        3.3 secs

     total energy              =     -31.57429320 Ry
     Harris-Foulkes estimate   =     -31.57450260 Ry
     estimated scf accuracy    <       0.02699270 Ry

     iteration # 17     ecut=    30.00 Ry     beta=0.70
     Davidson diagonalization with overlap
     ethr =  3.37E-04,  avg # of iterations =  1.0

     total cpu time spent up to now is        3.4 secs

     total energy              =     -31.57385545 Ry
     Harris-Foulkes estimate   =     -31.57432615 Ry
     estimated scf accuracy    <       0.01288808 Ry

     iteration # 18     ecut=    30.00 Ry     beta=0.70
     Davidson diagonalization with overlap
     ethr =  1.61E-04,  avg # of iterations =  3.0

     total cpu time spent up to now is        3.4 secs

     total energy              =     -31.57402586 Ry
     Harris-Foulkes estimate   =     -31.57420378 Ry
     estimated scf accuracy    <       0.00324303 Ry

     iteration # 19     ecut=    30.00 Ry     beta=0.70
     Davidson diagonalization with overlap
     ethr =  4.05E-05,  avg # of iterations =  8.0

     total cpu time spent up to now is        3.4 secs

     total energy              =     -31.57413857 Ry
     Harris-Foulkes estimate   =     -31.57422274 Ry
     estimated scf accuracy    <       0.00515354 Ry

     iteration # 20     ecut=    30.00 Ry     beta=0.70
     Davidson diagonalization with overlap
     ethr =  4.05E-05,  avg # of iterations =  1.0

     total cpu time spent up to now is        3.5 secs

     total energy              =     -31.57415285 Ry
     Harris-Foulkes estimate   =     -31.57416661 Ry
     estimated scf accuracy    <       0.00055035 Ry

     iteration # 21     ecut=    30.00 Ry     beta=0.70
     Davidson diagonalization with overlap
     ethr =  6.88E-06,  avg # of iterations =  1.0

     total cpu time spent up to now is        3.5 secs

     total energy              =     -31.57415955 Ry
     Harris-Foulkes estimate   =     -31.57415957 Ry
     estimated scf accuracy    <       0.00000008 Ry

     iteration # 22     ecut=    30.00 Ry     beta=0.70
     Davidson diagonalization with overlap
     c_bands:  1 eigenvalues not converged
     ethr =  1.04E-09,  avg # of iterations = 20.0

     total cpu time spent up to now is        3.5 secs

     total energy              =     -31.57415950 Ry
     Harris-Foulkes estimate   =     -31.57415956 Ry
     estimated scf accuracy    <       0.00000002 Ry

     iteration # 23     ecut=    30.00 Ry     beta=0.70
     Davidson diagonalization with overlap
     ethr =  2.23E-10,  avg # of iterations =  5.0

     total cpu time spent up to now is        3.6 secs

     End of self-consistent calculation

          k = 0.0000 0.0000 0.0000 ( 22119 PWs)   bands (ev):

   -23.6806  -7.8697  -7.0008  -7.0001  -6.8730  -6.3448  -0.1454   0.7210

     the Fermi energy is    -6.8352 ev

!    total energy              =     -31.57415947 Ry
     Harris-Foulkes estimate   =     -31.57415950 Ry
     estimated scf accuracy    <          2.5E-09 Ry

     convergence has been achieved in  23 iterations

     Forces acting on atoms (Ry/au):

     atom    1 type  1   force =     0.00000459    0.00064551    0.00022012
     atom    2 type  1   force =    -0.04624464    0.05354866   -0.03253141
     atom    3 type  2   force =     0.04624005   -0.05419417    0.03231130

     Total force =     0.110381     Total SCF correction =     0.000015

     Entering Dynamics:    iteration =     3
                           time      =   0.0145 pico-seconds


     Andersen thermostat:    3 collisions

ATOMIC_POSITIONS (bohr)
H        6.750160003  17.067255913   7.341406943
H        1.836711622   3.761833392   4.142625942
O       19.418026996   6.273553845   2.172568269


     kinetic energy (Ekin) =     0.01713895 Ry
     temperature           =   902.00788061 K 
     Ekin + Etot (const)   =   -31.55702052 Ry
     Message from routine dynamics:
     Total linear momentum <> 0

     Linear momentum :    0.3047675616   -0.3500624036   -0.1369358232

     Writing output data file pwscf.save

     second order wave-functions extrapolation
     Check: negative starting charge=   -0.344893
     second order charge density extrapolation
     Check: negative starting charge=   -0.345029

     negative rho (up, down):  6.095E-02 0.000E+00

     total cpu time spent up to now is        3.9 secs

     per-process dynamical memory:    20.4 Mb

     Self-consistent Calculation

     iteration #  1     ecut=    30.00 Ry     beta=0.70
     Davidson diagonalization with overlap
     c_bands:  1 eigenvalues not converged
     ethr =  1.00E-06,  avg # of iterations = 20.0

     negative rho (up, down):  1.402E-02 0.000E+00

     total cpu time spent up to now is        4.0 secs

     total energy              =     -31.01027624 Ry
     Harris-Foulkes estimate   =     -31.59866524 Ry
     estimated scf accuracy    <       0.76860826 Ry

     iteration #  2     ecut=    30.00 Ry     beta=0.70
     Davidson diagonalization with overlap
     ethr =  9.61E-03,  avg # of iterations =  2.0

     negative rho (up, down):  1.122E-02 0.000E+00

     total cpu time spent up to now is        4.0 secs

     total energy              =     -31.78075763 Ry
     Harris-Foulkes estimate   =     -33.44057475 Ry
     estimated scf accuracy    <       5.42835547 Ry

     iteration #  3     ecut=    30.00 Ry     beta=0.70
     Davidson diagonalization with overlap
     ethr =  9.61E-03,  avg # of iterations =  2.0

     negative rho (up, down):  9.647E-03 0.000E+00

     total cpu time spent up to now is        4.1 secs

     total energy              =     -31.78663239 Ry
     Harris-Foulkes estimate   =     -31.98481324 Ry
     estimated scf accuracy    <       1.46437548 Ry

     iteration #  4     ecut=    30.00 Ry     beta=0.70
     Davidson diagonalization with overlap
     ethr =  9.61E-03,  avg # of iterations =  1.0

     negative rho (up, down):  9.492E-03 0.000E+00

     total cpu time spent up to now is        4.1 secs

     total energy              =     -31.76667590 Ry
     Harris-Foulkes estimate   =     -31.78902954 Ry
     estimated scf accuracy    <       1.33459495 Ry

     iteration #  5     ecut=    30.00 Ry     beta=0.70
     Davidson diagonalization with overlap
     ethr =  9.61E-03,  avg # of iterations =  1.0

     negative rho (up, down):  7.222E-03 0.000E+00

     total cpu time spent up to now is        4.2 secs

     total energy              =     -31.53251576 Ry
     Harris-Foulkes estimate   =     -31.76682815 Ry
     estimated scf accuracy    <       1.27106463 Ry

     iteration #  6     ecut=    30.00 Ry     beta=0.70
     Davidson diagonalization with overlap
     ethr =  9.61E-03,  avg # of iterations =  1.0

     negative rho (up, down):  6.691E-04 0.000E+00

     total cpu time spent up to now is        4.2 secs

     total energy              =     -31.74342251 Ry
     Harris-Foulkes estimate   =     -31.71371525 Ry
     estimated scf accuracy    <       1.27493368 Ry

     iteration #  7     ecut=    30.00 Ry     beta=0.70
     Davidson diagonalization with overlap
     ethr =  9.61E-03,  avg # of iterations =  1.0

     negative rho (up, down):  1.058E-04 0.000E+00

     total cpu time spent up to now is        4.2 secs

     total energy              =     -31.65172696 Ry
     Harris-Foulkes estimate   =     -31.74491640 Ry
     estimated scf accuracy    <       1.40997364 Ry

     iteration #  8     ecut=    30.00 Ry     beta=0.70
     Davidson diagonalization with overlap
     ethr =  9.61E-03,  avg # of iterations =  1.0

     negative rho (up, down):  4.488E-05 0.000E+00

     total cpu time spent up to now is        4.3 secs

     total energy              =     -31.60081850 Ry
     Harris-Foulkes estimate   =     -31.64884502 Ry
     estimated scf accuracy    <       0.95751332 Ry

     iteration #  9     ecut=    30.00 Ry     beta=0.70
     Davidson diagonalization with overlap
     ethr =  9.61E-03,  avg # of iterations =  1.0

     negative rho (up, down):  3.315E-05 0.000E+00

     total cpu time spent up to now is        4.3 secs

     total energy              =     -31.63066804 Ry
     Harris-Foulkes estimate   =     -31.64816822 Ry
     estimated scf accuracy    <       0.60961564 Ry

     iteration # 10     ecut=    30.00 Ry     beta=0.70
     Davidson diagonalization with overlap
     ethr =  7.62E-03,  avg # of iterations =  1.0

     negative rho (up, down):  1.126E-04 0.000E+00

     total cpu time spent up to now is        4.3 secs

     total energy              =     -31.63673844 Ry
     Harris-Foulkes estimate   =     -31.63678102 Ry
     estimated scf accuracy    <       0.02100640 Ry

     iteration # 11     ecut=    30.00 Ry     beta=0.70
     Davidson diagonalization with overlap
     ethr =  2.63E-04,  avg # of iterations =  1.0

     negative rho (up, down):  1.015E-05 0.000E+00

     total cpu time spent up to now is        4.4 secs

     total energy              =     -31.63460912 Ry
     Harris-Foulkes estimate   =     -31.63674437 Ry
     estimated scf accuracy    <       0.02023050 Ry

     iteration # 12     ecut=    30.00 Ry     beta=0.70
     Davidson diagonalization with overlap
     ethr =  2.53E-04,  avg # of iterations =  1.0

     negative rho (up, down):  8.843E-07 0.000E+00

     total cpu time spent up to now is        4.4 secs

     total energy              =     -31.63726687 Ry
     Harris-Foulkes estimate   =     -31.63916967 Ry
     estimated scf accuracy    <       0.22370128 Ry

     iteration # 13     ecut=    30.00 Ry     beta=0.70
     Davidson diagonalization with overlap
     ethr =  2.53E-04,  avg # of iterations =  1.0

     total cpu time spent up to now is        4.4 secs

     total energy              =     -31.64267749 Ry
     Harris-Foulkes estimate   =     -31.63760042 Ry
     estimated scf accuracy    <       0.09361300 Ry

     iteration # 14     ecut=    30.00 Ry     beta=0.70
     Davidson diagonalization with overlap
     ethr =  2.53E-04,  avg # of iterations =  1.0

     negative rho (up, down):  3.715E-08 0.000E+00

     total cpu time spent up to now is        4.5 secs

     total energy              =     -31.64418811 Ry
     Harris-Foulkes estimate   =     -31.64790884 Ry
     estimated scf accuracy    <       0.87452904 Ry

     iteration # 15     ecut=    30.00 Ry     beta=0.70
     Davidson diagonalization with overlap
     ethr =  2.53E-04,  avg # of iterations =  1.0

     negative rho (up, down):  9.059E-07 0.000E+00

     total cpu time spent up to now is        4.5 secs

     total energy              =     -31.65290685 Ry
     Harris-Foulkes estimate   =     -31.64445298 Ry
     estimated scf accuracy    <       0.63607769 Ry

     iteration # 16     ecut=    30.00 Ry     beta=0.70
     Davidson diagonalization with overlap
     ethr =  2.53E-04,  avg # of iterations =  1.0

     negative rho (up, down):  1.332E-07 0.000E+00

     total cpu time spent up to now is        4.5 secs

     total energy              =     -31.62629738 Ry
     Harris-Foulkes estimate   =     -31.65470524 Ry
     estimated scf accuracy    <       1.25642037 Ry

     iteration # 17     ecut=    30.00 Ry     beta=0.70
     Davidson diagonalization with overlap
     ethr =  2.53E-04,  avg # of iterations =  1.0

     negative rho (up, down):  1.309E-07 0.000E+00

     total cpu time spent up to now is        4.6 secs

     total energy              =     -31.63543332 Ry
     Harris-Foulkes estimate   =     -31.63692009 Ry
     estimated scf accuracy    <       0.03836831 Ry

     iteration # 18     ecut=    30.00 Ry     beta=0.70
     Davidson diagonalization with overlap
     ethr =  2.53E-04,  avg # of iterations =  1.0

     negative rho (up, down):  4.501E-08 0.000E+00

     total cpu time spent up to now is        4.6 secs

     total energy              =     -31.63615540 Ry
     Harris-Foulkes estimate   =     -31.63662162 Ry
     estimated scf accuracy    <       0.01301900 Ry

     iteration # 19     ecut=    30.00 Ry     beta=0.70
     Davidson diagonalization with overlap
     ethr =  1.63E-04,  avg # of iterations =  1.0

     total cpu time spent up to now is        4.6 secs

     total energy              =     -31.63640782 Ry
     Harris-Foulkes estimate   =     -31.63648248 Ry
     estimated scf accuracy    <       0.00238175 Ry

     iteration # 20     ecut=    30.00 Ry     beta=0.70
     Davidson diagonalization with overlap
     ethr =  2.98E-05,  avg # of iterations =  1.0

     total cpu time spent up to now is        4.7 secs

     total energy              =     -31.63645072 Ry
     Harris-Foulkes estimate   =     -31.63645501 Ry
     estimated scf accuracy    <       0.00017240 Ry

     iteration # 21     ecut=    30.00 Ry     beta=0.70
     Davidson diagonalization with overlap
     ethr =  2.16E-06,  avg # of iterations = 18.0

     total cpu time spent up to now is        4.7 secs

     total energy              =     -31.63645297 Ry
     Harris-Foulkes estimate   =     -31.63645311 Ry
     estimated scf accuracy    <       0.00000054 Ry

     iteration # 22     ecut=    30.00 Ry     beta=0.70
     Davidson diagonalization with overlap
     ethr =  6.81E-09,  avg # of iterations =  1.0

     total cpu time spent up to now is        4.8 secs

     total energy              =     -31.63645294 Ry
     Harris-Foulkes estimate   =     -31.63645297 Ry
     estimated scf accuracy    <       0.00000070 Ry

     iteration # 23     ecut=    30.00 Ry     beta=0.70
     Davidson diagonalization with overlap
     ethr =  6.81E-09,  avg # of iterations =  1.0

     total cpu time spent up to now is        4.9 secs

     total energy              =     -31.63645295 Ry
     Harris-Foulkes estimate   =     -31.63645296 Ry
     estimated scf accuracy    <       0.00000011 Ry

     iteration # 24     ecut=    30.00 Ry     beta=0.70
     Davidson diagonalization with overlap
     ethr =  1.32E-09,  avg # of iterations =  1.0

     total cpu time spent up to now is        4.9 secs

     total energy              =     -31.63645295 Ry
     Harris-Foulkes estimate   =     -31.63645295 Ry
     estimated scf accuracy    <       0.00000008 Ry

     iteration # 25     ecut=    30.00 Ry     beta=0.70
     Davidson diagonalization with overlap
     ethr =  9.58E-10,  avg # of iterations =  1.0

     total cpu time spent up to now is        4.9 secs

     End of self-consistent calculation

          k = 0.0000 0.0000 0.0000 ( 22119 PWs)   bands (ev):

   -23.6402  -8.2216  -6.9594  -6.9587  -6.8269  -5.6509  -0.1293   0.7517

     the Fermi energy is    -6.7911 ev

!    total energy              =     -31.63645295 Ry
     Harris-Foulkes estimate   =     -31.63645295 Ry
     estimated scf accuracy    <          3.6E-10 Ry

     convergence has been achieved in  25 iterations

     Forces acting on atoms (Ry/au):

     atom    1 type  1   force =     0.00013418    0.00001873    0.00030984
     atom    2 type  1   force =    -0.06460466    0.06736840   -0.05239706
     atom    3 type  2   force =     0.06447048   -0.06738713    0.05208722

     Total force =     0.151223     Total SCF correction =     0.000006

     Entering Dynamics:    iteration =     4
                           time      =   0.0194 pico-seconds


     Andersen thermostat:    3 collisions

ATOMIC_POSITIONS (bohr)
H        6.740034890  16.931323504   7.253827975
H        0.938076009   4.158834707   3.377937741
O       19.475392516   6.257073870   2.226367634


     kinetic energy (Ekin) =     0.03642798 Ry
     temperature           =  1917.17222287 K 
     Ekin + Etot (const)   =   -31.60002497 Ry
     Message from routine dynamics:
     Total linear momentum <> 0

     Linear momentum :    0.6585480540    0.4524520681   -0.2987964083

     Writing output data file pwscf.save

     second order wave-functions extrapolation
     Check: negative starting charge=   -0.345029
     second order charge density extrapolation
     Check: negative starting charge=   -0.347471

     negative rho (up, down):  7.619E-02 0.000E+00

     total cpu time spent up to now is        5.2 secs

     per-process dynamical memory:    20.4 Mb

     Self-consistent Calculation

     iteration #  1     ecut=    30.00 Ry     beta=0.70
     Davidson diagonalization with overlap
     c_bands:  1 eigenvalues not converged
     ethr =  1.00E-06,  avg # of iterations = 20.0

     negative rho (up, down):  1.698E-02 0.000E+00

     total cpu time spent up to now is        5.3 secs

     total energy              =     -29.27731030 Ry
     Harris-Foulkes estimate   =     -32.01459066 Ry
     estimated scf accuracy    <       2.49619024 Ry

     iteration #  2     ecut=    30.00 Ry     beta=0.70
     Davidson diagonalization with overlap
     ethr =  1.00E-02,  avg # of iterations =  3.0

     negative rho (up, down):  1.254E-02 0.000E+00

     total cpu time spent up to now is        5.4 secs

     total energy              =     -32.35498763 Ry
     Harris-Foulkes estimate   =     -35.58905095 Ry
     estimated scf accuracy    <       8.42339117 Ry

     iteration #  3     ecut=    30.00 Ry     beta=0.70
     Davidson diagonalization with overlap
     ethr =  1.00E-02,  avg # of iterations =  2.0

     negative rho (up, down):  1.032E-02 0.000E+00

     total cpu time spent up to now is        5.4 secs

     total energy              =     -32.15307296 Ry
     Harris-Foulkes estimate   =     -32.67245354 Ry
     estimated scf accuracy    <       2.69913032 Ry

     iteration #  4     ecut=    30.00 Ry     beta=0.70
     Davidson diagonalization with overlap
     ethr =  1.00E-02,  avg # of iterations =  3.0

     negative rho (up, down):  1.033E-02 0.000E+00

     total cpu time spent up to now is        5.4 secs

     total energy              =     -32.16025596 Ry
     Harris-Foulkes estimate   =     -32.15877688 Ry
     estimated scf accuracy    <       1.75367054 Ry

     iteration #  5     ecut=    30.00 Ry     beta=0.70
     Davidson diagonalization with overlap
     ethr =  1.00E-02,  avg # of iterations =  1.0

     negative rho (up, down):  1.075E-02 0.000E+00

     total cpu time spent up to now is        5.5 secs

     total energy              =     -32.18454274 Ry
     Harris-Foulkes estimate   =     -32.16042658 Ry
     estimated scf accuracy    <       1.75408059 Ry

     iteration #  6     ecut=    30.00 Ry     beta=0.70
     Davidson diagonalization with overlap
     ethr =  1.00E-02,  avg # of iterations =  1.0

     negative rho (up, down):  7.687E-03 0.000E+00

     total cpu time spent up to now is        5.5 secs

     total energy              =     -31.77075047 Ry
     Harris-Foulkes estimate   =     -32.19270968 Ry
     estimated scf accuracy    <       1.77897271 Ry

     iteration #  7     ecut=    30.00 Ry     beta=0.70
     Davidson diagonalization with overlap
     ethr =  1.00E-02,  avg # of iterations =  1.0

     negative rho (up, down):  4.495E-03 0.000E+00

     total cpu time spent up to now is        5.5 secs

     total energy              =     -32.00875064 Ry
     Harris-Foulkes estimate   =     -31.84130568 Ry
     estimated scf accuracy    <       1.23530258 Ry

     iteration #  8     ecut=    30.00 Ry     beta=0.70
     Davidson diagonalization with overlap
     ethr =  1.00E-02,  avg # of iterations =  1.0

     negative rho (up, down):  4.534E-03 0.000E+00

     total cpu time spent up to now is        5.6 secs

     total energy              =     -31.97028222 Ry
     Harris-Foulkes estimate   =     -32.01356599 Ry
     estimated scf accuracy    <       1.44517364 Ry

     iteration #  9     ecut=    30.00 Ry     beta=0.70
     Davidson diagonalization with overlap
     ethr =  1.00E-02,  avg # of iterations =  1.0

     negative rho (up, down):  4.449E-03 0.000E+00

     total cpu time spent up to now is        5.6 secs

     total energy              =     -32.02990257 Ry
     Harris-Foulkes estimate   =     -31.97052755 Ry
     estimated scf accuracy    <       1.37876108 Ry

     iteration # 10     ecut=    30.00 Ry     beta=0.70
     Davidson diagonalization with overlap
     ethr =  1.00E-02,  avg # of iterations =  1.0

     negative rho (up, down):  1.796E-01 0.000E+00

     total cpu time spent up to now is        5.6 secs

     total energy              =     -34.14827732 Ry
     Harris-Foulkes estimate   =     -32.03021941 Ry
     estimated scf accuracy    <       1.48659069 Ry

     iteration # 11     ecut=    30.00 Ry     beta=0.70
     Davidson diagonalization with overlap
     ethr =  1.00E-02,  avg # of iterations =  6.0

     negative rho (up, down):  1.505E-03 0.000E+00

     total cpu time spent up to now is        5.7 secs

     total energy              =     -32.06018695 Ry
     Harris-Foulkes estimate   =     -35.41912174 Ry
     estimated scf accuracy    <      24.02012242 Ry

     iteration # 12     ecut=    30.00 Ry     beta=0.70
     Davidson diagonalization with overlap
     ethr =  1.00E-02,  avg # of iterations =  2.0

     negative rho (up, down):  3.123E-05 0.000E+00

     total cpu time spent up to now is        5.7 secs

     total energy              =     -31.16085064 Ry
     Harris-Foulkes estimate   =     -32.75167783 Ry
     estimated scf accuracy    <      10.11816888 Ry

     iteration # 13     ecut=    30.00 Ry     beta=0.70
     Davidson diagonalization with overlap
     ethr =  1.00E-02,  avg # of iterations =  6.0

     negative rho (up, down):  4.083E-05 0.000E+00

     total cpu time spent up to now is        5.8 secs

     total energy              =     -31.95586127 Ry
     Harris-Foulkes estimate   =     -32.03766372 Ry
     estimated scf accuracy    <       1.71415767 Ry

     iteration # 14     ecut=    30.00 Ry     beta=0.70
     Davidson diagonalization with overlap
     ethr =  1.00E-02,  avg # of iterations =  1.0

     negative rho (up, down):  1.168E-04 0.000E+00

     total cpu time spent up to now is        5.8 secs

     total energy              =     -31.96502309 Ry
     Harris-Foulkes estimate   =     -31.95742418 Ry
     estimated scf accuracy    <       1.57189457 Ry

     iteration # 15     ecut=    30.00 Ry     beta=0.70
     Davidson diagonalization with overlap
     ethr =  1.00E-02,  avg # of iterations =  1.0

     negative rho (up, down):  1.301E-01 0.000E+00

     total cpu time spent up to now is        5.8 secs

     total energy              =     -31.45455363 Ry
     Harris-Foulkes estimate   =     -31.96527420 Ry
     estimated scf accuracy    <       1.57874724 Ry

     iteration # 16     ecut=    30.00 Ry     beta=0.70
     Davidson diagonalization with overlap
     ethr =  1.00E-02,  avg # of iterations =  1.0

     negative rho (up, down):  1.362E-01 0.000E+00

     total cpu time spent up to now is        5.9 secs

     total energy              =     -31.44733087 Ry
     Harris-Foulkes estimate   =     -31.54325748 Ry
     estimated scf accuracy    <       0.74610644 Ry

     iteration # 17     ecut=    30.00 Ry     beta=0.70
     Davidson diagonalization with overlap
     ethr =  9.33E-03,  avg # of iterations =  1.0

     negative rho (up, down):  1.319E-01 0.000E+00

     total cpu time spent up to now is        5.9 secs

     total energy              =     -31.45490180 Ry
     Harris-Foulkes estimate   =     -31.54339135 Ry
     estimated scf accuracy    <       0.81800036 Ry

     iteration # 18     ecut=    30.00 Ry     beta=0.70
     Davidson diagonalization with overlap
     ethr =  9.33E-03,  avg # of iterations =  1.0

     negative rho (up, down):  1.425E-01 0.000E+00

     total cpu time spent up to now is        5.9 secs

     total energy              =     -31.44551525 Ry
     Harris-Foulkes estimate   =     -31.47199034 Ry
     estimated scf accuracy    <       0.25817300 Ry

     iteration # 19     ecut=    30.00 Ry     beta=0.70
     Davidson diagonalization with overlap
     ethr =  3.23E-03,  avg # of iterations =  5.0

     negative rho (up, down):  8.227E-04 0.000E+00

     total cpu time spent up to now is        6.0 secs

     total energy              =     -31.72403443 Ry
     Harris-Foulkes estimate   =     -32.25131384 Ry
     estimated scf accuracy    <       1.78461758 Ry

     iteration # 20     ecut=    30.00 Ry     beta=0.70
     Davidson diagonalization with overlap
     ethr =  3.23E-03,  avg # of iterations =  2.0

     negative rho (up, down):  2.008E-02 0.000E+00

     total cpu time spent up to now is        6.0 secs

     total energy              =     -31.64621661 Ry
     Harris-Foulkes estimate   =     -31.92268594 Ry
     estimated scf accuracy    <       1.49617756 Ry

     iteration # 21     ecut=    30.00 Ry     beta=0.70
     Davidson diagonalization with overlap
     ethr =  3.23E-03,  avg # of iterations =  1.0

     negative rho (up, down):  5.376E-06 0.000E+00

     total cpu time spent up to now is        6.0 secs

     total energy              =     -31.82986948 Ry
     Harris-Foulkes estimate   =     -31.97544329 Ry
     estimated scf accuracy    <       1.26995551 Ry

     iteration # 22     ecut=    30.00 Ry     beta=0.70
     Davidson diagonalization with overlap
     ethr =  3.23E-03,  avg # of iterations =  1.0

     negative rho (up, down):  2.196E-06 0.000E+00

     total cpu time spent up to now is        6.1 secs

     total energy              =     -31.81182854 Ry
     Harris-Foulkes estimate   =     -31.83563330 Ry
     estimated scf accuracy    <       0.45957033 Ry

     iteration # 23     ecut=    30.00 Ry     beta=0.70
     Davidson diagonalization with overlap
     ethr =  3.23E-03,  avg # of iterations =  1.0

     total cpu time spent up to now is        6.1 secs

     total energy              =     -31.82963315 Ry
     Harris-Foulkes estimate   =     -31.83035318 Ry
     estimated scf accuracy    <       0.34748169 Ry

     iteration # 24     ecut=    30.00 Ry     beta=0.70
     Davidson diagonalization with overlap
     ethr =  3.23E-03,  avg # of iterations =  1.0

     negative rho (up, down):  4.897E-04 0.000E+00

     total cpu time spent up to now is        6.1 secs

     total energy              =     -31.77768480 Ry
     Harris-Foulkes estimate   =     -31.82969645 Ry
     estimated scf accuracy    <       0.33520310 Ry

     iteration # 25     ecut=    30.00 Ry     beta=0.70
     Davidson diagonalization with overlap
     ethr =  3.23E-03,  avg # of iterations =  1.0

     total cpu time spent up to now is        6.2 secs

     total energy              =     -31.88023558 Ry
     Harris-Foulkes estimate   =     -31.88284505 Ry
     estimated scf accuracy    <       1.10500213 Ry

     iteration # 26     ecut=    30.00 Ry     beta=0.70
     Davidson diagonalization with overlap
     ethr =  3.23E-03,  avg # of iterations =  1.0

     negative rho (up, down):  2.191E-08 0.000E+00

     total cpu time spent up to now is        6.2 secs

     total energy              =     -31.83824193 Ry
     Harris-Foulkes estimate   =     -31.88032252 Ry
     estimated scf accuracy    <       1.09584353 Ry

     iteration # 27     ecut=    30.00 Ry     beta=0.70
     Davidson diagonalization with overlap
     ethr =  3.23E-03,  avg # of iterations =  1.0

     total cpu time spent up to now is        6.2 secs

     total energy              =     -31.68673337 Ry
     Harris-Foulkes estimate   =     -31.83942347 Ry
     estimated scf accuracy    <       0.79853267 Ry

     iteration # 28     ecut=    30.00 Ry     beta=0.70
     Davidson diagonalization with overlap
     ethr =  3.23E-03,  avg # of iterations =  1.0

     total cpu time spent up to now is        6.3 secs

     total energy              =     -31.98431206 Ry
     Harris-Foulkes estimate   =     -31.98375403 Ry
     estimated scf accuracy    <       1.44187973 Ry

     iteration # 29     ecut=    30.00 Ry     beta=0.70
     Davidson diagonalization with overlap
     ethr =  3.23E-03,  avg # of iterations =  1.0

     total cpu time spent up to now is        6.3 secs

     total energy              =     -31.94760812 Ry
     Harris-Foulkes estimate   =     -31.98440592 Ry
     estimated scf accuracy    <       1.44132035 Ry

     iteration # 30     ecut=    30.00 Ry     beta=0.70
     Davidson diagonalization with overlap
     ethr =  3.23E-03,  avg # of iterations =  1.0

     total cpu time spent up to now is        6.3 secs

     total energy              =     -31.93906107 Ry
     Harris-Foulkes estimate   =     -31.94828094 Ry
     estimated scf accuracy    <       1.39385052 Ry

     iteration # 31     ecut=    30.00 Ry     beta=0.70
     Davidson diagonalization with overlap
     ethr =  3.23E-03,  avg # of iterations =  1.0

     total cpu time spent up to now is        6.4 secs

     total energy              =     -31.88194774 Ry
     Harris-Foulkes estimate   =     -31.94438832 Ry
     estimated scf accuracy    <       1.37375857 Ry

     iteration # 32     ecut=    30.00 Ry     beta=0.70
     Davidson diagonalization with overlap
     ethr =  3.23E-03,  avg # of iterations =  1.0

     negative rho (up, down):  1.012E-08 0.000E+00

     total cpu time spent up to now is        6.4 secs

     total energy              =     -31.86399785 Ry
     Harris-Foulkes estimate   =     -31.88351915 Ry
     estimated scf accuracy    <       1.30921089 Ry

     iteration # 33     ecut=    30.00 Ry     beta=0.70
     Davidson diagonalization with overlap
     ethr =  3.23E-03,  avg # of iterations =  1.0

     negative rho (up, down):  1.720E-08 0.000E+00

     total cpu time spent up to now is        6.4 secs

     total energy              =     -31.88485415 Ry
     Harris-Foulkes estimate   =     -31.86323028 Ry
     estimated scf accuracy    <       1.54495917 Ry

     iteration # 34     ecut=    30.00 Ry     beta=0.70
     Davidson diagonalization with overlap
     ethr =  3.23E-03,  avg # of iterations =  1.0

     negative rho (up, down):  2.866E-06 0.000E+00

     total cpu time spent up to now is        6.5 secs

     total energy              =     -31.88188033 Ry
     Harris-Foulkes estimate   =     -31.88378234 Ry
     estimated scf accuracy    <       1.30840609 Ry

     iteration # 35     ecut=    30.00 Ry     beta=0.70
     Davidson diagonalization with overlap
     ethr =  3.23E-03,  avg # of iterations =  1.0

     negative rho (up, down):  3.588E-04 0.000E+00

     total cpu time spent up to now is        6.5 secs

     total energy              =     -31.86536847 Ry
     Harris-Foulkes estimate   =     -31.88188960 Ry
     estimated scf accuracy    <       1.32346415 Ry

     iteration # 36     ecut=    30.00 Ry     beta=0.70
     Davidson diagonalization with overlap
     ethr =  3.23E-03,  avg # of iterations =  1.0

     negative rho (up, down):  1.875E-03 0.000E+00

     total cpu time spent up to now is        6.5 secs

     total energy              =     -32.12553004 Ry
     Harris-Foulkes estimate   =     -31.86487701 Ry
     estimated scf accuracy    <       1.52177517 Ry

     iteration # 37     ecut=    30.00 Ry     beta=0.70
     Davidson diagonalization with overlap
     ethr =  3.23E-03,  avg # of iterations =  1.0

     negative rho (up, down):  2.337E-03 0.000E+00

     total cpu time spent up to now is        6.6 secs

     total energy              =     -32.14772342 Ry
     Harris-Foulkes estimate   =     -32.10626942 Ry
     estimated scf accuracy    <       1.65893369 Ry

     iteration # 38     ecut=    30.00 Ry     beta=0.70
     Davidson diagonalization with overlap
     ethr =  3.23E-03,  avg # of iterations =  1.0

     negative rho (up, down):  7.626E-04 0.000E+00

     total cpu time spent up to now is        6.6 secs

     total energy              =     -32.08012340 Ry
     Harris-Foulkes estimate   =     -32.14804999 Ry
     estimated scf accuracy    <       1.73902354 Ry

     iteration # 39     ecut=    30.00 Ry     beta=0.70
     Davidson diagonalization with overlap
     ethr =  3.23E-03,  avg # of iterations =  1.0

     negative rho (up, down):  1.323E-03 0.000E+00

     total cpu time spent up to now is        6.6 secs

     total energy              =     -32.13589169 Ry
     Harris-Foulkes estimate   =     -32.08050582 Ry
     estimated scf accuracy    <       1.61334886 Ry

     iteration # 40     ecut=    30.00 Ry     beta=0.70
     Davidson diagonalization with overlap
     ethr =  3.23E-03,  avg # of iterations =  1.0

     negative rho (up, down):  4.095E-04 0.000E+00

     total cpu time spent up to now is        6.7 secs

     total energy              =     -32.04735646 Ry
     Harris-Foulkes estimate   =     -32.13612196 Ry
     estimated scf accuracy    <       1.71231337 Ry

     iteration # 41     ecut=    30.00 Ry     beta=0.70
     Davidson diagonalization with overlap
     ethr =  3.23E-03,  avg # of iterations =  1.0

     negative rho (up, down):  3.111E-04 0.000E+00

     total cpu time spent up to now is        6.7 secs

     total energy              =     -31.77239344 Ry
     Harris-Foulkes estimate   =     -32.04792353 Ry
     estimated scf accuracy    <       1.55483034 Ry

     iteration # 42     ecut=    30.00 Ry     beta=0.70
     Davidson diagonalization with overlap
     ethr =  3.23E-03,  avg # of iterations =  1.0

     negative rho (up, down):  8.347E-05 0.000E+00

     total cpu time spent up to now is        6.7 secs

     total energy              =     -32.10619903 Ry
     Harris-Foulkes estimate   =     -31.83570454 Ry
     estimated scf accuracy    <       0.70810442 Ry

     iteration # 43     ecut=    30.00 Ry     beta=0.70
     Davidson diagonalization with overlap
     ethr =  3.23E-03,  avg # of iterations =  1.0

     negative rho (up, down):  4.942E-05 0.000E+00

     total cpu time spent up to now is        6.8 secs

     total energy              =     -32.15318050 Ry
     Harris-Foulkes estimate   =     -32.15793944 Ry
     estimated scf accuracy    <       1.46323932 Ry

     iteration # 44     ecut=    30.00 Ry     beta=0.70
     Davidson diagonalization with overlap
     ethr =  3.23E-03,  avg # of iterations =  1.0

     negative rho (up, down):  1.409E-06 0.000E+00

     total cpu time spent up to now is        6.8 secs

     total energy              =     -32.02337188 Ry
     Harris-Foulkes estimate   =     -32.15326519 Ry
     estimated scf accuracy    <       1.45188495 Ry

     iteration # 45     ecut=    30.00 Ry     beta=0.70
     Davidson diagonalization with overlap
     ethr =  3.23E-03,  avg # of iterations =  1.0

     negative rho (up, down):  1.386E-05 0.000E+00

     total cpu time spent up to now is        6.8 secs

     total energy              =     -31.78677527 Ry
     Harris-Foulkes estimate   =     -32.01607513 Ry
     estimated scf accuracy    <       1.24443513 Ry

     iteration # 46     ecut=    30.00 Ry     beta=0.70
     Davidson diagonalization with overlap
     ethr =  3.23E-03,  avg # of iterations =  1.0

     negative rho (up, down):  2.700E-07 0.000E+00

     total cpu time spent up to now is        6.9 secs

     total energy              =     -31.76523838 Ry
     Harris-Foulkes estimate   =     -31.82683606 Ry
     estimated scf accuracy    <       0.44729320 Ry

     iteration # 47     ecut=    30.00 Ry     beta=0.70
     Davidson diagonalization with overlap
     ethr =  3.23E-03,  avg # of iterations =  1.0

     total cpu time spent up to now is        6.9 secs

     total energy              =     -31.85816239 Ry
     Harris-Foulkes estimate   =     -31.88509645 Ry
     estimated scf accuracy    <       1.02102945 Ry

     iteration # 48     ecut=    30.00 Ry     beta=0.70
     Davidson diagonalization with overlap
     ethr =  3.23E-03,  avg # of iterations =  1.0

     total cpu time spent up to now is        6.9 secs

     total energy              =     -31.77181386 Ry
     Harris-Foulkes estimate   =     -31.85823663 Ry
     estimated scf accuracy    <       0.97305002 Ry

     iteration # 49     ecut=    30.00 Ry     beta=0.70
     Davidson diagonalization with overlap
     ethr =  3.23E-03,  avg # of iterations =  1.0

     total cpu time spent up to now is        7.0 secs

     total energy              =     -31.66412747 Ry
     Harris-Foulkes estimate   =     -31.84682102 Ry
     estimated scf accuracy    <       1.49932617 Ry

     iteration # 50     ecut=    30.00 Ry     beta=0.70
     Davidson diagonalization with overlap
     ethr =  3.23E-03,  avg # of iterations =  1.0

     total cpu time spent up to now is        7.0 secs

     total energy              =     -31.92859207 Ry
     Harris-Foulkes estimate   =     -31.92500228 Ry
     estimated scf accuracy    <       1.08464760 Ry

     iteration # 51     ecut=    30.00 Ry     beta=0.70
     Davidson diagonalization with overlap
     ethr =  3.23E-03,  avg # of iterations =  1.0

     total cpu time spent up to now is        7.0 secs

     total energy              =     -31.91003038 Ry
     Harris-Foulkes estimate   =     -31.92865425 Ry
     estimated scf accuracy    <       1.09202022 Ry

     iteration # 52     ecut=    30.00 Ry     beta=0.70
     Davidson diagonalization with overlap
     ethr =  3.23E-03,  avg # of iterations =  1.0

     total cpu time spent up to now is        7.1 secs

     total energy              =     -31.91307089 Ry
     Harris-Foulkes estimate   =     -31.91003736 Ry
     estimated scf accuracy    <       1.06694731 Ry

     iteration # 53     ecut=    30.00 Ry     beta=0.70
     Davidson diagonalization with overlap
     ethr =  3.23E-03,  avg # of iterations =  1.0

     total cpu time spent up to now is        7.1 secs

     total energy              =     -31.88365638 Ry
     Harris-Foulkes estimate   =     -31.91307109 Ry
     estimated scf accuracy    <       1.07076084 Ry

     iteration # 54     ecut=    30.00 Ry     beta=0.70
     Davidson diagonalization with overlap
     ethr =  3.23E-03,  avg # of iterations =  1.0

     total cpu time spent up to now is        7.2 secs

     total energy              =     -31.88112578 Ry
     Harris-Foulkes estimate   =     -31.88370072 Ry
     estimated scf accuracy    <       1.02443520 Ry

     iteration # 55     ecut=    30.00 Ry     beta=0.70
     Davidson diagonalization with overlap
     ethr =  3.23E-03,  avg # of iterations =  1.0

     total cpu time spent up to now is        7.2 secs

     total energy              =     -31.87905847 Ry
     Harris-Foulkes estimate   =     -31.88112734 Ry
     estimated scf accuracy    <       1.02055382 Ry

     iteration # 56     ecut=    30.00 Ry     beta=0.70
     Davidson diagonalization with overlap
     ethr =  3.23E-03,  avg # of iterations =  1.0

     total cpu time spent up to now is        7.2 secs

     total energy              =     -31.89823401 Ry
     Harris-Foulkes estimate   =     -31.87905913 Ry
     estimated scf accuracy    <       1.01682839 Ry

     iteration # 57     ecut=    30.00 Ry     beta=0.70
     Davidson diagonalization with overlap
     ethr =  3.23E-03,  avg # of iterations =  1.0

     negative rho (up, down):  6.003E-08 0.000E+00

     total cpu time spent up to now is        7.3 secs

     total energy              =     -31.80343598 Ry
     Harris-Foulkes estimate   =     -31.89825491 Ry
     estimated scf accuracy    <       1.04739189 Ry

     iteration # 58     ecut=    30.00 Ry     beta=0.70
     Davidson diagonalization with overlap
     ethr =  3.23E-03,  avg # of iterations =  1.0

     total cpu time spent up to now is        7.3 secs

     total energy              =     -31.81567525 Ry
     Harris-Foulkes estimate   =     -31.82149210 Ry
     estimated scf accuracy    <       0.00819881 Ry

     iteration # 59     ecut=    30.00 Ry     beta=0.70
     Davidson diagonalization with overlap
     ethr =  1.02E-04,  avg # of iterations =  2.0

     total cpu time spent up to now is        7.3 secs

     total energy              =     -31.92318320 Ry
     Harris-Foulkes estimate   =     -31.91314527 Ry
     estimated scf accuracy    <       1.06836883 Ry

     iteration # 60     ecut=    30.00 Ry     beta=0.70
     Davidson diagonalization with overlap
     ethr =  1.02E-04,  avg # of iterations =  1.0

     total cpu time spent up to now is        7.4 secs

     total energy              =     -31.92971389 Ry
     Harris-Foulkes estimate   =     -31.92322392 Ry
     estimated scf accuracy    <       1.08654528 Ry

     iteration # 61     ecut=    30.00 Ry     beta=0.70
     Davidson diagonalization with overlap
     ethr =  1.02E-04,  avg # of iterations =  1.0

     total cpu time spent up to now is        7.4 secs

     total energy              =     -31.95660884 Ry
     Harris-Foulkes estimate   =     -31.92972096 Ry
     estimated scf accuracy    <       1.09757862 Ry

     iteration # 62     ecut=    30.00 Ry     beta=0.70
     Davidson diagonalization with overlap
     ethr =  1.02E-04,  avg # of iterations =  1.0

     total cpu time spent up to now is        7.4 secs

     total energy              =     -31.89700614 Ry
     Harris-Foulkes estimate   =     -31.95664162 Ry
     estimated scf accuracy    <       1.13921534 Ry

     iteration # 63     ecut=    30.00 Ry     beta=0.70
     Davidson diagonalization with overlap
     ethr =  1.02E-04,  avg # of iterations =  1.0

     total cpu time spent up to now is        7.5 secs

     total energy              =     -32.21331147 Ry
     Harris-Foulkes estimate   =     -31.89715378 Ry
     estimated scf accuracy    <       1.04826715 Ry

     iteration # 64     ecut=    30.00 Ry     beta=0.70
     Davidson diagonalization with overlap
     ethr =  1.02E-04,  avg # of iterations = 11.0

     total cpu time spent up to now is        7.5 secs

     total energy              =     -31.90040797 Ry
     Harris-Foulkes estimate   =     -32.21702321 Ry
     estimated scf accuracy    <       1.53682477 Ry

     iteration # 65     ecut=    30.00 Ry     beta=0.70
     Davidson diagonalization with overlap
     ethr =  1.02E-04,  avg # of iterations =  9.0

     total cpu time spent up to now is        7.5 secs

     total energy              =     -31.87310107 Ry
     Harris-Foulkes estimate   =     -31.90370399 Ry
     estimated scf accuracy    <       1.05944817 Ry

     iteration # 66     ecut=    30.00 Ry     beta=0.70
     Davidson diagonalization with overlap
     ethr =  1.02E-04,  avg # of iterations =  1.0

     negative rho (up, down):  1.456E-06 0.000E+00

     total cpu time spent up to now is        7.6 secs

     total energy              =     -31.36955205 Ry
     Harris-Foulkes estimate   =     -31.87314509 Ry
     estimated scf accuracy    <       1.01193355 Ry

     iteration # 67     ecut=    30.00 Ry     beta=0.70
     Davidson diagonalization with overlap
     ethr =  1.02E-04,  avg # of iterations =  7.0

     negative rho (up, down):  2.055E-02 0.000E+00

     total cpu time spent up to now is        7.6 secs

     total energy              =     -33.12213914 Ry
     Harris-Foulkes estimate   =     -32.57142422 Ry
     estimated scf accuracy    <       2.51048945 Ry

     iteration # 68     ecut=    30.00 Ry     beta=0.70
     Davidson diagonalization with overlap
     ethr =  1.02E-04,  avg # of iterations = 11.0

[...]

     total energy              =     196.69162467 Ry
     Harris-Foulkes estimate   =   -1677.59386842 Ry
     estimated scf accuracy    <      42.33797606 Ry

     iteration # 59     ecut=    30.00 Ry     beta=0.70
     Davidson diagonalization with overlap
     ethr =  6.19E-03,  avg # of iterations = 10.0

     negative rho (up, down):  2.468E-01 0.000E+00

     total cpu time spent up to now is       12.2 secs

     total energy              =     -21.48031365 Ry
     Harris-Foulkes estimate   =     -43.78859929 Ry
     estimated scf accuracy    <      17.31736827 Ry

     iteration # 60     ecut=    30.00 Ry     beta=0.70
     Davidson diagonalization with overlap
     ethr =  6.19E-03,  avg # of iterations = 16.0

     negative rho (up, down):  1.082E-01 0.000E+00

     total cpu time spent up to now is       12.3 secs

     total energy              =      96.89668633 Ry
     Harris-Foulkes estimate   =   -3518.18632924 Ry
     estimated scf accuracy    <      18.03871355 Ry

     iteration # 61     ecut=    30.00 Ry     beta=0.70
     Davidson diagonalization with overlap
     ethr =  6.19E-03,  avg # of iterations = 10.0

     negative rho (up, down):  8.097E-03 0.000E+00

     total cpu time spent up to now is       12.3 secs

     total energy              =      39.91504280 Ry
     Harris-Foulkes estimate   =     -84.62647198 Ry
     estimated scf accuracy    <      11.62312999 Ry

     iteration # 62     ecut=    30.00 Ry     beta=0.70
     Davidson diagonalization with overlap
     ethr =  6.19E-03,  avg # of iterations =  6.0

     negative rho (up, down):  3.209E-02 0.000E+00

     total cpu time spent up to now is       12.4 secs

     total energy              =      40.01626271 Ry
     Harris-Foulkes estimate   =    -170.07297103 Ry
     estimated scf accuracy    <      13.80788836 Ry

     iteration # 63     ecut=    30.00 Ry     beta=0.70
     Davidson diagonalization with overlap
     ethr =  6.19E-03,  avg # of iterations =  4.0

     negative rho (up, down):  3.916E-03 0.000E+00

     total cpu time spent up to now is       12.4 secs

     total energy              =       6.77272057 Ry
     Harris-Foulkes estimate   =     -81.96520962 Ry
     estimated scf accuracy    <      20.27895982 Ry

     iteration # 64     ecut=    30.00 Ry     beta=0.70
     Davidson diagonalization with overlap
     ethr =  6.19E-03,  avg # of iterations =  7.0

     negative rho (up, down):  2.356E-02 0.000E+00

     total cpu time spent up to now is       12.4 secs

     total energy              =     -60.51269949 Ry
     Harris-Foulkes estimate   =     -57.81064035 Ry
     estimated scf accuracy    <      17.47116652 Ry

     iteration # 65     ecut=    30.00 Ry     beta=0.70
     Davidson diagonalization with overlap
     ethr =  6.19E-03,  avg # of iterations =  5.0

     negative rho (up, down):  2.894E-02 0.000E+00

     total cpu time spent up to now is       12.5 secs

     total energy              =      64.18244441 Ry
     Harris-Foulkes estimate   =    -443.57551050 Ry
     estimated scf accuracy    <      13.50579322 Ry

     iteration # 66     ecut=    30.00 Ry     beta=0.70
     Davidson diagonalization with overlap
     ethr =  6.19E-03,  avg # of iterations =  8.0

     negative rho (up, down):  4.102E-04 0.000E+00

     total cpu time spent up to now is       12.5 secs

     total energy              =       1.69289047 Ry
     Harris-Foulkes estimate   =     -99.45086455 Ry
     estimated scf accuracy    <      17.31502159 Ry

     iteration # 67     ecut=    30.00 Ry     beta=0.70
     Davidson diagonalization with overlap
     ethr =  6.19E-03,  avg # of iterations =  5.0

     negative rho (up, down):  4.631E-03 0.000E+00

     total cpu time spent up to now is       12.6 secs

     total energy              =      12.71445427 Ry
     Harris-Foulkes estimate   =    -102.10750940 Ry
     estimated scf accuracy    <      15.31196793 Ry

     iteration # 68     ecut=    30.00 Ry     beta=0.70
     Davidson diagonalization with overlap
     ethr =  6.19E-03,  avg # of iterations =  5.0

     negative rho (up, down):  1.646E-01 0.000E+00

     total cpu time spent up to now is       12.6 secs

     total energy              =     -31.47730583 Ry
     Harris-Foulkes estimate   =     -33.32390928 Ry
     estimated scf accuracy    <      27.36239378 Ry

     iteration # 69     ecut=    30.00 Ry     beta=0.70
     Davidson diagonalization with overlap
     ethr =  6.19E-03,  avg # of iterations =  1.0

     negative rho (up, down):  4.595E-01 0.000E+00

     total cpu time spent up to now is       12.7 secs

     total energy              =     -50.89993975 Ry
     Harris-Foulkes estimate   =     -31.48712445 Ry
     estimated scf accuracy    <      24.96692757 Ry

     iteration # 70     ecut=    30.00 Ry     beta=0.70
     Davidson diagonalization with overlap
     ethr =  6.19E-03,  avg # of iterations =  9.0

     negative rho (up, down):  4.892E-01 0.000E+00

     total cpu time spent up to now is       12.7 secs

     total energy              =     112.16584314 Ry
     Harris-Foulkes estimate   =  -21555.43835075 Ry
     estimated scf accuracy    <      41.27481958 Ry

     iteration # 71     ecut=    30.00 Ry     beta=0.70
     Davidson diagonalization with overlap
     ethr =  6.19E-03,  avg # of iterations =  9.0

     negative rho (up, down):  3.600E-01 0.000E+00

     total cpu time spent up to now is       12.8 secs

     total energy              =      29.29993002 Ry
     Harris-Foulkes estimate   =     -92.21757429 Ry
     estimated scf accuracy    <      20.18360868 Ry

     iteration # 72     ecut=    30.00 Ry     beta=0.70
     Davidson diagonalization with overlap
     ethr =  6.19E-03,  avg # of iterations =  7.0

     negative rho (up, down):  1.899E-01 0.000E+00

     total cpu time spent up to now is       12.8 secs

     total energy              =       6.95153779 Ry
     Harris-Foulkes estimate   =    -329.76408504 Ry
     estimated scf accuracy    <       9.11160756 Ry

     iteration # 73     ecut=    30.00 Ry     beta=0.70
     Davidson diagonalization with overlap
     ethr =  6.19E-03,  avg # of iterations =  8.0

     negative rho (up, down):  1.018E-01 0.000E+00

     total cpu time spent up to now is       12.9 secs

     total energy              =      27.06099491 Ry
     Harris-Foulkes estimate   =    -168.74909652 Ry
     estimated scf accuracy    <       6.91399322 Ry

     iteration # 74     ecut=    30.00 Ry     beta=0.70
     Davidson diagonalization with overlap
     ethr =  6.19E-03,  avg # of iterations =  5.0

     negative rho (up, down):  5.026E-02 0.000E+00

     total cpu time spent up to now is       12.9 secs

     total energy              =    -118.76078570 Ry
     Harris-Foulkes estimate   =    -102.96304793 Ry
     estimated scf accuracy    <      10.14409171 Ry

     iteration # 75     ecut=    30.00 Ry     beta=0.70
     Davidson diagonalization with overlap
     ethr =  6.19E-03,  avg # of iterations =  5.0

     negative rho (up, down):  2.821E-02 0.000E+00

     total cpu time spent up to now is       13.0 secs

     total energy              =      62.28400263 Ry
     Harris-Foulkes estimate   =    -239.21754429 Ry
     estimated scf accuracy    <      13.85896376 Ry

     iteration # 76     ecut=    30.00 Ry     beta=0.70
     Davidson diagonalization with overlap
     ethr =  6.19E-03,  avg # of iterations =  5.0

     total cpu time spent up to now is       13.0 secs

     total energy              =      62.99667119 Ry
     Harris-Foulkes estimate   =    -207.80630389 Ry
     estimated scf accuracy    <      13.01933945 Ry

     iteration # 77     ecut=    30.00 Ry     beta=0.70
     Davidson diagonalization with overlap
     ethr =  6.19E-03,  avg # of iterations =  9.0

     negative rho (up, down):  2.301E-02 0.000E+00

     total cpu time spent up to now is       13.1 secs

     total energy              =     -25.28511896 Ry
     Harris-Foulkes estimate   =     -27.97765237 Ry
     estimated scf accuracy    <      20.87239779 Ry

     iteration # 78     ecut=    30.00 Ry     beta=0.70
     Davidson diagonalization with overlap
     ethr =  6.19E-03,  avg # of iterations =  9.0

     negative rho (up, down):  1.072E-05 0.000E+00

     total cpu time spent up to now is       13.1 secs

     total energy              =      85.66947483 Ry
     Harris-Foulkes estimate   =    -128.12035132 Ry
     estimated scf accuracy    <      24.93996968 Ry

     iteration # 79     ecut=    30.00 Ry     beta=0.70
     Davidson diagonalization with overlap
     ethr =  6.19E-03,  avg # of iterations =  4.0

     negative rho (up, down):  6.669E-02 0.000E+00

     total cpu time spent up to now is       13.2 secs

     total energy              =     -23.16739675 Ry
     Harris-Foulkes estimate   =     -26.01728267 Ry
     estimated scf accuracy    <      18.49060524 Ry

     iteration # 80     ecut=    30.00 Ry     beta=0.70
     Davidson diagonalization with overlap
     ethr =  6.19E-03,  avg # of iterations =  1.0

     negative rho (up, down):  1.811E-01 0.000E+00

     total cpu time spent up to now is       13.2 secs

     total energy              =     -21.86287222 Ry
     Harris-Foulkes estimate   =     -23.19148926 Ry
     estimated scf accuracy    <      14.37907686 Ry

     iteration # 81     ecut=    30.00 Ry     beta=0.70
     Davidson diagonalization with overlap
     ethr =  6.19E-03,  avg # of iterations =  5.0

     negative rho (up, down):  3.502E-03 0.000E+00

     total cpu time spent up to now is       13.2 secs

     total energy              =     154.30914716 Ry
     Harris-Foulkes estimate   =   -3984.29947971 Ry
     estimated scf accuracy    <      56.56527246 Ry

     iteration # 82     ecut=    30.00 Ry     beta=0.70
     Davidson diagonalization with overlap
     ethr =  6.19E-03,  avg # of iterations =  4.0

     negative rho (up, down):  6.389E-06 0.000E+00

     total cpu time spent up to now is       13.3 secs

     total energy              =      20.47931117 Ry
     Harris-Foulkes estimate   =    -178.31030152 Ry
     estimated scf accuracy    <       7.33510278 Ry

     iteration # 83     ecut=    30.00 Ry     beta=0.70
     Davidson diagonalization with overlap
     ethr =  6.19E-03,  avg # of iterations =  6.0

     negative rho (up, down):  4.035E-03 0.000E+00

     total cpu time spent up to now is       13.3 secs

     total energy              =     -21.06433238 Ry
     Harris-Foulkes estimate   =     -22.37557957 Ry
     estimated scf accuracy    <      14.01870981 Ry

     iteration # 84     ecut=    30.00 Ry     beta=0.70
     Davidson diagonalization with overlap
     ethr =  6.19E-03,  avg # of iterations =  1.0

     negative rho (up, down):  4.878E-01 0.000E+00

     total cpu time spent up to now is       13.4 secs

     total energy              =     -22.45544230 Ry
     Harris-Foulkes estimate   =     -21.06771956 Ry
     estimated scf accuracy    <      12.43870345 Ry

     iteration # 85     ecut=    30.00 Ry     beta=0.70
     Davidson diagonalization with overlap
     ethr =  6.19E-03,  avg # of iterations =  8.0

     negative rho (up, down):  1.909E-02 0.000E+00

     total cpu time spent up to now is       13.4 secs

     total energy              =     130.63338271 Ry
     Harris-Foulkes estimate   =  -14926.74901803 Ry
     estimated scf accuracy    <      68.45503709 Ry

     iteration # 86     ecut=    30.00 Ry     beta=0.70
     Davidson diagonalization with overlap
     ethr =  6.19E-03,  avg # of iterations = 12.0

     negative rho (up, down):  1.287E-02 0.000E+00

     total cpu time spent up to now is       13.5 secs

     total energy              =      -0.20794271 Ry
     Harris-Foulkes estimate   =     -51.96101586 Ry
     estimated scf accuracy    <       4.06553462 Ry

     iteration # 87     ecut=    30.00 Ry     beta=0.70
     Davidson diagonalization with overlap
     ethr =  6.19E-03,  avg # of iterations =  5.0

     negative rho (up, down):  2.435E-05 0.000E+00

     total cpu time spent up to now is       13.5 secs

     total energy              =      21.19209461 Ry
     Harris-Foulkes estimate   =    -139.16697586 Ry
     estimated scf accuracy    <       4.32087803 Ry

     iteration # 88     ecut=    30.00 Ry     beta=0.70
     Davidson diagonalization with overlap
     ethr =  6.19E-03,  avg # of iterations =  4.0

     negative rho (up, down):  3.934E-03 0.000E+00

     total cpu time spent up to now is       13.6 secs

     total energy              =     -19.79973938 Ry
     Harris-Foulkes estimate   =     -20.48513303 Ry
     estimated scf accuracy    <      11.48594048 Ry

     iteration # 89     ecut=    30.00 Ry     beta=0.70
     Davidson diagonalization with overlap
     ethr =  6.19E-03,  avg # of iterations =  1.0

     negative rho (up, down):  1.405E-02 0.000E+00

     total cpu time spent up to now is       13.6 secs

     total energy              =     -18.14325767 Ry
     Harris-Foulkes estimate   =     -19.80164205 Ry
     estimated scf accuracy    <      10.60435048 Ry

     iteration # 90     ecut=    30.00 Ry     beta=0.70
     Davidson diagonalization with overlap
     ethr =  6.19E-03,  avg # of iterations =  1.0

     negative rho (up, down):  8.351E-01 0.000E+00

     total cpu time spent up to now is       13.6 secs

     total energy              =     -13.56206472 Ry
     Harris-Foulkes estimate   =     -18.14475499 Ry
     estimated scf accuracy    <       8.43109679 Ry

     iteration # 91     ecut=    30.00 Ry     beta=0.70
     Davidson diagonalization with overlap
     ethr =  6.19E-03,  avg # of iterations = 11.0

     negative rho (up, down):  8.688E-02 0.000E+00

     total cpu time spent up to now is       13.7 secs

     total energy              =     108.22585534 Ry
     Harris-Foulkes estimate   =    -470.90701774 Ry
     estimated scf accuracy    <      99.26405551 Ry

     iteration # 92     ecut=    30.00 Ry     beta=0.70
     Davidson diagonalization with overlap
     ethr =  6.19E-03,  avg # of iterations =  9.0

     negative rho (up, down):  1.957E-01 0.000E+00

     total cpu time spent up to now is       13.8 secs

     total energy              =      -2.04033564 Ry
     Harris-Foulkes estimate   =     -30.43854536 Ry
     estimated scf accuracy    <      13.50673447 Ry

     iteration # 93     ecut=    30.00 Ry     beta=0.70
     Davidson diagonalization with overlap
     ethr =  6.19E-03,  avg # of iterations =  9.0

     negative rho (up, down):  3.445E-01 0.000E+00

     total cpu time spent up to now is       13.8 secs

     total energy              =    4640.06011157 Ry
     Harris-Foulkes estimate   =   -2662.78542351 Ry
     estimated scf accuracy    <      38.07810804 Ry

     iteration # 94     ecut=    30.00 Ry     beta=0.70
     Davidson diagonalization with overlap
     ethr =  6.19E-03,  avg # of iterations =  5.0

     negative rho (up, down):  1.408E-01 0.000E+00

     total cpu time spent up to now is       13.9 secs

     total energy              =     105.94523368 Ry
     Harris-Foulkes estimate   =    -319.00452454 Ry
     estimated scf accuracy    <      38.09687970 Ry

     iteration # 95     ecut=    30.00 Ry     beta=0.70
     Davidson diagonalization with overlap
     ethr =  6.19E-03,  avg # of iterations = 10.0

     negative rho (up, down):  1.821E-01 0.000E+00

     total cpu time spent up to now is       13.9 secs

     total energy              =      23.76141123 Ry
     Harris-Foulkes estimate   =   -1210.48740529 Ry
     estimated scf accuracy    <      46.01186628 Ry

     iteration # 96     ecut=    30.00 Ry     beta=0.70
     Davidson diagonalization with overlap
     ethr =  6.19E-03,  avg # of iterations =  5.0

     negative rho (up, down):  6.347E-03 0.000E+00

     total cpu time spent up to now is       14.0 secs

     total energy              =     115.23739052 Ry
     Harris-Foulkes estimate   =    -256.54669948 Ry
     estimated scf accuracy    <      72.85870710 Ry

     iteration # 97     ecut=    30.00 Ry     beta=0.70
     Davidson diagonalization with overlap
     ethr =  6.19E-03,  avg # of iterations =  9.0

     negative rho (up, down):  4.934E-03 0.000E+00

     total cpu time spent up to now is       14.0 secs

     total energy              =     -14.46010761 Ry
     Harris-Foulkes estimate   =     -14.33484700 Ry
     estimated scf accuracy    <       3.47781265 Ry

     iteration # 98     ecut=    30.00 Ry     beta=0.70
     Davidson diagonalization with overlap
     ethr =  6.19E-03,  avg # of iterations =  2.0

     negative rho (up, down):  2.161E-02 0.000E+00

     total cpu time spent up to now is       14.1 secs

     total energy              =     -13.73357522 Ry
     Harris-Foulkes estimate   =     -14.46635128 Ry
     estimated scf accuracy    <       3.76754087 Ry

     iteration # 99     ecut=    30.00 Ry     beta=0.70
     Davidson diagonalization with overlap
     ethr =  6.19E-03,  avg # of iterations =  6.0

     negative rho (up, down):  1.275E-02 0.000E+00

     total cpu time spent up to now is       14.1 secs

     total energy              =      81.99436466 Ry
     Harris-Foulkes estimate   =    -183.24702466 Ry
     estimated scf accuracy    <      70.28988087 Ry

     iteration #100     ecut=    30.00 Ry     beta=0.70
     Davidson diagonalization with overlap
     ethr =  6.19E-03,  avg # of iterations =  7.0

     negative rho (up, down):  4.147E-02 0.000E+00

     total cpu time spent up to now is       14.2 secs

     total energy              =     -46.14278600 Ry
     Harris-Foulkes estimate   =     -35.64671864 Ry
     estimated scf accuracy    <       5.44301985 Ry

     End of self-consistent calculation

     convergence NOT achieved after 100 iterations: stopping

     Writing output data file pwscf.save
 
     init_run     :      0.09s CPU      0.11s WALL (       1 calls)
     electrons    :     10.25s CPU     12.72s WALL (       6 calls)
     update_pot   :      0.58s CPU      0.82s WALL (       5 calls)
     forces       :      0.13s CPU      0.13s WALL (       5 calls)

     Called by init_run:
     wfcinit      :      0.02s CPU      0.02s WALL (       1 calls)
     potinit      :      0.02s CPU      0.03s WALL (       1 calls)

     Called by electrons:
     c_bands      :      4.73s CPU      5.01s WALL (     302 calls)
     sum_band     :      0.90s CPU      0.94s WALL (     302 calls)
     v_of_rho     :      2.23s CPU      2.38s WALL (     308 calls)
     mix_rho      :      2.12s CPU      3.61s WALL (     302 calls)

     Called by c_bands:
     init_us_2    :      0.03s CPU      0.04s WALL (     605 calls)
     cegterg      :      4.67s CPU      4.85s WALL (     302 calls)

     Called by sum_band:

     Called by *egterg:
     h_psi        :      3.90s CPU      4.05s WALL (    1464 calls)
     g_psi        :      0.04s CPU      0.04s WALL (    1161 calls)
     cdiaghg      :      0.29s CPU      0.29s WALL (    1458 calls)

     Called by h_psi:
     h_psi:pot    :      3.88s CPU      4.03s WALL (    1464 calls)
     h_psi:calbec :      0.07s CPU      0.12s WALL (    1464 calls)
     vloc_psi     :      3.79s CPU      3.89s WALL (    1464 calls)
     add_vuspsi   :      0.01s CPU      0.01s WALL (    1464 calls)

     General routines
     calbec       :      0.09s CPU      0.16s WALL (    1488 calls)
     fft          :      1.43s CPU      1.52s WALL (    3398 calls)
     fftw         :      3.99s CPU      4.10s WALL (   17786 calls)
     davcio       :      0.33s CPU      1.25s WALL (    5519 calls)
 
     Parallel routines
     fft_scatter  :      2.04s CPU      2.16s WALL (   21184 calls)
 
     PWSCF        :    11.27s CPU        14.29s WALL

 
   This run was terminated on:   8:53:40  14Feb2018            

=------------------------------------------------------------------------------=
   JOB DONE.
=------------------------------------------------------------------------------=
