
     Program PWSCF v.6.0 (svn rev. 13079) starts on 14Feb2018 at  8:53:54 

     This program is part of the open-source Quantum ESPRESSO suite
     for quantum simulation of materials; please cite
         "P. Giannozzi et al., J. Phys.:Condens. Matter 21 395502 (2009);
          URL http://www.quantum-espresso.org", 
     in publications or presentations arising from this work. More details at
     http://www.quantum-espresso.org/quote

     Parallel version (MPI), running on    28 processors
     R & G space division:  proc/nbgrp/npool/nimage =      28
     Reading input from inputs/MD-H2O-2/485.in

     Current dimensions of program PWSCF are:
     Max number of different atomic species (ntypx) = 10
     Max number of k-points (npk) =  40000
     Max angular momentum in pseudopotentials (lmaxx) =  3

     Subspace diagonalization in iterative solution of the eigenvalue problem:
     a serial algorithm will be used

 
     Parallelization info
     --------------------
     sticks:   dense  smooth     PW     G-vecs:    dense   smooth      PW
     Min         136     136     33                 6338     6338     787
     Max         137     137     34                 6341     6341     792
     Sum        3809    3809    949               177509   177509   22119
 


     bravais-lattice index     =            1
     lattice parameter (alat)  =      20.0000  a.u.
     unit-cell volume          =    8000.0000 (a.u.)^3
     number of atoms/cell      =            3
     number of atomic types    =            2
     number of electrons       =         8.00
     number of Kohn-Sham states=            8
     kinetic-energy cutoff     =      30.0000  Ry
     charge density cutoff     =     120.0000  Ry
     convergence threshold     =      1.0E-08
     mixing beta               =       0.7000
     number of iterations used =            8  plain     mixing
     Exchange-correlation      = BLYP ( 1  3  1  3 0 0)
     nstep                     =         5000


     celldm(1)=  20.000000  celldm(2)=   0.000000  celldm(3)=   0.000000
     celldm(4)=   0.000000  celldm(5)=   0.000000  celldm(6)=   0.000000

     crystal axes: (cart. coord. in units of alat)
               a(1) = (   1.000000   0.000000   0.000000 )  
               a(2) = (   0.000000   1.000000   0.000000 )  
               a(3) = (   0.000000   0.000000   1.000000 )  

     reciprocal axes: (cart. coord. in units 2 pi/alat)
               b(1) = (  1.000000  0.000000  0.000000 )  
               b(2) = (  0.000000  1.000000  0.000000 )  
               b(3) = (  0.000000  0.000000  1.000000 )  


     PseudoPot. # 1 for  H read from file:
     ./H.blyp-hgh.UPF
     MD5 check sum: c576e69559cde411e611be972c763230
     Pseudo is Norm-conserving, Zval =  1.0
     Generated in analytical, separable form
     Using radial grid of  929 points,  0 beta functions with: 

     PseudoPot. # 2 for  O read from file:
     ./O.blyp-hgh.UPF
     MD5 check sum: d0b7156309aa9befef28faac7bc56342
     Pseudo is Norm-conserving, Zval =  6.0
     Generated in analytical, separable form
     Using radial grid of 1095 points,  1 beta functions with: 
                l(1) =   0

     atomic species   valence    mass     pseudopotential
        H              1.00     1.01000      H( 1.00)
        O              6.00    16.00000      O( 1.00)

     No symmetry found



   Cartesian axes

     site n.     atom                  positions (alat units)
         1           H   tau(   1) = (  -0.1075943   0.8541540   0.8674730  )
         2           H   tau(   2) = (   0.6401720   0.0581033   0.5873057  )
         3           O   tau(   3) = (   0.9669916   0.8330032   0.9297968  )

     number of k points=     1  Marzari-Vanderbilt smearing, width (Ry)=  0.0250
                       cart. coord. in units 2pi/alat
        k(    1) = (   0.0000000   0.0000000   0.0000000), wk =   2.0000000

     Dense  grid:   177509 G-vectors     FFT dimensions: (  72,  72,  72)

     Estimated max dynamical RAM per process >       6.09Mb

     Estimated total allocated dynamical RAM >     170.64Mb

     Initial potential from superposition of free atoms
     Check: negative starting charge=   -0.348663

     starting charge    7.99998, renormalised to    8.00000

     negative rho (up, down):  3.487E-01 0.000E+00
     Starting wfc are    6 randomized atomic wfcs +    2 random wfc

     total cpu time spent up to now is        0.2 secs

     per-process dynamical memory:    18.8 Mb

     Self-consistent Calculation

     iteration #  1     ecut=    30.00 Ry     beta=0.70
     Davidson diagonalization with overlap
     ethr =  1.00E-02,  avg # of iterations =  9.0

     negative rho (up, down):  9.128E-02 0.000E+00

     total cpu time spent up to now is        0.3 secs

     total energy              =     -30.35434166 Ry
     Harris-Foulkes estimate   =     -32.23773044 Ry
     estimated scf accuracy    <       2.16581823 Ry

     iteration #  2     ecut=    30.00 Ry     beta=0.70
     Davidson diagonalization with overlap
     ethr =  1.00E-02,  avg # of iterations =  3.0

     negative rho (up, down):  6.648E-02 0.000E+00

     total cpu time spent up to now is        0.3 secs

     total energy              =     -32.28984167 Ry
     Harris-Foulkes estimate   =     -34.59108779 Ry
     estimated scf accuracy    <       5.61204293 Ry

     iteration #  3     ecut=    30.00 Ry     beta=0.70
     Davidson diagonalization with overlap
     ethr =  1.00E-02,  avg # of iterations =  3.0

     negative rho (up, down):  6.397E-02 0.000E+00

     total cpu time spent up to now is        0.4 secs

     total energy              =     -32.44058100 Ry
     Harris-Foulkes estimate   =     -32.52598088 Ry
     estimated scf accuracy    <       1.82334097 Ry

     iteration #  4     ecut=    30.00 Ry     beta=0.70
     Davidson diagonalization with overlap
     ethr =  1.00E-02,  avg # of iterations =  1.0

     negative rho (up, down):  1.255E-02 0.000E+00

     total cpu time spent up to now is        0.4 secs

     total energy              =     -31.29642780 Ry
     Harris-Foulkes estimate   =     -32.44091153 Ry
     estimated scf accuracy    <       1.70510875 Ry

     iteration #  5     ecut=    30.00 Ry     beta=0.70
     Davidson diagonalization with overlap
     ethr =  1.00E-02,  avg # of iterations =  3.0

     negative rho (up, down):  2.200E-02 0.000E+00

     total cpu time spent up to now is        0.4 secs

     total energy              =     -33.30589642 Ry
     Harris-Foulkes estimate   =     -33.18390645 Ry
     estimated scf accuracy    <       7.77518451 Ry

     iteration #  6     ecut=    30.00 Ry     beta=0.70
     Davidson diagonalization with overlap
     ethr =  1.00E-02,  avg # of iterations =  1.0

     negative rho (up, down):  1.439E-02 0.000E+00

     total cpu time spent up to now is        0.5 secs

     total energy              =     -32.84689054 Ry
     Harris-Foulkes estimate   =     -33.31577655 Ry
     estimated scf accuracy    <       9.22452759 Ry

     iteration #  7     ecut=    30.00 Ry     beta=0.70
     Davidson diagonalization with overlap
     ethr =  1.00E-02,  avg # of iterations =  1.0

     negative rho (up, down):  1.661E-02 0.000E+00

     total cpu time spent up to now is        0.5 secs

     total energy              =     -32.83453839 Ry
     Harris-Foulkes estimate   =     -32.95785485 Ry
     estimated scf accuracy    <       3.06932436 Ry

     iteration #  8     ecut=    30.00 Ry     beta=0.70
     Davidson diagonalization with overlap
     ethr =  1.00E-02,  avg # of iterations =  1.0

     negative rho (up, down):  7.599E-02 0.000E+00

     total cpu time spent up to now is        0.5 secs

     total energy              =     -32.22396251 Ry
     Harris-Foulkes estimate   =     -32.83583947 Ry
     estimated scf accuracy    <       2.82005446 Ry

     iteration #  9     ecut=    30.00 Ry     beta=0.70
     Davidson diagonalization with overlap
     ethr =  1.00E-02,  avg # of iterations =  1.0

     negative rho (up, down):  6.866E-02 0.000E+00

     total cpu time spent up to now is        0.6 secs

     total energy              =     -31.96107304 Ry
     Harris-Foulkes estimate   =     -32.24579612 Ry
     estimated scf accuracy    <       1.71599878 Ry

     iteration # 10     ecut=    30.00 Ry     beta=0.70
     Davidson diagonalization with overlap
     ethr =  1.00E-02,  avg # of iterations =  1.0

     negative rho (up, down):  4.309E-02 0.000E+00

     total cpu time spent up to now is        0.6 secs

     total energy              =     -32.32141999 Ry
     Harris-Foulkes estimate   =     -31.96645958 Ry
     estimated scf accuracy    <       1.43639574 Ry

     iteration # 11     ecut=    30.00 Ry     beta=0.70
     Davidson diagonalization with overlap
     ethr =  1.00E-02,  avg # of iterations =  1.0

     negative rho (up, down):  5.148E-02 0.000E+00

     total cpu time spent up to now is        0.6 secs

     total energy              =     -32.14416030 Ry
     Harris-Foulkes estimate   =     -32.30607981 Ry
     estimated scf accuracy    <       1.77869314 Ry

     iteration # 12     ecut=    30.00 Ry     beta=0.70
     Davidson diagonalization with overlap
     ethr =  1.00E-02,  avg # of iterations =  1.0

     negative rho (up, down):  1.041E-01 0.000E+00

     total cpu time spent up to now is        0.7 secs

     total energy              =     -31.77523646 Ry
     Harris-Foulkes estimate   =     -32.14592873 Ry
     estimated scf accuracy    <       1.52392132 Ry

     iteration # 13     ecut=    30.00 Ry     beta=0.70
     Davidson diagonalization with overlap
     ethr =  1.00E-02,  avg # of iterations =  1.0

     negative rho (up, down):  1.644E-01 0.000E+00

     total cpu time spent up to now is        0.7 secs

     total energy              =     -32.02111645 Ry
     Harris-Foulkes estimate   =     -32.06541659 Ry
     estimated scf accuracy    <       1.00331840 Ry

     iteration # 14     ecut=    30.00 Ry     beta=0.70
     Davidson diagonalization with overlap
     ethr =  1.00E-02,  avg # of iterations =  1.0

     negative rho (up, down):  9.110E-02 0.000E+00

     total cpu time spent up to now is        0.8 secs

     total energy              =     -32.15588149 Ry
     Harris-Foulkes estimate   =     -32.02147339 Ry
     estimated scf accuracy    <       0.94109746 Ry

     iteration # 15     ecut=    30.00 Ry     beta=0.70
     Davidson diagonalization with overlap
     ethr =  1.00E-02,  avg # of iterations =  1.0

     negative rho (up, down):  4.682E-02 0.000E+00

     total cpu time spent up to now is        0.8 secs

     total energy              =     -32.25520921 Ry
     Harris-Foulkes estimate   =     -32.15822413 Ry
     estimated scf accuracy    <       1.14450078 Ry

     iteration # 16     ecut=    30.00 Ry     beta=0.70
     Davidson diagonalization with overlap
     ethr =  1.00E-02,  avg # of iterations =  1.0

     negative rho (up, down):  1.176E-02 0.000E+00

     total cpu time spent up to now is        0.8 secs

     total energy              =     -32.28778932 Ry
     Harris-Foulkes estimate   =     -32.25646406 Ry
     estimated scf accuracy    <       1.30217049 Ry

     iteration # 17     ecut=    30.00 Ry     beta=0.70
     Davidson diagonalization with overlap
     ethr =  1.00E-02,  avg # of iterations =  1.0

     negative rho (up, down):  8.146E-06 0.000E+00

     total cpu time spent up to now is        0.9 secs

     total energy              =     -32.15955199 Ry
     Harris-Foulkes estimate   =     -32.28873843 Ry
     estimated scf accuracy    <       1.37763853 Ry

     iteration # 18     ecut=    30.00 Ry     beta=0.70
     Davidson diagonalization with overlap
     ethr =  1.00E-02,  avg # of iterations =  1.0

     negative rho (up, down):  1.158E-05 0.000E+00

     total cpu time spent up to now is        0.9 secs

     total energy              =     -32.13541809 Ry
     Harris-Foulkes estimate   =     -32.15980066 Ry
     estimated scf accuracy    <       1.21441252 Ry

     iteration # 19     ecut=    30.00 Ry     beta=0.70
     Davidson diagonalization with overlap
     ethr =  1.00E-02,  avg # of iterations =  1.0

     negative rho (up, down):  5.023E-04 0.000E+00

     total cpu time spent up to now is        0.9 secs

     total energy              =     -31.97446542 Ry
     Harris-Foulkes estimate   =     -32.13547885 Ry
     estimated scf accuracy    <       1.17630052 Ry

     iteration # 20     ecut=    30.00 Ry     beta=0.70
     Davidson diagonalization with overlap
     ethr =  1.00E-02,  avg # of iterations =  1.0

     negative rho (up, down):  1.325E-03 0.000E+00

     total cpu time spent up to now is        0.9 secs

     total energy              =     -31.86056273 Ry
     Harris-Foulkes estimate   =     -31.97591192 Ry
     estimated scf accuracy    <       0.91160801 Ry

     iteration # 21     ecut=    30.00 Ry     beta=0.70
     Davidson diagonalization with overlap
     ethr =  1.00E-02,  avg # of iterations =  1.0

     negative rho (up, down):  1.292E-04 0.000E+00

     total cpu time spent up to now is        1.0 secs

     total energy              =     -31.78081072 Ry
     Harris-Foulkes estimate   =     -32.02106549 Ry
     estimated scf accuracy    <       1.28208810 Ry

     iteration # 22     ecut=    30.00 Ry     beta=0.70
     Davidson diagonalization with overlap
     ethr =  1.00E-02,  avg # of iterations =  1.0

     negative rho (up, down):  1.244E-04 0.000E+00

     total cpu time spent up to now is        1.0 secs

     total energy              =     -32.08003859 Ry
     Harris-Foulkes estimate   =     -32.07689556 Ry
     estimated scf accuracy    <       1.07379664 Ry

     iteration # 23     ecut=    30.00 Ry     beta=0.70
     Davidson diagonalization with overlap
     ethr =  1.00E-02,  avg # of iterations =  1.0

     negative rho (up, down):  5.161E-04 0.000E+00

     total cpu time spent up to now is        1.1 secs

     total energy              =     -32.07779578 Ry
     Harris-Foulkes estimate   =     -32.08017376 Ry
     estimated scf accuracy    <       1.08165906 Ry

     iteration # 24     ecut=    30.00 Ry     beta=0.70
     Davidson diagonalization with overlap
     ethr =  1.00E-02,  avg # of iterations =  1.0

     negative rho (up, down):  2.784E-04 0.000E+00

     total cpu time spent up to now is        1.1 secs

     total energy              =     -32.13701861 Ry
     Harris-Foulkes estimate   =     -32.07781026 Ry
     estimated scf accuracy    <       1.08222401 Ry

     iteration # 25     ecut=    30.00 Ry     beta=0.70
     Davidson diagonalization with overlap
     ethr =  1.00E-02,  avg # of iterations =  1.0

     negative rho (up, down):  1.497E-04 0.000E+00

     total cpu time spent up to now is        1.1 secs

     total energy              =     -32.17993914 Ry
     Harris-Foulkes estimate   =     -32.13720929 Ry
     estimated scf accuracy    <       1.17106708 Ry

     iteration # 26     ecut=    30.00 Ry     beta=0.70
     Davidson diagonalization with overlap
     ethr =  1.00E-02,  avg # of iterations =  1.0

     negative rho (up, down):  1.772E-04 0.000E+00

     total cpu time spent up to now is        1.1 secs

     total energy              =     -32.35162284 Ry
     Harris-Foulkes estimate   =     -32.18002881 Ry
     estimated scf accuracy    <       1.23498661 Ry

     iteration # 27     ecut=    30.00 Ry     beta=0.70
     Davidson diagonalization with overlap
     ethr =  1.00E-02,  avg # of iterations =  1.0

     negative rho (up, down):  6.656E-04 0.000E+00

     total cpu time spent up to now is        1.2 secs

     total energy              =     -31.61757474 Ry
     Harris-Foulkes estimate   =     -32.36064837 Ry
     estimated scf accuracy    <       1.48061098 Ry

     iteration # 28     ecut=    30.00 Ry     beta=0.70
     Davidson diagonalization with overlap
     ethr =  1.00E-02,  avg # of iterations =  2.0

     negative rho (up, down):  9.064E-04 0.000E+00

     total cpu time spent up to now is        1.2 secs

     total energy              =     -32.47491432 Ry
     Harris-Foulkes estimate   =     -32.39291942 Ry
     estimated scf accuracy    <       1.89434718 Ry

     iteration # 29     ecut=    30.00 Ry     beta=0.70
     Davidson diagonalization with overlap
     ethr =  1.00E-02,  avg # of iterations =  1.0

     negative rho (up, down):  7.145E-04 0.000E+00

     total cpu time spent up to now is        1.2 secs

     total energy              =     -32.45932422 Ry
     Harris-Foulkes estimate   =     -32.47623415 Ry
     estimated scf accuracy    <       2.03739267 Ry

     iteration # 30     ecut=    30.00 Ry     beta=0.70
     Davidson diagonalization with overlap
     ethr =  1.00E-02,  avg # of iterations =  1.0

     negative rho (up, down):  1.607E-03 0.000E+00

     total cpu time spent up to now is        1.3 secs

     total energy              =     -32.93841295 Ry
     Harris-Foulkes estimate   =     -32.45944782 Ry
     estimated scf accuracy    <       2.02260566 Ry

     iteration # 31     ecut=    30.00 Ry     beta=0.70
     Davidson diagonalization with overlap
     ethr =  1.00E-02,  avg # of iterations =  1.0

     negative rho (up, down):  4.171E-04 0.000E+00

     total cpu time spent up to now is        1.3 secs

     total energy              =     -32.09236433 Ry
     Harris-Foulkes estimate   =     -32.94902838 Ry
     estimated scf accuracy    <       2.91671554 Ry

     iteration # 32     ecut=    30.00 Ry     beta=0.70
     Davidson diagonalization with overlap
     ethr =  1.00E-02,  avg # of iterations =  1.0

     negative rho (up, down):  2.286E-05 0.000E+00

     total cpu time spent up to now is        1.3 secs

     total energy              =     -31.95082227 Ry
     Harris-Foulkes estimate   =     -32.12468656 Ry
     estimated scf accuracy    <       1.48597829 Ry

     iteration # 33     ecut=    30.00 Ry     beta=0.70
     Davidson diagonalization with overlap
     ethr =  1.00E-02,  avg # of iterations =  1.0

     negative rho (up, down):  4.774E-05 0.000E+00

     total cpu time spent up to now is        1.4 secs

     total energy              =     -31.91934374 Ry
     Harris-Foulkes estimate   =     -31.95334068 Ry
     estimated scf accuracy    <       0.61297929 Ry

     iteration # 34     ecut=    30.00 Ry     beta=0.70
     Davidson diagonalization with overlap
     ethr =  7.66E-03,  avg # of iterations =  1.0

     negative rho (up, down):  3.076E-05 0.000E+00

     total cpu time spent up to now is        1.4 secs

     total energy              =     -31.93941839 Ry
     Harris-Foulkes estimate   =     -31.95572756 Ry
     estimated scf accuracy    <       0.53053183 Ry

     iteration # 35     ecut=    30.00 Ry     beta=0.70
     Davidson diagonalization with overlap
     ethr =  6.63E-03,  avg # of iterations =  1.0

     negative rho (up, down):  1.557E-04 0.000E+00

     total cpu time spent up to now is        1.4 secs

     total energy              =     -31.95387682 Ry
     Harris-Foulkes estimate   =     -31.94591019 Ry
     estimated scf accuracy    <       0.00525778 Ry

     iteration # 36     ecut=    30.00 Ry     beta=0.70
     Davidson diagonalization with overlap
     ethr =  6.57E-05,  avg # of iterations =  4.0

     negative rho (up, down):  3.721E-04 0.000E+00

     total cpu time spent up to now is        1.5 secs

     total energy              =     -32.07777636 Ry
     Harris-Foulkes estimate   =     -32.01243740 Ry
     estimated scf accuracy    <       0.99542882 Ry

     iteration # 37     ecut=    30.00 Ry     beta=0.70
     Davidson diagonalization with overlap
     ethr =  6.57E-05,  avg # of iterations =  1.0

     negative rho (up, down):  3.830E-05 0.000E+00

     total cpu time spent up to now is        1.6 secs

     total energy              =     -31.75995323 Ry
     Harris-Foulkes estimate   =     -32.07797808 Ry
     estimated scf accuracy    <       1.09300030 Ry

     iteration # 38     ecut=    30.00 Ry     beta=0.70
     Davidson diagonalization with overlap
     ethr =  6.57E-05,  avg # of iterations =  5.0

     negative rho (up, down):  2.579E-05 0.000E+00

     total cpu time spent up to now is        1.6 secs

     total energy              =     -32.14464234 Ry
     Harris-Foulkes estimate   =     -32.15486754 Ry
     estimated scf accuracy    <       1.49662263 Ry

     iteration # 39     ecut=    30.00 Ry     beta=0.70
     Davidson diagonalization with overlap
     ethr =  6.57E-05,  avg # of iterations =  1.0

     negative rho (up, down):  5.723E-06 0.000E+00

     total cpu time spent up to now is        1.7 secs

     total energy              =     -32.07763297 Ry
     Harris-Foulkes estimate   =     -32.14465702 Ry
     estimated scf accuracy    <       1.47959036 Ry

     iteration # 40     ecut=    30.00 Ry     beta=0.70
     Davidson diagonalization with overlap
     ethr =  6.57E-05,  avg # of iterations =  2.0

     negative rho (up, down):  1.325E-06 0.000E+00

     total cpu time spent up to now is        1.7 secs

     total energy              =     -32.04027813 Ry
     Harris-Foulkes estimate   =     -32.07797715 Ry
     estimated scf accuracy    <       1.36682116 Ry

     iteration # 41     ecut=    30.00 Ry     beta=0.70
     Davidson diagonalization with overlap
     ethr =  6.57E-05,  avg # of iterations =  1.0

     negative rho (up, down):  2.312E-07 0.000E+00

     total cpu time spent up to now is        1.7 secs

     total energy              =     -31.99959658 Ry
     Harris-Foulkes estimate   =     -32.04040686 Ry
     estimated scf accuracy    <       1.30263745 Ry

     iteration # 42     ecut=    30.00 Ry     beta=0.70
     Davidson diagonalization with overlap
     ethr =  6.57E-05,  avg # of iterations =  3.0

     negative rho (up, down):  2.656E-06 0.000E+00

     total cpu time spent up to now is        1.7 secs

     total energy              =     -32.07547372 Ry
     Harris-Foulkes estimate   =     -31.99920640 Ry
     estimated scf accuracy    <       1.39059858 Ry

     iteration # 43     ecut=    30.00 Ry     beta=0.70
     Davidson diagonalization with overlap
     ethr =  6.57E-05,  avg # of iterations =  2.0

     negative rho (up, down):  7.246E-06 0.000E+00

     total cpu time spent up to now is        1.8 secs

     total energy              =     -32.01146977 Ry
     Harris-Foulkes estimate   =     -32.07211793 Ry
     estimated scf accuracy    <       1.35439587 Ry

     iteration # 44     ecut=    30.00 Ry     beta=0.70
     Davidson diagonalization with overlap
     ethr =  6.57E-05,  avg # of iterations =  2.0

     total cpu time spent up to now is        1.8 secs

     total energy              =     -31.80052094 Ry
     Harris-Foulkes estimate   =     -32.01166375 Ry
     estimated scf accuracy    <       1.29593444 Ry

     iteration # 45     ecut=    30.00 Ry     beta=0.70
     Davidson diagonalization with overlap
     ethr =  6.57E-05,  avg # of iterations =  4.0

     total cpu time spent up to now is        1.9 secs

     total energy              =     -31.93561561 Ry
     Harris-Foulkes estimate   =     -32.05380168 Ry
     estimated scf accuracy    <       1.04893002 Ry

     iteration # 46     ecut=    30.00 Ry     beta=0.70
     Davidson diagonalization with overlap
     ethr =  6.57E-05,  avg # of iterations =  3.0

     negative rho (up, down):  8.890E-08 0.000E+00

     total cpu time spent up to now is        1.9 secs

     total energy              =     -31.93272193 Ry
     Harris-Foulkes estimate   =     -31.94660931 Ry
     estimated scf accuracy    <       0.04815783 Ry

     iteration # 47     ecut=    30.00 Ry     beta=0.70
     Davidson diagonalization with overlap
     ethr =  6.57E-05,  avg # of iterations =  2.0

     total cpu time spent up to now is        1.9 secs

     total energy              =     -31.86426079 Ry
     Harris-Foulkes estimate   =     -32.00492468 Ry
     estimated scf accuracy    <       1.33306001 Ry

     iteration # 48     ecut=    30.00 Ry     beta=0.70
     Davidson diagonalization with overlap
     ethr =  6.57E-05,  avg # of iterations =  2.0

     total cpu time spent up to now is        2.0 secs

     total energy              =     -31.93473119 Ry
     Harris-Foulkes estimate   =     -31.98976301 Ry
     estimated scf accuracy    <       0.94826457 Ry

     iteration # 49     ecut=    30.00 Ry     beta=0.70
     Davidson diagonalization with overlap
     ethr =  6.57E-05,  avg # of iterations =  1.0

     total cpu time spent up to now is        2.0 secs

     total energy              =     -31.94846318 Ry
     Harris-Foulkes estimate   =     -31.94623237 Ry
     estimated scf accuracy    <       0.02566768 Ry

     iteration # 50     ecut=    30.00 Ry     beta=0.70
     Davidson diagonalization with overlap
     ethr =  6.57E-05,  avg # of iterations =  1.0

     total cpu time spent up to now is        2.0 secs

     total energy              =     -31.94136896 Ry
     Harris-Foulkes estimate   =     -31.95144101 Ry
     estimated scf accuracy    <       0.33863792 Ry

     iteration # 51     ecut=    30.00 Ry     beta=0.70
     Davidson diagonalization with overlap
     ethr =  6.57E-05,  avg # of iterations =  1.0

     total cpu time spent up to now is        2.1 secs

     total energy              =     -31.94588915 Ry
     Harris-Foulkes estimate   =     -31.94589011 Ry
     estimated scf accuracy    <       0.00025719 Ry

     iteration # 52     ecut=    30.00 Ry     beta=0.70
     Davidson diagonalization with overlap
     ethr =  3.21E-06,  avg # of iterations =  1.0

     total cpu time spent up to now is        2.1 secs

     total energy              =     -31.94594116 Ry
     Harris-Foulkes estimate   =     -31.94589022 Ry
     estimated scf accuracy    <       0.00030634 Ry

     iteration # 53     ecut=    30.00 Ry     beta=0.70
     Davidson diagonalization with overlap
     ethr =  3.21E-06,  avg # of iterations =  1.0

     total cpu time spent up to now is        2.1 secs

     total energy              =     -31.94605113 Ry
     Harris-Foulkes estimate   =     -31.94609820 Ry
     estimated scf accuracy    <       0.01565697 Ry

     iteration # 54     ecut=    30.00 Ry     beta=0.70
     Davidson diagonalization with overlap
     ethr =  3.21E-06,  avg # of iterations =  1.0

     total cpu time spent up to now is        2.2 secs

     total energy              =     -31.94551191 Ry
     Harris-Foulkes estimate   =     -31.94605363 Ry
     estimated scf accuracy    <       0.01245179 Ry

     iteration # 55     ecut=    30.00 Ry     beta=0.70
     Davidson diagonalization with overlap
     ethr =  3.21E-06,  avg # of iterations =  1.0

     total cpu time spent up to now is        2.2 secs

     total energy              =     -31.95022244 Ry
     Harris-Foulkes estimate   =     -31.94595982 Ry
     estimated scf accuracy    <       0.00588091 Ry

     iteration # 56     ecut=    30.00 Ry     beta=0.70
     Davidson diagonalization with overlap
     ethr =  3.21E-06,  avg # of iterations =  4.0

     negative rho (up, down):  1.032E-08 0.000E+00

     total cpu time spent up to now is        2.3 secs

     total energy              =     -31.91322437 Ry
     Harris-Foulkes estimate   =     -31.98647363 Ry
     estimated scf accuracy    <       1.56367506 Ry

     iteration # 57     ecut=    30.00 Ry     beta=0.70
     Davidson diagonalization with overlap
     ethr =  3.21E-06,  avg # of iterations =  4.0

     total cpu time spent up to now is        2.3 secs

     total energy              =     -31.94010637 Ry
     Harris-Foulkes estimate   =     -31.94797720 Ry
     estimated scf accuracy    <       0.14082903 Ry

     iteration # 58     ecut=    30.00 Ry     beta=0.70
     Davidson diagonalization with overlap
     ethr =  3.21E-06,  avg # of iterations =  2.0

     total cpu time spent up to now is        2.3 secs

     total energy              =     -31.94708262 Ry
     Harris-Foulkes estimate   =     -31.94819660 Ry
     estimated scf accuracy    <       0.18447523 Ry

     iteration # 59     ecut=    30.00 Ry     beta=0.70
     Davidson diagonalization with overlap
     ethr =  3.21E-06,  avg # of iterations =  1.0

     total cpu time spent up to now is        2.4 secs

     total energy              =     -31.94627815 Ry
     Harris-Foulkes estimate   =     -31.94721493 Ry
     estimated scf accuracy    <       0.10690491 Ry

     iteration # 60     ecut=    30.00 Ry     beta=0.70
     Davidson diagonalization with overlap
     ethr =  3.21E-06,  avg # of iterations =  1.0

     total cpu time spent up to now is        2.4 secs

     total energy              =     -31.94618581 Ry
     Harris-Foulkes estimate   =     -31.94644185 Ry
     estimated scf accuracy    <       0.04483795 Ry

     iteration # 61     ecut=    30.00 Ry     beta=0.70
     Davidson diagonalization with overlap
     ethr =  3.21E-06,  avg # of iterations =  1.0

     total cpu time spent up to now is        2.4 secs

     total energy              =     -31.94561784 Ry
     Harris-Foulkes estimate   =     -31.94621455 Ry
     estimated scf accuracy    <       0.02677035 Ry

     iteration # 62     ecut=    30.00 Ry     beta=0.70
     Davidson diagonalization with overlap
     ethr =  3.21E-06,  avg # of iterations =  1.0

     total cpu time spent up to now is        2.5 secs

     total energy              =     -31.94585580 Ry
     Harris-Foulkes estimate   =     -31.94588213 Ry
     estimated scf accuracy    <       0.00034571 Ry

     iteration # 63     ecut=    30.00 Ry     beta=0.70
     Davidson diagonalization with overlap
     ethr =  3.21E-06,  avg # of iterations =  1.0

     total cpu time spent up to now is        2.5 secs

     total energy              =     -31.94588008 Ry
     Harris-Foulkes estimate   =     -31.94590017 Ry
     estimated scf accuracy    <       0.00161327 Ry

     iteration # 64     ecut=    30.00 Ry     beta=0.70
     Davidson diagonalization with overlap
     ethr =  3.21E-06,  avg # of iterations =  1.0

     total cpu time spent up to now is        2.5 secs

     total energy              =     -31.94588788 Ry
     Harris-Foulkes estimate   =     -31.94588473 Ry
     estimated scf accuracy    <       0.00044996 Ry

     iteration # 65     ecut=    30.00 Ry     beta=0.70
     Davidson diagonalization with overlap
     ethr =  3.21E-06,  avg # of iterations =  1.0

     total cpu time spent up to now is        2.6 secs

     total energy              =     -31.94586972 Ry
     Harris-Foulkes estimate   =     -31.94588828 Ry
     estimated scf accuracy    <       0.00071731 Ry

     iteration # 66     ecut=    30.00 Ry     beta=0.70
     Davidson diagonalization with overlap
     ethr =  3.21E-06,  avg # of iterations =  1.0

     total cpu time spent up to now is        2.6 secs

     total energy              =     -31.94587868 Ry
     Harris-Foulkes estimate   =     -31.94587871 Ry
     estimated scf accuracy    <       0.00000009 Ry

     iteration # 67     ecut=    30.00 Ry     beta=0.70
     Davidson diagonalization with overlap
     ethr =  1.08E-09,  avg # of iterations =  1.0

     total cpu time spent up to now is        2.6 secs

     total energy              =     -31.94587872 Ry
     Harris-Foulkes estimate   =     -31.94587869 Ry
     estimated scf accuracy    <       0.00000004 Ry

     iteration # 68     ecut=    30.00 Ry     beta=0.70
     Davidson diagonalization with overlap
     ethr =  4.85E-10,  avg # of iterations =  1.0

     total cpu time spent up to now is        2.7 secs

     End of self-consistent calculation

          k = 0.0000 0.0000 0.0000 ( 22119 PWs)   bands (ev):

   -24.8409 -10.6868  -7.0944  -7.0936  -6.9562  -0.7347   0.2539   0.8263

     the Fermi energy is    -6.9242 ev

!    total energy              =     -31.94587874 Ry
     Harris-Foulkes estimate   =     -31.94587872 Ry
     estimated scf accuracy    <          1.7E-09 Ry

     convergence has been achieved in  68 iterations

     Forces acting on atoms (Ry/au):

     atom    1 type  1   force =    -0.01177979    0.00331913   -0.01017621
     atom    2 type  1   force =     0.00014341    0.00009922    0.00012582
     atom    3 type  2   force =     0.01163638   -0.00341834    0.01005039

     Total force =     0.022394     Total SCF correction =     0.000065

     Molecular Dynamics Calculation

     Starting temperature  =  1000.00 K

     temperature is controlled by Andersen thermostat
     Collision frequency = 1.0000/timestep
     mass H                =     1.01
     mass O                =    16.00
     Time step             =   100.00 a.u.,  4.8378 femto-seconds

     Entering Dynamics:    iteration =     1
                           time      =   0.0048 pico-seconds


     Andersen thermostat:    3 collisions

ATOMIC_POSITIONS (bohr)
H       -2.584053234  17.116447485  17.607237190
H       12.841204635   1.232503201  12.033984933
O       19.364727727  16.653510329  18.561491899


     kinetic energy (Ekin) =     0.01623191 Ry
     temperature           =   854.27099284 K 
     Ekin + Etot (const)   =   -31.92964683 Ry

     Linear momentum :    0.0000000000    0.0000000000    0.0000000000

     Writing output data file pwscf.save
     Check: negative starting charge=   -0.348663
     NEW-OLD atomic charge density approx. for the potential
     Check: negative starting charge=   -0.348368

     negative rho (up, down):  8.728E-02 0.000E+00

     total cpu time spent up to now is        2.9 secs

     per-process dynamical memory:    20.4 Mb

     Self-consistent Calculation

     iteration #  1     ecut=    30.00 Ry     beta=0.70
     Davidson diagonalization with overlap
     c_bands:  1 eigenvalues not converged
     ethr =  1.00E-06,  avg # of iterations = 20.0

     negative rho (up, down):  2.120E-02 0.000E+00

     total cpu time spent up to now is        3.1 secs

     total energy              =     -31.34562797 Ry
     Harris-Foulkes estimate   =     -31.87106549 Ry
     estimated scf accuracy    <       0.71422081 Ry

     iteration #  2     ecut=    30.00 Ry     beta=0.70
     Davidson diagonalization with overlap
     ethr =  8.93E-03,  avg # of iterations =  3.0

     negative rho (up, down):  1.639E-02 0.000E+00

     total cpu time spent up to now is        3.1 secs

     total energy              =     -32.12892569 Ry
     Harris-Foulkes estimate   =     -33.33331621 Ry
     estimated scf accuracy    <       3.49535905 Ry

     iteration #  3     ecut=    30.00 Ry     beta=0.70
     Davidson diagonalization with overlap
     ethr =  8.93E-03,  avg # of iterations =  2.0

     negative rho (up, down):  1.442E-02 0.000E+00

     total cpu time spent up to now is        3.1 secs

     total energy              =     -32.07147042 Ry
     Harris-Foulkes estimate   =     -32.24546556 Ry
     estimated scf accuracy    <       1.36395538 Ry

     iteration #  4     ecut=    30.00 Ry     beta=0.70
     Davidson diagonalization with overlap
     ethr =  8.93E-03,  avg # of iterations =  1.0

     negative rho (up, down):  9.289E-03 0.000E+00

     total cpu time spent up to now is        3.2 secs

     total energy              =     -31.66814554 Ry
     Harris-Foulkes estimate   =     -32.06425404 Ry
     estimated scf accuracy    <       1.13150146 Ry

     iteration #  5     ecut=    30.00 Ry     beta=0.70
     Davidson diagonalization with overlap
     ethr =  8.93E-03,  avg # of iterations =  2.0

     negative rho (up, down):  2.925E-03 0.000E+00

     total cpu time spent up to now is        3.2 secs

     total energy              =     -32.22065140 Ry
     Harris-Foulkes estimate   =     -32.22841876 Ry
     estimated scf accuracy    <       1.66884853 Ry

     iteration #  6     ecut=    30.00 Ry     beta=0.70
     Davidson diagonalization with overlap
     ethr =  8.93E-03,  avg # of iterations =  1.0

     negative rho (up, down):  8.879E-04 0.000E+00

     total cpu time spent up to now is        3.2 secs

     total energy              =     -31.98128588 Ry
     Harris-Foulkes estimate   =     -32.22101037 Ry
     estimated scf accuracy    <       1.64720139 Ry

     iteration #  7     ecut=    30.00 Ry     beta=0.70
     Davidson diagonalization with overlap
     ethr =  8.93E-03,  avg # of iterations =  1.0

     negative rho (up, down):  2.187E-04 0.000E+00

     total cpu time spent up to now is        3.3 secs

     total energy              =     -31.92305567 Ry
     Harris-Foulkes estimate   =     -31.98552007 Ry
     estimated scf accuracy    <       1.34716961 Ry

     iteration #  8     ecut=    30.00 Ry     beta=0.70
     Davidson diagonalization with overlap
     ethr =  8.93E-03,  avg # of iterations =  1.0

     negative rho (up, down):  1.200E-04 0.000E+00

     total cpu time spent up to now is        3.3 secs

     total energy              =     -31.91976545 Ry
     Harris-Foulkes estimate   =     -31.92995393 Ry
     estimated scf accuracy    <       0.10558147 Ry

     iteration #  9     ecut=    30.00 Ry     beta=0.70
     Davidson diagonalization with overlap
     ethr =  1.32E-03,  avg # of iterations =  1.0

     negative rho (up, down):  2.428E-05 0.000E+00

     total cpu time spent up to now is        3.3 secs

     total energy              =     -31.90446660 Ry
     Harris-Foulkes estimate   =     -31.93852309 Ry
     estimated scf accuracy    <       0.52993142 Ry

     iteration # 10     ecut=    30.00 Ry     beta=0.70
     Davidson diagonalization with overlap
     ethr =  1.32E-03,  avg # of iterations =  1.0

     negative rho (up, down):  2.527E-06 0.000E+00

     total cpu time spent up to now is        3.4 secs

     total energy              =     -31.96868187 Ry
     Harris-Foulkes estimate   =     -31.93931099 Ry
     estimated scf accuracy    <       0.79865003 Ry

     iteration # 11     ecut=    30.00 Ry     beta=0.70
     Davidson diagonalization with overlap
     ethr =  1.32E-03,  avg # of iterations =  1.0

     negative rho (up, down):  8.182E-08 0.000E+00

     total cpu time spent up to now is        3.4 secs

     total energy              =     -31.94236377 Ry
     Harris-Foulkes estimate   =     -31.97739352 Ry
     estimated scf accuracy    <       1.43284597 Ry

     iteration # 12     ecut=    30.00 Ry     beta=0.70
     Davidson diagonalization with overlap
     ethr =  1.32E-03,  avg # of iterations =  1.0

     total cpu time spent up to now is        3.4 secs

     total energy              =     -31.93526373 Ry
     Harris-Foulkes estimate   =     -31.94216130 Ry
     estimated scf accuracy    <       0.98158537 Ry

     iteration # 13     ecut=    30.00 Ry     beta=0.70
     Davidson diagonalization with overlap
     ethr =  1.32E-03,  avg # of iterations =  1.0

     negative rho (up, down):  7.072E-06 0.000E+00

     total cpu time spent up to now is        3.5 secs

     total energy              =     -31.93021995 Ry
     Harris-Foulkes estimate   =     -31.93603168 Ry
     estimated scf accuracy    <       0.57865309 Ry

     iteration # 14     ecut=    30.00 Ry     beta=0.70
     Davidson diagonalization with overlap
     ethr =  1.32E-03,  avg # of iterations =  1.0

     negative rho (up, down):  2.096E-06 0.000E+00

     total cpu time spent up to now is        3.5 secs

     total energy              =     -31.93139455 Ry
     Harris-Foulkes estimate   =     -31.93131269 Ry
     estimated scf accuracy    <       0.21805907 Ry

     iteration # 15     ecut=    30.00 Ry     beta=0.70
     Davidson diagonalization with overlap
     ethr =  1.32E-03,  avg # of iterations =  1.0

     negative rho (up, down):  4.592E-08 0.000E+00

     total cpu time spent up to now is        3.5 secs

     total energy              =     -31.92322334 Ry
     Harris-Foulkes estimate   =     -31.93139646 Ry
     estimated scf accuracy    <       0.22431694 Ry

     iteration # 16     ecut=    30.00 Ry     beta=0.70
     Davidson diagonalization with overlap
     ethr =  1.32E-03,  avg # of iterations =  1.0

     total cpu time spent up to now is        3.6 secs

     total energy              =     -31.92905697 Ry
     Harris-Foulkes estimate   =     -31.92919749 Ry
     estimated scf accuracy    <       0.04341776 Ry

     iteration # 17     ecut=    30.00 Ry     beta=0.70
     Davidson diagonalization with overlap
     ethr =  5.43E-04,  avg # of iterations =  1.0

     total cpu time spent up to now is        3.6 secs

     total energy              =     -31.92833762 Ry
     Harris-Foulkes estimate   =     -31.92906609 Ry
     estimated scf accuracy    <       0.03400331 Ry

     iteration # 18     ecut=    30.00 Ry     beta=0.70
     Davidson diagonalization with overlap
     ethr =  4.25E-04,  avg # of iterations =  1.0

     negative rho (up, down):  3.430E-08 0.000E+00

     total cpu time spent up to now is        3.6 secs

     total energy              =     -31.92841733 Ry
     Harris-Foulkes estimate   =     -31.92862172 Ry
     estimated scf accuracy    <       0.00138754 Ry

     iteration # 19     ecut=    30.00 Ry     beta=0.70
     Davidson diagonalization with overlap
     ethr =  1.73E-05,  avg # of iterations =  6.0

     total cpu time spent up to now is        3.7 secs

     total energy              =     -31.92821483 Ry
     Harris-Foulkes estimate   =     -31.92904527 Ry
     estimated scf accuracy    <       0.03516264 Ry

     iteration # 20     ecut=    30.00 Ry     beta=0.70
     Davidson diagonalization with overlap
     ethr =  1.73E-05,  avg # of iterations =  1.0

     total cpu time spent up to now is        3.7 secs

     total energy              =     -31.92860177 Ry
     Harris-Foulkes estimate   =     -31.92860518 Ry
     estimated scf accuracy    <       0.00012529 Ry

     iteration # 21     ecut=    30.00 Ry     beta=0.70
     Davidson diagonalization with overlap
     ethr =  1.57E-06,  avg # of iterations =  1.0

     total cpu time spent up to now is        3.7 secs

     total energy              =     -31.92860390 Ry
     Harris-Foulkes estimate   =     -31.92860411 Ry
     estimated scf accuracy    <       0.00000322 Ry

     iteration # 22     ecut=    30.00 Ry     beta=0.70
     Davidson diagonalization with overlap
     ethr =  4.02E-08,  avg # of iterations =  1.0

     total cpu time spent up to now is        3.8 secs

     End of self-consistent calculation

          k = 0.0000 0.0000 0.0000 ( 22119 PWs)   bands (ev):

   -24.3718 -10.3233  -7.0485  -7.0478  -6.9121  -1.1273   0.1340   0.8255

     the Fermi energy is    -6.8789 ev

!    total energy              =     -31.92860384 Ry
     Harris-Foulkes estimate   =     -31.92860397 Ry
     estimated scf accuracy    <          3.4E-09 Ry

     convergence has been achieved in  22 iterations

     Forces acting on atoms (Ry/au):

     atom    1 type  1   force =     0.12652704   -0.03019852    0.06225549
     atom    2 type  1   force =     0.00023825    0.00022710    0.00055543
     atom    3 type  2   force =    -0.12676529    0.02997141   -0.06281092

     Total force =     0.204231     Total SCF correction =     0.000653

     Entering Dynamics:    iteration =     2
                           time      =   0.0097 pico-seconds


     Andersen thermostat:    3 collisions

ATOMIC_POSITIONS (bohr)
H       -0.974262535  16.768540016  17.938384079
H       12.821924989   1.587860699  11.611797781
O       19.264326717  16.653040046  18.567238816


     kinetic energy (Ekin) =     0.06909289 Ry
     temperature           =  3636.29718609 K 
     Ekin + Etot (const)   =   -31.85951095 Ry
     Message from routine dynamics:
     Total linear momentum <> 0

     Linear momentum :   -0.2063539197   -0.9315767940   -0.1176685876

     Writing output data file pwscf.save

     first order wave-functions extrapolation
     Check: negative starting charge=   -0.348368
     first order charge density extrapolation
     Check: negative starting charge=   -0.351263

     negative rho (up, down):  3.778E-01 0.000E+00

     total cpu time spent up to now is        4.1 secs

     per-process dynamical memory:    20.4 Mb

     Self-consistent Calculation

     iteration #  1     ecut=    30.00 Ry     beta=0.70
     Davidson diagonalization with overlap
     c_bands:  1 eigenvalues not converged
     ethr =  1.00E-06,  avg # of iterations = 20.0

     negative rho (up, down):  9.764E-02 0.000E+00

     total cpu time spent up to now is        4.2 secs

     total energy              =     -25.16868216 Ry
     Harris-Foulkes estimate   =     -27.36476687 Ry
     estimated scf accuracy    <       2.54259680 Ry

     iteration #  2     ecut=    30.00 Ry     beta=0.70
     Davidson diagonalization with overlap
     ethr =  1.00E-02,  avg # of iterations =  3.0

     negative rho (up, down):  2.970E-02 0.000E+00

     total cpu time spent up to now is        4.2 secs

     total energy              =     -22.65922453 Ry
     Harris-Foulkes estimate   =     -29.50446173 Ry
     estimated scf accuracy    <      23.79207110 Ry

     iteration #  3     ecut=    30.00 Ry     beta=0.70
     Davidson diagonalization with overlap
     ethr =  1.00E-02,  avg # of iterations =  7.0

     negative rho (up, down):  2.564E-02 0.000E+00

     total cpu time spent up to now is        4.3 secs

     total energy              =     -26.09363601 Ry
     Harris-Foulkes estimate   =     -26.36568510 Ry
     estimated scf accuracy    <       1.56221450 Ry

     iteration #  4     ecut=    30.00 Ry     beta=0.70
     Davidson diagonalization with overlap
     ethr =  1.00E-02,  avg # of iterations =  1.0

     negative rho (up, down):  3.132E-01 0.000E+00

     total cpu time spent up to now is        4.3 secs

     total energy              =     -25.62852704 Ry
     Harris-Foulkes estimate   =     -26.10962754 Ry
     estimated scf accuracy    <       1.03476518 Ry

     iteration #  5     ecut=    30.00 Ry     beta=0.70
     Davidson diagonalization with overlap
     ethr =  1.00E-02,  avg # of iterations =  1.0

     negative rho (up, down):  2.298E-01 0.000E+00

     total cpu time spent up to now is        4.3 secs

     total energy              =     -25.69338988 Ry
     Harris-Foulkes estimate   =     -25.80404657 Ry
     estimated scf accuracy    <       0.99947701 Ry

     iteration #  6     ecut=    30.00 Ry     beta=0.70
     Davidson diagonalization with overlap
     ethr =  1.00E-02,  avg # of iterations =  1.0

     negative rho (up, down):  1.491E-01 0.000E+00

     total cpu time spent up to now is        4.4 secs

     total energy              =     -25.62830281 Ry
     Harris-Foulkes estimate   =     -25.73817753 Ry
     estimated scf accuracy    <       0.24455403 Ry

     iteration #  7     ecut=    30.00 Ry     beta=0.70
     Davidson diagonalization with overlap
     ethr =  3.06E-03,  avg # of iterations =  5.0

     negative rho (up, down):  2.834E-02 0.000E+00

     total cpu time spent up to now is        4.4 secs

     total energy              =     -27.27408157 Ry
     Harris-Foulkes estimate   =     -27.72721591 Ry
     estimated scf accuracy    <       2.88194332 Ry

     iteration #  8     ecut=    30.00 Ry     beta=0.70
     Davidson diagonalization with overlap
     ethr =  3.06E-03,  avg # of iterations =  1.0

     negative rho (up, down):  7.760E-02 0.000E+00

     total cpu time spent up to now is        4.4 secs

     total energy              =     -27.47290975 Ry
     Harris-Foulkes estimate   =     -27.28154025 Ry
     estimated scf accuracy    <       2.10035527 Ry

     iteration #  9     ecut=    30.00 Ry     beta=0.70
     Davidson diagonalization with overlap
     ethr =  3.06E-03,  avg # of iterations =  1.0

     negative rho (up, down):  3.894E-03 0.000E+00

     total cpu time spent up to now is        4.5 secs

     total energy              =     -26.95281963 Ry
     Harris-Foulkes estimate   =     -27.47378893 Ry
     estimated scf accuracy    <       2.39563399 Ry

     iteration # 10     ecut=    30.00 Ry     beta=0.70
     Davidson diagonalization with overlap
     ethr =  3.06E-03,  avg # of iterations =  1.0

     negative rho (up, down):  2.940E-02 0.000E+00

     total cpu time spent up to now is        4.5 secs

     total energy              =     -26.43313281 Ry
     Harris-Foulkes estimate   =     -26.95855525 Ry
     estimated scf accuracy    <       1.60683884 Ry

     iteration # 11     ecut=    30.00 Ry     beta=0.70
     Davidson diagonalization with overlap
     ethr =  3.06E-03,  avg # of iterations =  2.0

     negative rho (up, down):  2.138E-02 0.000E+00

     total cpu time spent up to now is        4.5 secs

     total energy              =     -26.31708391 Ry
     Harris-Foulkes estimate   =     -26.53083363 Ry
     estimated scf accuracy    <       1.77985457 Ry

     iteration # 12     ecut=    30.00 Ry     beta=0.70
     Davidson diagonalization with overlap
     ethr =  3.06E-03,  avg # of iterations =  1.0

     negative rho (up, down):  2.532E-02 0.000E+00

     total cpu time spent up to now is        4.6 secs

     total energy              =     -26.54325204 Ry
     Harris-Foulkes estimate   =     -26.64810511 Ry
     estimated scf accuracy    <       1.15507878 Ry

     iteration # 13     ecut=    30.00 Ry     beta=0.70
     Davidson diagonalization with overlap
     ethr =  3.06E-03,  avg # of iterations =  1.0

     negative rho (up, down):  2.861E-02 0.000E+00

     total cpu time spent up to now is        4.6 secs

     total energy              =     -26.53591421 Ry
     Harris-Foulkes estimate   =     -26.54400347 Ry
     estimated scf accuracy    <       0.98885271 Ry

     iteration # 14     ecut=    30.00 Ry     beta=0.70
     Davidson diagonalization with overlap
     ethr =  3.06E-03,  avg # of iterations =  1.0

     negative rho (up, down):  2.519E-01 0.000E+00

     total cpu time spent up to now is        4.7 secs

     total energy              =     -32.45363865 Ry
     Harris-Foulkes estimate   =     -26.53619564 Ry
     estimated scf accuracy    <       0.95584732 Ry

     iteration # 15     ecut=    30.00 Ry     beta=0.70
     Davidson diagonalization with overlap
     ethr =  3.06E-03,  avg # of iterations =  8.0

     negative rho (up, down):  1.757E-02 0.000E+00

     total cpu time spent up to now is        4.7 secs

     total energy              =     -13.26069201 Ry
     Harris-Foulkes estimate   =     -38.48857495 Ry
     estimated scf accuracy    <       9.44988400 Ry

     iteration # 16     ecut=    30.00 Ry     beta=0.70
     Davidson diagonalization with overlap
     ethr =  3.06E-03,  avg # of iterations = 11.0

     total cpu time spent up to now is        4.8 secs

     total energy              =     -26.06073319 Ry
     Harris-Foulkes estimate   =     -27.81258401 Ry
     estimated scf accuracy    <       5.58882650 Ry

     iteration # 17     ecut=    30.00 Ry     beta=0.70
     Davidson diagonalization with overlap
     ethr =  3.06E-03,  avg # of iterations =  4.0

     total cpu time spent up to now is        4.8 secs

     total energy              =     -26.58419553 Ry
     Harris-Foulkes estimate   =     -26.52313631 Ry
     estimated scf accuracy    <       1.79037381 Ry

     iteration # 18     ecut=    30.00 Ry     beta=0.70
     Davidson diagonalization with overlap
     ethr =  3.06E-03,  avg # of iterations =  1.0

     total cpu time spent up to now is        4.8 secs

     total energy              =     -26.45719129 Ry
     Harris-Foulkes estimate   =     -26.58123923 Ry
     estimated scf accuracy    <       1.66434125 Ry

     iteration # 19     ecut=    30.00 Ry     beta=0.70
     Davidson diagonalization with overlap
     ethr =  3.06E-03,  avg # of iterations =  1.0

     total cpu time spent up to now is        4.9 secs

     total energy              =     -26.48929022 Ry
     Harris-Foulkes estimate   =     -26.47070931 Ry
     estimated scf accuracy    <       0.15302948 Ry

     iteration # 20     ecut=    30.00 Ry     beta=0.70
     Davidson diagonalization with overlap
     ethr =  1.91E-03,  avg # of iterations =  1.0

     negative rho (up, down):  7.295E-04 0.000E+00

     total cpu time spent up to now is        4.9 secs

     total energy              =     -26.81179269 Ry
     Harris-Foulkes estimate   =     -26.62301593 Ry
     estimated scf accuracy    <       1.71305160 Ry

     iteration # 21     ecut=    30.00 Ry     beta=0.70
     Davidson diagonalization with overlap
     ethr =  1.91E-03,  avg # of iterations =  2.0

     negative rho (up, down):  5.104E-06 0.000E+00

     total cpu time spent up to now is        4.9 secs

     total energy              =     -26.87193692 Ry
     Harris-Foulkes estimate   =     -26.82309276 Ry
     estimated scf accuracy    <       2.03252232 Ry

     iteration # 22     ecut=    30.00 Ry     beta=0.70
     Davidson diagonalization with overlap
     ethr =  1.91E-03,  avg # of iterations =  1.0

     negative rho (up, down):  2.809E-07 0.000E+00

     total cpu time spent up to now is        5.0 secs

     total energy              =     -26.87635139 Ry
     Harris-Foulkes estimate   =     -26.87427627 Ry
     estimated scf accuracy    <       2.08427626 Ry

     iteration # 23     ecut=    30.00 Ry     beta=0.70
     Davidson diagonalization with overlap
     ethr =  1.91E-03,  avg # of iterations =  1.0

     negative rho (up, down):  2.302E-04 0.000E+00

     total cpu time spent up to now is        5.0 secs

     total energy              =     -26.94157717 Ry
     Harris-Foulkes estimate   =     -26.87657549 Ry
     estimated scf accuracy    <       2.07995446 Ry

     iteration # 24     ecut=    30.00 Ry     beta=0.70
     Davidson diagonalization with overlap
     ethr =  1.91E-03,  avg # of iterations =  1.0

     negative rho (up, down):  5.082E-04 0.000E+00

     total cpu time spent up to now is        5.0 secs

     total energy              =     -26.99934293 Ry
     Harris-Foulkes estimate   =     -26.94194073 Ry
     estimated scf accuracy    <       2.18426120 Ry

     iteration # 25     ecut=    30.00 Ry     beta=0.70
     Davidson diagonalization with overlap
     ethr =  1.91E-03,  avg # of iterations =  1.0

     negative rho (up, down):  1.690E-02 0.000E+00

     total cpu time spent up to now is        5.1 secs

     total energy              =     -27.18462855 Ry
     Harris-Foulkes estimate   =     -26.99961794 Ry
     estimated scf accuracy    <       2.27668757 Ry

     iteration # 26     ecut=    30.00 Ry     beta=0.70
     Davidson diagonalization with overlap
     ethr =  1.91E-03,  avg # of iterations =  1.0

     negative rho (up, down):  1.680E-02 0.000E+00

     total cpu time spent up to now is        5.1 secs

     total energy              =     -27.18497576 Ry
     Harris-Foulkes estimate   =     -27.18704373 Ry
     estimated scf accuracy    <       2.58427339 Ry

     iteration # 27     ecut=    30.00 Ry     beta=0.70
     Davidson diagonalization with overlap
     ethr =  1.91E-03,  avg # of iterations =  1.0

     negative rho (up, down):  1.237E-02 0.000E+00

     total cpu time spent up to now is        5.1 secs

     total energy              =     -27.09317368 Ry
     Harris-Foulkes estimate   =     -27.18512262 Ry
     estimated scf accuracy    <       2.58186065 Ry

     iteration # 28     ecut=    30.00 Ry     beta=0.70
     Davidson diagonalization with overlap
     ethr =  1.91E-03,  avg # of iterations =  1.0

     negative rho (up, down):  1.003E-01 0.000E+00

     total cpu time spent up to now is        5.2 secs

     total energy              =     -25.17841573 Ry
     Harris-Foulkes estimate   =     -27.09352713 Ry
     estimated scf accuracy    <       2.43467635 Ry

     iteration # 29     ecut=    30.00 Ry     beta=0.70
     Davidson diagonalization with overlap
     ethr =  1.91E-03,  avg # of iterations =  5.0

     negative rho (up, down):  3.744E-04 0.000E+00

     total cpu time spent up to now is        5.2 secs

     total energy              =     -27.14713415 Ry
     Harris-Foulkes estimate   =     -28.65700704 Ry
     estimated scf accuracy    <       3.89753290 Ry

     iteration # 30     ecut=    30.00 Ry     beta=0.70
     Davidson diagonalization with overlap
     ethr =  1.91E-03,  avg # of iterations =  6.0

     negative rho (up, down):  4.944E-04 0.000E+00

     total cpu time spent up to now is        5.3 secs

     total energy              =     -26.41435180 Ry
     Harris-Foulkes estimate   =     -27.18678970 Ry
     estimated scf accuracy    <       1.85004452 Ry

     iteration # 31     ecut=    30.00 Ry     beta=0.70
     Davidson diagonalization with overlap
     ethr =  1.91E-03,  avg # of iterations =  3.0

     total cpu time spent up to now is        5.3 secs

     total energy              =     -26.42533526 Ry
     Harris-Foulkes estimate   =     -26.45644710 Ry
     estimated scf accuracy    <       0.17328833 Ry

     iteration # 32     ecut=    30.00 Ry     beta=0.70
     Davidson diagonalization with overlap
     ethr =  1.91E-03,  avg # of iterations =  1.0

     negative rho (up, down):  3.437E-06 0.000E+00

     total cpu time spent up to now is        5.3 secs

     total energy              =     -26.33937168 Ry
     Harris-Foulkes estimate   =     -26.50441394 Ry
     estimated scf accuracy    <       0.87451208 Ry

     iteration # 33     ecut=    30.00 Ry     beta=0.70
     Davidson diagonalization with overlap
     ethr =  1.91E-03,  avg # of iterations =  1.0

     negative rho (up, down):  1.030E-06 0.000E+00

     total cpu time spent up to now is        5.4 secs

     total energy              =     -26.52999814 Ry
     Harris-Foulkes estimate   =     -26.58184390 Ry
     estimated scf accuracy    <       1.54461058 Ry

     iteration # 34     ecut=    30.00 Ry     beta=0.70
     Davidson diagonalization with overlap
     ethr =  1.91E-03,  avg # of iterations =  1.0

     total cpu time spent up to now is        5.4 secs

     total energy              =     -26.51295530 Ry
     Harris-Foulkes estimate   =     -26.53019281 Ry
     estimated scf accuracy    <       1.48988472 Ry

     iteration # 35     ecut=    30.00 Ry     beta=0.70
     Davidson diagonalization with overlap
     ethr =  1.91E-03,  avg # of iterations =  1.0

     negative rho (up, down):  4.541E-04 0.000E+00

     total cpu time spent up to now is        5.4 secs

     total energy              =     -26.62827453 Ry
     Harris-Foulkes estimate   =     -26.51273699 Ry
     estimated scf accuracy    <       1.58408039 Ry

     iteration # 36     ecut=    30.00 Ry     beta=0.70
     Davidson diagonalization with overlap
     ethr =  1.91E-03,  avg # of iterations =  1.0

     negative rho (up, down):  5.204E-05 0.000E+00

     total cpu time spent up to now is        5.5 secs

     total energy              =     -26.47521430 Ry
     Harris-Foulkes estimate   =     -26.62412475 Ry
     estimated scf accuracy    <       1.61422323 Ry

     iteration # 37     ecut=    30.00 Ry     beta=0.70
     Davidson diagonalization with overlap
     ethr =  1.91E-03,  avg # of iterations =  1.0

     negative rho (up, down):  1.806E-07 0.000E+00

     total cpu time spent up to now is        5.5 secs

     total energy              =     -26.28225436 Ry
     Harris-Foulkes estimate   =     -26.47250804 Ry
     estimated scf accuracy    <       1.36160211 Ry

     iteration # 38     ecut=    30.00 Ry     beta=0.70
     Davidson diagonalization with overlap
     ethr =  1.91E-03,  avg # of iterations =  1.0

     total cpu time spent up to now is        5.5 secs

     total energy              =     -26.54116739 Ry
     Harris-Foulkes estimate   =     -26.57217121 Ry
     estimated scf accuracy    <       0.98388573 Ry

     iteration # 39     ecut=    30.00 Ry     beta=0.70
     Davidson diagonalization with overlap
     ethr =  1.91E-03,  avg # of iterations =  1.0

     total cpu time spent up to now is        5.6 secs

     total energy              =     -26.49315764 Ry
     Harris-Foulkes estimate   =     -26.54123560 Ry
     estimated scf accuracy    <       0.94101433 Ry

     iteration # 40     ecut=    30.00 Ry     beta=0.70
     Davidson diagonalization with overlap
     ethr =  1.91E-03,  avg # of iterations =  1.0

     total cpu time spent up to now is        5.6 secs

     total energy              =     -26.53138649 Ry
     Harris-Foulkes estimate   =     -26.49330293 Ry
     estimated scf accuracy    <       0.86827881 Ry

     iteration # 41     ecut=    30.00 Ry     beta=0.70
     Davidson diagonalization with overlap
     ethr =  1.91E-03,  avg # of iterations =  1.0

     negative rho (up, down):  3.236E-08 0.000E+00

     total cpu time spent up to now is        5.6 secs

     total energy              =     -26.57040512 Ry
     Harris-Foulkes estimate   =     -26.53153695 Ry
     estimated scf accuracy    <       0.92690749 Ry

     iteration # 42     ecut=    30.00 Ry     beta=0.70
     Davidson diagonalization with overlap
     ethr =  1.91E-03,  avg # of iterations =  1.0

     total cpu time spent up to now is        5.7 secs

     total energy              =     -26.58642112 Ry
     Harris-Foulkes estimate   =     -26.57047185 Ry
     estimated scf accuracy    <       0.98317361 Ry

     iteration # 43     ecut=    30.00 Ry     beta=0.70
     Davidson diagonalization with overlap
     ethr =  1.91E-03,  avg # of iterations =  1.0

     negative rho (up, down):  4.624E-07 0.000E+00

     total cpu time spent up to now is        5.7 secs

     total energy              =     -26.49539268 Ry
     Harris-Foulkes estimate   =     -26.58645526 Ry
     estimated scf accuracy    <       1.00834514 Ry

     iteration # 44     ecut=    30.00 Ry     beta=0.70
     Davidson diagonalization with overlap
     ethr =  1.91E-03,  avg # of iterations =  1.0

     negative rho (up, down):  4.578E-07 0.000E+00

     total cpu time spent up to now is        5.7 secs

     total energy              =     -26.49725804 Ry
     Harris-Foulkes estimate   =     -26.49590001 Ry
     estimated scf accuracy    <       0.87418937 Ry

     iteration # 45     ecut=    30.00 Ry     beta=0.70
     Davidson diagonalization with overlap
     ethr =  1.91E-03,  avg # of iterations =  1.0

     negative rho (up, down):  3.254E-07 0.000E+00

     total cpu time spent up to now is        5.8 secs

     total energy              =     -26.45166276 Ry
     Harris-Foulkes estimate   =     -26.49727105 Ry
     estimated scf accuracy    <       0.87615267 Ry

     iteration # 46     ecut=    30.00 Ry     beta=0.70
     Davidson diagonalization with overlap
     ethr =  1.91E-03,  avg # of iterations =  1.0

     negative rho (up, down):  2.985E-07 0.000E+00

     total cpu time spent up to now is        5.8 secs

     total energy              =     -26.47959918 Ry
     Harris-Foulkes estimate   =     -26.45683852 Ry
     estimated scf accuracy    <       0.20589105 Ry

     iteration # 47     ecut=    30.00 Ry     beta=0.70
     Davidson diagonalization with overlap
     ethr =  1.91E-03,  avg # of iterations =  1.0

     total cpu time spent up to now is        5.9 secs

     total energy              =     -26.44878298 Ry
     Harris-Foulkes estimate   =     -26.49636140 Ry
     estimated scf accuracy    <       0.87421269 Ry

     iteration # 48     ecut=    30.00 Ry     beta=0.70
     Davidson diagonalization with overlap
     ethr =  1.91E-03,  avg # of iterations =  1.0

     negative rho (up, down):  4.974E-08 0.000E+00

     total cpu time spent up to now is        5.9 secs

     total energy              =     -26.44061700 Ry
     Harris-Foulkes estimate   =     -26.45552730 Ry
     estimated scf accuracy    <       0.12607170 Ry

     iteration # 49     ecut=    30.00 Ry     beta=0.70
     Davidson diagonalization with overlap
     ethr =  1.58E-03,  avg # of iterations =  1.0

     negative rho (up, down):  1.950E-08 0.000E+00

     total cpu time spent up to now is        5.9 secs

     total energy              =     -26.47422181 Ry
     Harris-Foulkes estimate   =     -26.47692286 Ry
     estimated scf accuracy    <       1.56668746 Ry

     iteration # 50     ecut=    30.00 Ry     beta=0.70
     Davidson diagonalization with overlap
     ethr =  1.58E-03,  avg # of iterations =  1.0

     negative rho (up, down):  3.383E-08 0.000E+00

     total cpu time spent up to now is        6.0 secs

     total energy              =     -26.46064130 Ry
     Harris-Foulkes estimate   =     -26.47427292 Ry
     estimated scf accuracy    <       1.45122983 Ry

     iteration # 51     ecut=    30.00 Ry     beta=0.70
     Davidson diagonalization with overlap
     ethr =  1.58E-03,  avg # of iterations =  1.0

     negative rho (up, down):  4.000E-08 0.000E+00

     total cpu time spent up to now is        6.0 secs

     total energy              =     -26.46603033 Ry
     Harris-Foulkes estimate   =     -26.46249293 Ry
     estimated scf accuracy    <       0.71368073 Ry

     iteration # 52     ecut=    30.00 Ry     beta=0.70
     Davidson diagonalization with overlap
     ethr =  1.58E-03,  avg # of iterations =  1.0

     total cpu time spent up to now is        6.0 secs

     total energy              =     -26.46245058 Ry
     Harris-Foulkes estimate   =     -26.46634537 Ry
     estimated scf accuracy    <       0.99033397 Ry

     iteration # 53     ecut=    30.00 Ry     beta=0.70
     Davidson diagonalization with overlap
     ethr =  1.58E-03,  avg # of iterations =  1.0

     total cpu time spent up to now is        6.0 secs

     total energy              =     -26.43044912 Ry
     Harris-Foulkes estimate   =     -26.46271598 Ry
     estimated scf accuracy    <       0.73085968 Ry

     iteration # 54     ecut=    30.00 Ry     beta=0.70
     Davidson diagonalization with overlap
     ethr =  1.58E-03,  avg # of iterations =  1.0

     total cpu time spent up to now is        6.1 secs

     total energy              =     -26.45060550 Ry
     Harris-Foulkes estimate   =     -26.45912731 Ry
     estimated scf accuracy    <       0.33004960 Ry

     iteration # 55     ecut=    30.00 Ry     beta=0.70
     Davidson diagonalization with overlap
     ethr =  1.58E-03,  avg # of iterations =  1.0

     total cpu time spent up to now is        6.1 secs

     total energy              =     -26.45365129 Ry
     Harris-Foulkes estimate   =     -26.45386245 Ry
     estimated scf accuracy    <       0.00935124 Ry

     iteration # 56     ecut=    30.00 Ry     beta=0.70
     Davidson diagonalization with overlap
     ethr =  1.17E-04,  avg # of iterations =  1.0

     total cpu time spent up to now is        6.2 secs

     total energy              =     -26.45374183 Ry
     Harris-Foulkes estimate   =     -26.45374483 Ry
     estimated scf accuracy    <       0.00011921 Ry

     iteration # 57     ecut=    30.00 Ry     beta=0.70
     Davidson diagonalization with overlap
     ethr =  1.49E-06,  avg # of iterations = 10.0

     total cpu time spent up to now is        6.2 secs

     total energy              =     -26.45374409 Ry
     Harris-Foulkes estimate   =     -26.45374360 Ry
     estimated scf accuracy    <       0.00000049 Ry

     iteration # 58     ecut=    30.00 Ry     beta=0.70
     Davidson diagonalization with overlap
     ethr =  6.07E-09,  avg # of iterations =  2.0

     total cpu time spent up to now is        6.2 secs

     total energy              =     -26.45373966 Ry
     Harris-Foulkes estimate   =     -26.45374780 Ry
     estimated scf accuracy    <       0.00032252 Ry

     iteration # 59     ecut=    30.00 Ry     beta=0.70
     Davidson diagonalization with overlap
     ethr =  6.07E-09,  avg # of iterations =  2.0

     total cpu time spent up to now is        6.3 secs

     total energy              =     -26.45374380 Ry
     Harris-Foulkes estimate   =     -26.45374362 Ry
     estimated scf accuracy    <       0.00000002 Ry

     iteration # 60     ecut=    30.00 Ry     beta=0.70
     Davidson diagonalization with overlap
     ethr =  2.62E-10,  avg # of iterations =  2.0

     total cpu time spent up to now is        6.3 secs

     total energy              =     -26.45374379 Ry
     Harris-Foulkes estimate   =     -26.45374386 Ry
     estimated scf accuracy    <       0.00000503 Ry

     iteration # 61     ecut=    30.00 Ry     beta=0.70
     Davidson diagonalization with overlap
     ethr =  2.62E-10,  avg # of iterations =  1.0

     total cpu time spent up to now is        6.3 secs

     total energy              =     -26.45374378 Ry
     Harris-Foulkes estimate   =     -26.45374380 Ry
     estimated scf accuracy    <       0.00000148 Ry

     iteration # 62     ecut=    30.00 Ry     beta=0.70
     Davidson diagonalization with overlap
     ethr =  2.62E-10,  avg # of iterations =  1.0

     total cpu time spent up to now is        6.4 secs

     End of self-consistent calculation

          k = 0.0000 0.0000 0.0000 ( 22119 PWs)   bands (ev):

   -31.2819 -11.7501  -7.6156  -7.6151  -7.4554  -0.3206   0.5016   0.7643

     the Fermi energy is    -7.4380 ev

!    total energy              =     -26.45374382 Ry
     Harris-Foulkes estimate   =     -26.45374380 Ry
     estimated scf accuracy    <          8.6E-09 Ry

     convergence has been achieved in  62 iterations

     Forces acting on atoms (Ry/au):

     atom    1 type  1   force =    -7.64371035    3.69997016  -20.14187412
     atom    2 type  1   force =    -0.00057567    0.00019300    0.00003913
     atom    3 type  2   force =     7.64428601   -3.70016316   20.14183500

     Total force =    30.913282     Total SCF correction =     0.000028

     Entering Dynamics:    iteration =     3
                           time      =   0.0145 pico-seconds


     Andersen thermostat:    3 collisions

ATOMIC_POSITIONS (bohr)
H      -84.292803274  57.344741738-200.901831299
H       12.605754283   1.517819163  11.979832562
O       24.537455377  14.096088684  32.358295216


     kinetic energy (Ekin) =   691.93263860 Ry
     temperature           = ************** K 
     Ekin + Etot (const)   =   665.47889478 Ry
     Message from routine dynamics:
     Total linear momentum <> 0

     Linear momentum :   -0.0946826197    0.5110813006    0.0807097982

     Writing output data file pwscf.save

     second order wave-functions extrapolation
     Check: negative starting charge=   -0.351263
     second order charge density extrapolation
     Check: negative starting charge=   -0.352650

     negative rho (up, down):  7.200E+01 0.000E+00

     total cpu time spent up to now is        6.7 secs

     per-process dynamical memory:    20.4 Mb

     Self-consistent Calculation

     iteration #  1     ecut=    30.00 Ry     beta=0.70
     Davidson diagonalization with overlap
     c_bands:  3 eigenvalues not converged
     ethr =  1.00E-06,  avg # of iterations = 20.0

     negative rho (up, down):  2.037E+01 0.000E+00

     total cpu time spent up to now is        6.9 secs

     total energy              =    -192.63237501 Ry
     Harris-Foulkes estimate   =  -38381.66903987 Ry
     estimated scf accuracy    <    1971.25247769 Ry

     iteration #  2     ecut=    30.00 Ry     beta=0.70
     Davidson diagonalization with overlap
     ethr =  1.00E-02,  avg # of iterations = 20.0

     negative rho (up, down):  7.623E-01 0.000E+00

     total cpu time spent up to now is        7.0 secs

     total energy              =     111.77998684 Ry
     Harris-Foulkes estimate   =  -42881.45845869 Ry
     estimated scf accuracy    <     207.00950958 Ry

     iteration #  3     ecut=    30.00 Ry     beta=0.70
     Davidson diagonalization with overlap
     ethr =  1.00E-02,  avg # of iterations =  8.0

     negative rho (up, down):  2.427E-03 0.000E+00

     total cpu time spent up to now is        7.0 secs

     total energy              =     148.19534612 Ry
     Harris-Foulkes estimate   =   -5168.67453315 Ry
     estimated scf accuracy    <      35.35928436 Ry

     iteration #  4     ecut=    30.00 Ry     beta=0.70
     Davidson diagonalization with overlap
     ethr =  1.00E-02,  avg # of iterations = 10.0

     negative rho (up, down):  1.108E-01 0.000E+00

     total cpu time spent up to now is        7.1 secs

     total energy              =     -72.56790439 Ry
     Harris-Foulkes estimate   =     -91.17139044 Ry
     estimated scf accuracy    <      83.71880345 Ry

     iteration #  5     ecut=    30.00 Ry     beta=0.70
     Davidson diagonalization with overlap
     ethr =  1.00E-02,  avg # of iterations =  9.0

     negative rho (up, down):  1.582E-02 0.000E+00

     total cpu time spent up to now is        7.2 secs

     total energy              =      85.35312416 Ry
     Harris-Foulkes estimate   =    -290.85239079 Ry
     estimated scf accuracy    <      25.77947619 Ry

     iteration #  6     ecut=    30.00 Ry     beta=0.70
     Davidson diagonalization with overlap
     ethr =  1.00E-02,  avg # of iterations =  6.0

     negative rho (up, down):  5.593E-01 0.000E+00

     total cpu time spent up to now is        7.2 secs

     total energy              =     -48.17556927 Ry
     Harris-Foulkes estimate   =     -76.01752190 Ry
     estimated scf accuracy    <      60.31977340 Ry

     iteration #  7     ecut=    30.00 Ry     beta=0.70
     Davidson diagonalization with overlap
     ethr =  1.00E-02,  avg # of iterations = 10.0

     negative rho (up, down):  5.232E-01 0.000E+00

     total cpu time spent up to now is        7.3 secs

     total energy              =    -174.45740996 Ry
     Harris-Foulkes estimate   =   -6064.23978459 Ry
     estimated scf accuracy    <      48.59814541 Ry

     iteration #  8     ecut=    30.00 Ry     beta=0.70
     Davidson diagonalization with overlap
     ethr =  1.00E-02,  avg # of iterations = 11.0

     negative rho (up, down):  5.233E-01 0.000E+00

     total cpu time spent up to now is        7.3 secs

     total energy              =     202.90448822 Ry
     Harris-Foulkes estimate   =    -761.95949891 Ry
     estimated scf accuracy    <      47.63390447 Ry

     iteration #  9     ecut=    30.00 Ry     beta=0.70
     Davidson diagonalization with overlap
     ethr =  1.00E-02,  avg # of iterations =  9.0

     negative rho (up, down):  5.257E-01 0.000E+00

     total cpu time spent up to now is        7.4 secs

     total energy              =     -53.56350510 Ry
     Harris-Foulkes estimate   =    -114.20655035 Ry
     estimated scf accuracy    <      18.44686150 Ry

     iteration # 10     ecut=    30.00 Ry     beta=0.70
     Davidson diagonalization with overlap
     ethr =  1.00E-02,  avg # of iterations =  5.0

     negative rho (up, down):  5.988E-01 0.000E+00

     total cpu time spent up to now is        7.4 secs

     total energy              =     -54.28165223 Ry
     Harris-Foulkes estimate   =     -85.51736608 Ry
     estimated scf accuracy    <      15.47620658 Ry

     iteration # 11     ecut=    30.00 Ry     beta=0.70
     Davidson diagonalization with overlap
     ethr =  1.00E-02,  avg # of iterations =  7.0

     negative rho (up, down):  6.229E-01 0.000E+00

     total cpu time spent up to now is        7.5 secs

     total energy              =     -37.41776561 Ry
     Harris-Foulkes estimate   =    -272.44169603 Ry
     estimated scf accuracy    <      13.06678828 Ry

     iteration # 12     ecut=    30.00 Ry     beta=0.70
     Davidson diagonalization with overlap
     ethr =  1.00E-02,  avg # of iterations =  9.0

     negative rho (up, down):  1.544E-01 0.000E+00

     total cpu time spent up to now is        7.5 secs

     total energy              =      54.66489126 Ry
     Harris-Foulkes estimate   =    -573.59975275 Ry
     estimated scf accuracy    <      47.13048786 Ry

     iteration # 13     ecut=    30.00 Ry     beta=0.70
     Davidson diagonalization with overlap
     ethr =  1.00E-02,  avg # of iterations = 12.0

     negative rho (up, down):  1.563E-02 0.000E+00

     total cpu time spent up to now is        7.6 secs

     total energy              =      95.60418380 Ry
     Harris-Foulkes estimate   =    -185.45663772 Ry
     estimated scf accuracy    <      55.33659759 Ry

     iteration # 14     ecut=    30.00 Ry     beta=0.70
     Davidson diagonalization with overlap
     ethr =  1.00E-02,  avg # of iterations =  5.0

     negative rho (up, down):  1.483E-01 0.000E+00

     total cpu time spent up to now is        7.7 secs

     total energy              =      20.22134457 Ry
     Harris-Foulkes estimate   =    -573.00481151 Ry
     estimated scf accuracy    <      13.41963083 Ry

     iteration # 15     ecut=    30.00 Ry     beta=0.70
     Davidson diagonalization with overlap
     ethr =  1.00E-02,  avg # of iterations =  6.0

     negative rho (up, down):  5.713E-01 0.000E+00

     total cpu time spent up to now is        7.7 secs

     total energy              =      68.62972562 Ry
     Harris-Foulkes estimate   =    -852.90345973 Ry
     estimated scf accuracy    <      38.59945912 Ry

     iteration # 16     ecut=    30.00 Ry     beta=0.70
     Davidson diagonalization with overlap
     ethr =  1.00E-02,  avg # of iterations = 12.0

     negative rho (up, down):  7.882E-01 0.000E+00

     total cpu time spent up to now is        7.8 secs

     total energy              =    -100.51619631 Ry
     Harris-Foulkes estimate   =    -436.11507681 Ry
     estimated scf accuracy    <      32.39901532 Ry

     iteration # 17     ecut=    30.00 Ry     beta=0.70
     Davidson diagonalization with overlap
     ethr =  1.00E-02,  avg # of iterations =  8.0

     negative rho (up, down):  2.228E-01 0.000E+00

     total cpu time spent up to now is        7.8 secs

     total energy              =     137.80734970 Ry
     Harris-Foulkes estimate   =   -3691.97570604 Ry
     estimated scf accuracy    <      40.08536110 Ry

     iteration # 18     ecut=    30.00 Ry     beta=0.70
     Davidson diagonalization with overlap
     ethr =  1.00E-02,  avg # of iterations = 12.0

     negative rho (up, down):  2.905E-01 0.000E+00

     total cpu time spent up to now is        7.9 secs

     total energy              =      18.33320591 Ry
     Harris-Foulkes estimate   =     -77.64006244 Ry
     estimated scf accuracy    <      11.23494279 Ry

     iteration # 19     ecut=    30.00 Ry     beta=0.70
     Davidson diagonalization with overlap
     ethr =  1.00E-02,  avg # of iterations =  9.0

     negative rho (up, down):  3.593E-01 0.000E+00

     total cpu time spent up to now is        8.0 secs

     total energy              =   -1021.28163267 Ry
     Harris-Foulkes estimate   =    -100.26458537 Ry
     estimated scf accuracy    <      17.77107627 Ry

     iteration # 20     ecut=    30.00 Ry     beta=0.70
     Davidson diagonalization with overlap
     ethr =  1.00E-02,  avg # of iterations =  4.0

     negative rho (up, down):  4.807E-01 0.000E+00

     total cpu time spent up to now is        8.0 secs

     total energy              =     244.89807231 Ry
     Harris-Foulkes estimate   =   -2945.68629207 Ry
     estimated scf accuracy    <      35.83973412 Ry

     iteration # 21     ecut=    30.00 Ry     beta=0.70
     Davidson diagonalization with overlap
     ethr =  1.00E-02,  avg # of iterations =  8.0

     negative rho (up, down):  3.731E-02 0.000E+00

     total cpu time spent up to now is        8.1 secs

     total energy              =     129.58949567 Ry
     Harris-Foulkes estimate   =   -4841.97710103 Ry
     estimated scf accuracy    <      31.83239241 Ry

     iteration # 22     ecut=    30.00 Ry     beta=0.70
     Davidson diagonalization with overlap
     ethr =  1.00E-02,  avg # of iterations =  8.0

     negative rho (up, down):  4.623E-02 0.000E+00

     total cpu time spent up to now is        8.1 secs

     total energy              =     133.63168111 Ry
     Harris-Foulkes estimate   =    -326.94975263 Ry
     estimated scf accuracy    <      36.36041090 Ry

[...]
     Harris-Foulkes estimate   =   -1920.98269916 Ry
     estimated scf accuracy    <       7.32824974 Ry

     iteration # 59     ecut=    30.00 Ry     beta=0.70
     Davidson diagonalization with overlap
     ethr =  1.00E-02,  avg # of iterations =  5.0

     negative rho (up, down):  3.175E-03 0.000E+00

     total cpu time spent up to now is        9.9 secs

     total energy              =     117.66645292 Ry
     Harris-Foulkes estimate   =   -1277.69577459 Ry
     estimated scf accuracy    <      67.71390906 Ry

     iteration # 60     ecut=    30.00 Ry     beta=0.70
     Davidson diagonalization with overlap
     ethr =  1.00E-02,  avg # of iterations =  5.0

     negative rho (up, down):  1.711E-06 0.000E+00

     total cpu time spent up to now is       10.0 secs

     total energy              =      -3.34714133 Ry
     Harris-Foulkes estimate   =     -65.96693786 Ry
     estimated scf accuracy    <       9.19325732 Ry

     iteration # 61     ecut=    30.00 Ry     beta=0.70
     Davidson diagonalization with overlap
     ethr =  1.00E-02,  avg # of iterations =  7.0

     negative rho (up, down):  1.779E-02 0.000E+00

     total cpu time spent up to now is       10.0 secs

     total energy              =     -33.24346952 Ry
     Harris-Foulkes estimate   =     -34.10055182 Ry
     estimated scf accuracy    <       6.53437386 Ry

     iteration # 62     ecut=    30.00 Ry     beta=0.70
     Davidson diagonalization with overlap
     ethr =  1.00E-02,  avg # of iterations =  4.0

     negative rho (up, down):  4.566E-02 0.000E+00

     total cpu time spent up to now is       10.1 secs

     total energy              =      -3.69772675 Ry
     Harris-Foulkes estimate   =    -207.79795361 Ry
     estimated scf accuracy    <       8.07183280 Ry

     iteration # 63     ecut=    30.00 Ry     beta=0.70
     Davidson diagonalization with overlap
     ethr =  1.00E-02,  avg # of iterations =  4.0

     negative rho (up, down):  5.915E-02 0.000E+00

     total cpu time spent up to now is       10.1 secs

     total energy              =      -8.65890641 Ry
     Harris-Foulkes estimate   =     -84.23675511 Ry
     estimated scf accuracy    <       9.37470864 Ry

     iteration # 64     ecut=    30.00 Ry     beta=0.70
     Davidson diagonalization with overlap
     ethr =  1.00E-02,  avg # of iterations =  6.0

     negative rho (up, down):  6.522E-02 0.000E+00

     total cpu time spent up to now is       10.2 secs

     total energy              =     -22.48009379 Ry
     Harris-Foulkes estimate   =     -35.79316158 Ry
     estimated scf accuracy    <      10.58759188 Ry

     iteration # 65     ecut=    30.00 Ry     beta=0.70
     Davidson diagonalization with overlap
     ethr =  1.00E-02,  avg # of iterations =  4.0

     negative rho (up, down):  6.873E-02 0.000E+00

     total cpu time spent up to now is       10.2 secs

     total energy              =       3.20834267 Ry
     Harris-Foulkes estimate   =    -145.72017932 Ry
     estimated scf accuracy    <       5.97367745 Ry

     iteration # 66     ecut=    30.00 Ry     beta=0.70
     Davidson diagonalization with overlap
     ethr =  1.00E-02,  avg # of iterations =  5.0

     negative rho (up, down):  8.882E-02 0.000E+00

     total cpu time spent up to now is       10.2 secs

     total energy              =     -40.53993744 Ry
     Harris-Foulkes estimate   =     -58.90791910 Ry
     estimated scf accuracy    <       8.69622071 Ry

     iteration # 67     ecut=    30.00 Ry     beta=0.70
     Davidson diagonalization with overlap
     ethr =  1.00E-02,  avg # of iterations =  4.0

     negative rho (up, down):  6.370E-02 0.000E+00

     total cpu time spent up to now is       10.3 secs

     total energy              =     -67.31951327 Ry
     Harris-Foulkes estimate   =    -887.27031853 Ry
     estimated scf accuracy    <      22.54819949 Ry

     iteration # 68     ecut=    30.00 Ry     beta=0.70
     Davidson diagonalization with overlap
     ethr =  1.00E-02,  avg # of iterations =  6.0

     negative rho (up, down):  5.549E-02 0.000E+00

     total cpu time spent up to now is       10.3 secs

     total energy              =     -26.58025536 Ry
     Harris-Foulkes estimate   =    -240.18399974 Ry
     estimated scf accuracy    <      66.84782858 Ry

     iteration # 69     ecut=    30.00 Ry     beta=0.70
     Davidson diagonalization with overlap
     ethr =  1.00E-02,  avg # of iterations =  8.0

     negative rho (up, down):  1.007E-01 0.000E+00

     total cpu time spent up to now is       10.4 secs

     total energy              =      25.53752018 Ry
     Harris-Foulkes estimate   =    -169.79304045 Ry
     estimated scf accuracy    <      35.98508508 Ry

     iteration # 70     ecut=    30.00 Ry     beta=0.70
     Davidson diagonalization with overlap
     ethr =  1.00E-02,  avg # of iterations =  4.0

     negative rho (up, down):  6.495E-01 0.000E+00

     total cpu time spent up to now is       10.4 secs

     total energy              =    -314.93959022 Ry
     Harris-Foulkes estimate   =     -72.59059144 Ry
     estimated scf accuracy    <      20.81509613 Ry

     iteration # 71     ecut=    30.00 Ry     beta=0.70
     Davidson diagonalization with overlap
     ethr =  1.00E-02,  avg # of iterations =  7.0

     negative rho (up, down):  8.353E-01 0.000E+00

     total cpu time spent up to now is       10.5 secs

     total energy              =     -38.46084479 Ry
     Harris-Foulkes estimate   =   -3862.06065186 Ry
     estimated scf accuracy    <      54.73636991 Ry

     iteration # 72     ecut=    30.00 Ry     beta=0.70
     Davidson diagonalization with overlap
     ethr =  1.00E-02,  avg # of iterations =  8.0

     negative rho (up, down):  7.821E-01 0.000E+00

     total cpu time spent up to now is       10.5 secs

     total energy              =      24.25280869 Ry
     Harris-Foulkes estimate   =   -7259.63102375 Ry
     estimated scf accuracy    <      54.39247578 Ry

     iteration # 73     ecut=    30.00 Ry     beta=0.70
     Davidson diagonalization with overlap
     ethr =  1.00E-02,  avg # of iterations = 10.0

     negative rho (up, down):  7.856E-01 0.000E+00

     total cpu time spent up to now is       10.6 secs

     total energy              =    -182.25944404 Ry
     Harris-Foulkes estimate   =    -471.33160071 Ry
     estimated scf accuracy    <      59.17681526 Ry

     iteration # 74     ecut=    30.00 Ry     beta=0.70
     Davidson diagonalization with overlap
     ethr =  1.00E-02,  avg # of iterations =  8.0

     negative rho (up, down):  9.407E-01 0.000E+00

     total cpu time spent up to now is       10.7 secs

     total energy              =     -24.79508114 Ry
     Harris-Foulkes estimate   =   -2039.49640222 Ry
     estimated scf accuracy    <      54.45708723 Ry

     iteration # 75     ecut=    30.00 Ry     beta=0.70
     Davidson diagonalization with overlap
     ethr =  1.00E-02,  avg # of iterations =  6.0

     negative rho (up, down):  1.916E+00 0.000E+00

     total cpu time spent up to now is       10.7 secs

     total energy              =     447.79110207 Ry
     Harris-Foulkes estimate   =   -3657.81827907 Ry
     estimated scf accuracy    <      52.14658620 Ry

     iteration # 76     ecut=    30.00 Ry     beta=0.70
     Davidson diagonalization with overlap
     ethr =  1.00E-02,  avg # of iterations = 11.0

     negative rho (up, down):  2.174E+00 0.000E+00

     total cpu time spent up to now is       10.8 secs

     total energy              =    -323.01664812 Ry
     Harris-Foulkes estimate   =   -2411.56997194 Ry
     estimated scf accuracy    <      48.43501254 Ry

     iteration # 77     ecut=    30.00 Ry     beta=0.70
     Davidson diagonalization with overlap
     ethr =  1.00E-02,  avg # of iterations =  8.0

     negative rho (up, down):  2.804E+00 0.000E+00

     total cpu time spent up to now is       10.8 secs

     total energy              =    -293.22994449 Ry
     Harris-Foulkes estimate   =  -11624.14953914 Ry
     estimated scf accuracy    <      39.74295069 Ry

     iteration # 78     ecut=    30.00 Ry     beta=0.70
     Davidson diagonalization with overlap
     ethr =  1.00E-02,  avg # of iterations =  7.0

     negative rho (up, down):  2.269E+00 0.000E+00

     total cpu time spent up to now is       10.9 secs

     total energy              =    -129.93998745 Ry
     Harris-Foulkes estimate   =   -9138.82075971 Ry
     estimated scf accuracy    <      40.93523410 Ry

     iteration # 79     ecut=    30.00 Ry     beta=0.70
     Davidson diagonalization with overlap
     ethr =  1.00E-02,  avg # of iterations =  7.0

     negative rho (up, down):  1.414E+00 0.000E+00

     total cpu time spent up to now is       10.9 secs

     total energy              =     -50.23367168 Ry
     Harris-Foulkes estimate   =  -10259.73891654 Ry
     estimated scf accuracy    <      34.95683196 Ry

     iteration # 80     ecut=    30.00 Ry     beta=0.70
     Davidson diagonalization with overlap
     ethr =  1.00E-02,  avg # of iterations =  7.0

     negative rho (up, down):  1.095E+00 0.000E+00

     total cpu time spent up to now is       11.0 secs

     total energy              =     107.81415882 Ry
     Harris-Foulkes estimate   =   -2856.03688706 Ry
     estimated scf accuracy    <      31.25521635 Ry

     iteration # 81     ecut=    30.00 Ry     beta=0.70
     Davidson diagonalization with overlap
     ethr =  1.00E-02,  avg # of iterations =  7.0

     negative rho (up, down):  5.751E-01 0.000E+00

     total cpu time spent up to now is       11.0 secs

     total energy              =  -13145.39029266 Ry
     Harris-Foulkes estimate   =   -2381.88683860 Ry
     estimated scf accuracy    <      24.19571154 Ry

     iteration # 82     ecut=    30.00 Ry     beta=0.70
     Davidson diagonalization with overlap
     ethr =  1.00E-02,  avg # of iterations = 10.0

     negative rho (up, down):  2.742E-01 0.000E+00

     total cpu time spent up to now is       11.1 secs

     total energy              =      78.77346505 Ry
     Harris-Foulkes estimate   =  -38798.10425068 Ry
     estimated scf accuracy    <      20.12831965 Ry

     iteration # 83     ecut=    30.00 Ry     beta=0.70
     Davidson diagonalization with overlap
     ethr =  1.00E-02,  avg # of iterations =  5.0

     negative rho (up, down):  6.976E-02 0.000E+00

     total cpu time spent up to now is       11.2 secs

     total energy              =     151.09795557 Ry
     Harris-Foulkes estimate   =   -7546.88049988 Ry
     estimated scf accuracy    <      19.36552749 Ry

     iteration # 84     ecut=    30.00 Ry     beta=0.70
     Davidson diagonalization with overlap
     ethr =  1.00E-02,  avg # of iterations = 11.0

     negative rho (up, down):  2.805E-02 0.000E+00

     total cpu time spent up to now is       11.2 secs

     total energy              =      32.98756237 Ry
     Harris-Foulkes estimate   =    -294.30724397 Ry
     estimated scf accuracy    <      26.38802986 Ry

     iteration # 85     ecut=    30.00 Ry     beta=0.70
     Davidson diagonalization with overlap
     ethr =  1.00E-02,  avg # of iterations =  5.0

     negative rho (up, down):  1.841E-02 0.000E+00

     total cpu time spent up to now is       11.3 secs

     total energy              =      32.22439839 Ry
     Harris-Foulkes estimate   =    -276.42327079 Ry
     estimated scf accuracy    <      22.59594664 Ry

     iteration # 86     ecut=    30.00 Ry     beta=0.70
     Davidson diagonalization with overlap
     ethr =  1.00E-02,  avg # of iterations =  6.0

     negative rho (up, down):  1.631E-02 0.000E+00

     total cpu time spent up to now is       11.3 secs

     total energy              =     -16.05046411 Ry
     Harris-Foulkes estimate   =    -203.49789232 Ry
     estimated scf accuracy    <      31.80015926 Ry

     iteration # 87     ecut=    30.00 Ry     beta=0.70
     Davidson diagonalization with overlap
     ethr =  1.00E-02,  avg # of iterations =  6.0

     negative rho (up, down):  2.102E-02 0.000E+00

     total cpu time spent up to now is       11.4 secs

     total energy              =     -72.47774251 Ry
     Harris-Foulkes estimate   =     -71.44028598 Ry
     estimated scf accuracy    <      54.84968775 Ry

     iteration # 88     ecut=    30.00 Ry     beta=0.70
     Davidson diagonalization with overlap
     ethr =  1.00E-02,  avg # of iterations =  1.0

     negative rho (up, down):  5.250E-02 0.000E+00

     total cpu time spent up to now is       11.4 secs

     total energy              =    -106.33494935 Ry
     Harris-Foulkes estimate   =     -72.47910748 Ry
     estimated scf accuracy    <      56.08135444 Ry

     iteration # 89     ecut=    30.00 Ry     beta=0.70
     Davidson diagonalization with overlap
     ethr =  1.00E-02,  avg # of iterations =  5.0

     negative rho (up, down):  1.405E-01 0.000E+00

     total cpu time spent up to now is       11.4 secs

     total energy              =    -125.96551719 Ry
     Harris-Foulkes estimate   =    -169.91172722 Ry
     estimated scf accuracy    <      66.79918566 Ry

     iteration # 90     ecut=    30.00 Ry     beta=0.70
     Davidson diagonalization with overlap
     ethr =  1.00E-02,  avg # of iterations =  5.0

     negative rho (up, down):  1.900E-01 0.000E+00

     total cpu time spent up to now is       11.5 secs

     total energy              =     -69.34511213 Ry
     Harris-Foulkes estimate   =    -626.20986543 Ry
     estimated scf accuracy    <      51.45611690 Ry

     iteration # 91     ecut=    30.00 Ry     beta=0.70
     Davidson diagonalization with overlap
     ethr =  1.00E-02,  avg # of iterations =  5.0

     negative rho (up, down):  3.827E-01 0.000E+00

     total cpu time spent up to now is       11.6 secs

     total energy              =    -111.46782572 Ry
     Harris-Foulkes estimate   =    -309.00379063 Ry
     estimated scf accuracy    <      71.45996665 Ry

     iteration # 92     ecut=    30.00 Ry     beta=0.70
     Davidson diagonalization with overlap
     ethr =  1.00E-02,  avg # of iterations =  7.0

     negative rho (up, down):  4.532E-01 0.000E+00

     total cpu time spent up to now is       11.7 secs

     total energy              =     106.70565241 Ry
     Harris-Foulkes estimate   =   -1165.03012700 Ry
     estimated scf accuracy    <      20.32021427 Ry

     iteration # 93     ecut=    30.00 Ry     beta=0.70
     Davidson diagonalization with overlap
     ethr =  1.00E-02,  avg # of iterations =  9.0

     negative rho (up, down):  9.498E-01 0.000E+00

     total cpu time spent up to now is       11.7 secs

     total energy              =     -81.58082941 Ry
     Harris-Foulkes estimate   =   -5609.96819717 Ry
     estimated scf accuracy    <      67.26407314 Ry

     iteration # 94     ecut=    30.00 Ry     beta=0.70
     Davidson diagonalization with overlap
     ethr =  1.00E-02,  avg # of iterations =  8.0

     negative rho (up, down):  9.074E-01 0.000E+00

     total cpu time spent up to now is       11.8 secs

     total energy              =    -149.90038889 Ry
     Harris-Foulkes estimate   =    -844.30098470 Ry
     estimated scf accuracy    <      24.99534814 Ry

     iteration # 95     ecut=    30.00 Ry     beta=0.70
     Davidson diagonalization with overlap
     ethr =  1.00E-02,  avg # of iterations =  8.0

     negative rho (up, down):  1.044E+00 0.000E+00

     total cpu time spent up to now is       11.8 secs

     total energy              =    -722.84203064 Ry
     Harris-Foulkes estimate   =   -4591.30558551 Ry
     estimated scf accuracy    <      35.42810957 Ry

     iteration # 96     ecut=    30.00 Ry     beta=0.70
     Davidson diagonalization with overlap
     ethr =  1.00E-02,  avg # of iterations =  8.0

     negative rho (up, down):  1.236E+00 0.000E+00

     total cpu time spent up to now is       11.9 secs

     total energy              =     125.36439940 Ry
     Harris-Foulkes estimate   =  -17126.99326555 Ry
     estimated scf accuracy    <      49.13136511 Ry

     iteration # 97     ecut=    30.00 Ry     beta=0.70
     Davidson diagonalization with overlap
     ethr =  1.00E-02,  avg # of iterations =  7.0

     negative rho (up, down):  5.927E-01 0.000E+00

     total cpu time spent up to now is       11.9 secs

     total energy              =      35.11776576 Ry
     Harris-Foulkes estimate   =   -1045.64629960 Ry
     estimated scf accuracy    <      21.61037829 Ry

     iteration # 98     ecut=    30.00 Ry     beta=0.70
     Davidson diagonalization with overlap
     ethr =  1.00E-02,  avg # of iterations =  8.0

     negative rho (up, down):  7.090E-01 0.000E+00

     total cpu time spent up to now is       12.0 secs

     total energy              =     -88.81416055 Ry
     Harris-Foulkes estimate   =    -360.01647953 Ry
     estimated scf accuracy    <      42.59653003 Ry

     iteration # 99     ecut=    30.00 Ry     beta=0.70
     Davidson diagonalization with overlap
     ethr =  1.00E-02,  avg # of iterations =  7.0

     negative rho (up, down):  2.961E-01 0.000E+00

     total cpu time spent up to now is       12.1 secs

     total energy              =      99.22865798 Ry
     Harris-Foulkes estimate   =   -2490.21866818 Ry
     estimated scf accuracy    <      27.28588823 Ry

     iteration #100     ecut=    30.00 Ry     beta=0.70
     Davidson diagonalization with overlap
     ethr =  1.00E-02,  avg # of iterations =  7.0

     negative rho (up, down):  4.325E-01 0.000E+00

     total cpu time spent up to now is       12.1 secs

     total energy              =     -13.56680906 Ry
     Harris-Foulkes estimate   =   -3000.90483071 Ry
     estimated scf accuracy    <      50.39747669 Ry

     End of self-consistent calculation

     convergence NOT achieved after 100 iterations: stopping

     Writing output data file pwscf.save
 
     init_run     :      0.09s CPU      0.11s WALL (       1 calls)
     electrons    :      9.09s CPU     11.12s WALL (       4 calls)
     update_pot   :      0.33s CPU      0.47s WALL (       3 calls)
     forces       :      0.11s CPU      0.13s WALL (       3 calls)

     Called by init_run:
     wfcinit      :      0.02s CPU      0.02s WALL (       1 calls)
     potinit      :      0.02s CPU      0.03s WALL (       1 calls)

     Called by electrons:
     c_bands      :      4.41s CPU      4.63s WALL (     252 calls)
     sum_band     :      0.74s CPU      0.78s WALL (     252 calls)
     v_of_rho     :      1.86s CPU      1.96s WALL (     256 calls)
     mix_rho      :      1.80s CPU      3.08s WALL (     252 calls)

     Called by c_bands:
     init_us_2    :      0.02s CPU      0.03s WALL (     505 calls)
     cegterg      :      4.35s CPU      4.49s WALL (     252 calls)

     Called by sum_band:

     Called by *egterg:
     h_psi        :      3.63s CPU      3.73s WALL (    1240 calls)
     g_psi        :      0.04s CPU      0.04s WALL (     987 calls)
     cdiaghg      :      0.29s CPU      0.30s WALL (    1236 calls)

     Called by h_psi:
     h_psi:pot    :      3.61s CPU      3.71s WALL (    1240 calls)
     h_psi:calbec :      0.05s CPU      0.06s WALL (    1240 calls)
     vloc_psi     :      3.54s CPU      3.63s WALL (    1240 calls)
     add_vuspsi   :      0.01s CPU      0.01s WALL (    1240 calls)

     General routines
     calbec       :      0.06s CPU      0.09s WALL (    1254 calls)
     fft          :      1.12s CPU      1.18s WALL (    2822 calls)
     fftw         :      3.67s CPU      3.78s WALL (   16308 calls)
     davcio       :      0.30s CPU      1.11s WALL (    4697 calls)
 
     Parallel routines
     fft_scatter  :      1.75s CPU      1.85s WALL (   19130 calls)
 
     PWSCF        :     9.78s CPU        12.21s WALL

 
   This run was terminated on:   8:54: 6  14Feb2018            

=------------------------------------------------------------------------------=
   JOB DONE.
=------------------------------------------------------------------------------=
