
     Program PWSCF v.6.0 (svn rev. 13079) starts on 14Feb2018 at  7:15: 2 

     This program is part of the open-source Quantum ESPRESSO suite
     for quantum simulation of materials; please cite
         "P. Giannozzi et al., J. Phys.:Condens. Matter 21 395502 (2009);
          URL http://www.quantum-espresso.org", 
     in publications or presentations arising from this work. More details at
     http://www.quantum-espresso.org/quote

     Parallel version (MPI), running on    28 processors
     R & G space division:  proc/nbgrp/npool/nimage =      28
     Reading input from inputs/MD-H2O-2/52.in

     Current dimensions of program PWSCF are:
     Max number of different atomic species (ntypx) = 10
     Max number of k-points (npk) =  40000
     Max angular momentum in pseudopotentials (lmaxx) =  3

     Subspace diagonalization in iterative solution of the eigenvalue problem:
     a serial algorithm will be used

 
     Parallelization info
     --------------------
     sticks:   dense  smooth     PW     G-vecs:    dense   smooth      PW
     Min         136     136     33                 6338     6338     787
     Max         137     137     34                 6341     6341     792
     Sum        3809    3809    949               177509   177509   22119
 


     bravais-lattice index     =            1
     lattice parameter (alat)  =      20.0000  a.u.
     unit-cell volume          =    8000.0000 (a.u.)^3
     number of atoms/cell      =            3
     number of atomic types    =            2
     number of electrons       =         8.00
     number of Kohn-Sham states=            8
     kinetic-energy cutoff     =      30.0000  Ry
     charge density cutoff     =     120.0000  Ry
     convergence threshold     =      1.0E-08
     mixing beta               =       0.7000
     number of iterations used =            8  plain     mixing
     Exchange-correlation      = BLYP ( 1  3  1  3 0 0)
     nstep                     =         5000


     celldm(1)=  20.000000  celldm(2)=   0.000000  celldm(3)=   0.000000
     celldm(4)=   0.000000  celldm(5)=   0.000000  celldm(6)=   0.000000

     crystal axes: (cart. coord. in units of alat)
               a(1) = (   1.000000   0.000000   0.000000 )  
               a(2) = (   0.000000   1.000000   0.000000 )  
               a(3) = (   0.000000   0.000000   1.000000 )  

     reciprocal axes: (cart. coord. in units 2 pi/alat)
               b(1) = (  1.000000  0.000000  0.000000 )  
               b(2) = (  0.000000  1.000000  0.000000 )  
               b(3) = (  0.000000  0.000000  1.000000 )  


     PseudoPot. # 1 for  H read from file:
     ./H.blyp-hgh.UPF
     MD5 check sum: c576e69559cde411e611be972c763230
     Pseudo is Norm-conserving, Zval =  1.0
     Generated in analytical, separable form
     Using radial grid of  929 points,  0 beta functions with: 

     PseudoPot. # 2 for  O read from file:
     ./O.blyp-hgh.UPF
     MD5 check sum: d0b7156309aa9befef28faac7bc56342
     Pseudo is Norm-conserving, Zval =  6.0
     Generated in analytical, separable form
     Using radial grid of 1095 points,  1 beta functions with: 
                l(1) =   0

     atomic species   valence    mass     pseudopotential
        H              1.00     1.01000      H( 1.00)
        O              6.00    16.00000      O( 1.00)

     No symmetry found



   Cartesian axes

     site n.     atom                  positions (alat units)
         1           H   tau(   1) = (   0.8991253   0.9972311   0.1852415  )
         2           H   tau(   2) = (   0.7101101   0.7874975   0.4999905  )
         3           O   tau(   3) = (   0.7962213   0.7506788   0.5338010  )

     number of k points=     1  Marzari-Vanderbilt smearing, width (Ry)=  0.0250
                       cart. coord. in units 2pi/alat
        k(    1) = (   0.0000000   0.0000000   0.0000000), wk =   2.0000000

     Dense  grid:   177509 G-vectors     FFT dimensions: (  72,  72,  72)

     Estimated max dynamical RAM per process >       6.09Mb

     Estimated total allocated dynamical RAM >     170.64Mb

     Initial potential from superposition of free atoms
     Check: negative starting charge=   -0.346011

     starting charge    7.99998, renormalised to    8.00000

     negative rho (up, down):  3.460E-01 0.000E+00
     Starting wfc are    6 randomized atomic wfcs +    2 random wfc

     total cpu time spent up to now is        0.3 secs

     per-process dynamical memory:    18.8 Mb

     Self-consistent Calculation

     iteration #  1     ecut=    30.00 Ry     beta=0.70
     Davidson diagonalization with overlap
     ethr =  1.00E-02,  avg # of iterations =  7.0

     negative rho (up, down):  9.066E-02 0.000E+00

     total cpu time spent up to now is        0.3 secs

     total energy              =     -30.40683350 Ry
     Harris-Foulkes estimate   =     -32.23057561 Ry
     estimated scf accuracy    <       2.10615867 Ry

     iteration #  2     ecut=    30.00 Ry     beta=0.70
     Davidson diagonalization with overlap
     ethr =  1.00E-02,  avg # of iterations =  3.0

     negative rho (up, down):  6.600E-02 0.000E+00

     total cpu time spent up to now is        0.4 secs

     total energy              =     -32.26524795 Ry
     Harris-Foulkes estimate   =     -34.49002277 Ry
     estimated scf accuracy    <       5.43789570 Ry

     iteration #  3     ecut=    30.00 Ry     beta=0.70
     Davidson diagonalization with overlap
     ethr =  1.00E-02,  avg # of iterations =  2.0

     negative rho (up, down):  6.344E-02 0.000E+00

     total cpu time spent up to now is        0.4 secs

     total energy              =     -32.41482646 Ry
     Harris-Foulkes estimate   =     -32.49854012 Ry
     estimated scf accuracy    <       1.74693850 Ry

     iteration #  4     ecut=    30.00 Ry     beta=0.70
     Davidson diagonalization with overlap
     ethr =  1.00E-02,  avg # of iterations =  1.0

     negative rho (up, down):  1.184E-02 0.000E+00

     total cpu time spent up to now is        0.4 secs

     total energy              =     -31.32388188 Ry
     Harris-Foulkes estimate   =     -32.41516845 Ry
     estimated scf accuracy    <       1.62993694 Ry

     iteration #  5     ecut=    30.00 Ry     beta=0.70
     Davidson diagonalization with overlap
     ethr =  1.00E-02,  avg # of iterations =  3.0

     negative rho (up, down):  1.379E-02 0.000E+00

     total cpu time spent up to now is        0.5 secs

     total energy              =     -33.17726657 Ry
     Harris-Foulkes estimate   =     -33.14790013 Ry
     estimated scf accuracy    <       5.83187653 Ry

     iteration #  6     ecut=    30.00 Ry     beta=0.70
     Davidson diagonalization with overlap
     ethr =  1.00E-02,  avg # of iterations =  1.0

     negative rho (up, down):  1.526E-02 0.000E+00

     total cpu time spent up to now is        0.5 secs

     total energy              =     -32.91713328 Ry
     Harris-Foulkes estimate   =     -33.18321135 Ry
     estimated scf accuracy    <       6.74880114 Ry

     iteration #  7     ecut=    30.00 Ry     beta=0.70
     Davidson diagonalization with overlap
     ethr =  1.00E-02,  avg # of iterations =  1.0

     negative rho (up, down):  7.392E-03 0.000E+00

     total cpu time spent up to now is        0.5 secs

     total energy              =     -32.75360289 Ry
     Harris-Foulkes estimate   =     -32.97792126 Ry
     estimated scf accuracy    <       3.17856113 Ry

     iteration #  8     ecut=    30.00 Ry     beta=0.70
     Davidson diagonalization with overlap
     ethr =  1.00E-02,  avg # of iterations =  1.0

     negative rho (up, down):  1.122E-02 0.000E+00

     total cpu time spent up to now is        0.6 secs

     total energy              =     -32.36180909 Ry
     Harris-Foulkes estimate   =     -32.75827568 Ry
     estimated scf accuracy    <       2.68669254 Ry

     iteration #  9     ecut=    30.00 Ry     beta=0.70
     Davidson diagonalization with overlap
     ethr =  1.00E-02,  avg # of iterations =  1.0

     negative rho (up, down):  5.503E-03 0.000E+00

     total cpu time spent up to now is        0.6 secs

     total energy              =     -31.92337682 Ry
     Harris-Foulkes estimate   =     -32.37330421 Ry
     estimated scf accuracy    <       1.93312805 Ry

     iteration # 10     ecut=    30.00 Ry     beta=0.70
     Davidson diagonalization with overlap
     ethr =  1.00E-02,  avg # of iterations =  1.0

     negative rho (up, down):  8.866E-03 0.000E+00

     total cpu time spent up to now is        0.6 secs

     total energy              =     -32.01615573 Ry
     Harris-Foulkes estimate   =     -31.94665258 Ry
     estimated scf accuracy    <       0.10029011 Ry

     iteration # 11     ecut=    30.00 Ry     beta=0.70
     Davidson diagonalization with overlap
     ethr =  1.25E-03,  avg # of iterations =  2.0

     negative rho (up, down):  1.065E-02 0.000E+00

     total cpu time spent up to now is        0.7 secs

     total energy              =     -32.13479859 Ry
     Harris-Foulkes estimate   =     -32.16780198 Ry
     estimated scf accuracy    <       1.51624503 Ry

     iteration # 12     ecut=    30.00 Ry     beta=0.70
     Davidson diagonalization with overlap
     ethr =  1.25E-03,  avg # of iterations =  1.0

     negative rho (up, down):  2.559E-02 0.000E+00

     total cpu time spent up to now is        0.7 secs

     total energy              =     -31.62088020 Ry
     Harris-Foulkes estimate   =     -32.13506543 Ry
     estimated scf accuracy    <       1.46590154 Ry

     iteration # 13     ecut=    30.00 Ry     beta=0.70
     Davidson diagonalization with overlap
     ethr =  1.25E-03,  avg # of iterations =  3.0

     negative rho (up, down):  6.773E-03 0.000E+00

     total cpu time spent up to now is        0.7 secs

     total energy              =     -32.17369043 Ry
     Harris-Foulkes estimate   =     -32.24032947 Ry
     estimated scf accuracy    <       1.28427415 Ry

     iteration # 14     ecut=    30.00 Ry     beta=0.70
     Davidson diagonalization with overlap
     ethr =  1.25E-03,  avg # of iterations =  1.0

     negative rho (up, down):  6.616E-03 0.000E+00

     total cpu time spent up to now is        0.8 secs

     total energy              =     -32.16091096 Ry
     Harris-Foulkes estimate   =     -32.17394430 Ry
     estimated scf accuracy    <       1.18443333 Ry

     iteration # 15     ecut=    30.00 Ry     beta=0.70
     Davidson diagonalization with overlap
     ethr =  1.25E-03,  avg # of iterations =  1.0

     negative rho (up, down):  4.349E-03 0.000E+00

     total cpu time spent up to now is        0.8 secs

     total energy              =     -32.16366435 Ry
     Harris-Foulkes estimate   =     -32.16093980 Ry
     estimated scf accuracy    <       1.16294773 Ry

     iteration # 16     ecut=    30.00 Ry     beta=0.70
     Davidson diagonalization with overlap
     ethr =  1.25E-03,  avg # of iterations =  1.0

     negative rho (up, down):  2.221E-03 0.000E+00

     total cpu time spent up to now is        0.8 secs

     total energy              =     -32.16364397 Ry
     Harris-Foulkes estimate   =     -32.16367426 Ry
     estimated scf accuracy    <       1.16911897 Ry

     iteration # 17     ecut=    30.00 Ry     beta=0.70
     Davidson diagonalization with overlap
     ethr =  1.25E-03,  avg # of iterations =  1.0

     negative rho (up, down):  1.549E-04 0.000E+00

     total cpu time spent up to now is        0.9 secs

     total energy              =     -32.20146996 Ry
     Harris-Foulkes estimate   =     -32.16366245 Ry
     estimated scf accuracy    <       1.17475537 Ry

     iteration # 18     ecut=    30.00 Ry     beta=0.70
     Davidson diagonalization with overlap
     ethr =  1.25E-03,  avg # of iterations =  1.0

     negative rho (up, down):  3.243E-05 0.000E+00

     total cpu time spent up to now is        0.9 secs

     total energy              =     -32.16510116 Ry
     Harris-Foulkes estimate   =     -32.20203039 Ry
     estimated scf accuracy    <       1.25614750 Ry

     iteration # 19     ecut=    30.00 Ry     beta=0.70
     Davidson diagonalization with overlap
     ethr =  1.25E-03,  avg # of iterations =  1.0

     negative rho (up, down):  1.095E-03 0.000E+00

     total cpu time spent up to now is        0.9 secs

     total energy              =     -31.74011314 Ry
     Harris-Foulkes estimate   =     -32.16517986 Ry
     estimated scf accuracy    <       1.20352210 Ry

     iteration # 20     ecut=    30.00 Ry     beta=0.70
     Davidson diagonalization with overlap
     ethr =  1.25E-03,  avg # of iterations =  3.0

     negative rho (up, down):  2.764E-04 0.000E+00

     total cpu time spent up to now is        1.0 secs

     total energy              =     -32.02402187 Ry
     Harris-Foulkes estimate   =     -32.17491717 Ry
     estimated scf accuracy    <       1.54894829 Ry

     iteration # 21     ecut=    30.00 Ry     beta=0.70
     Davidson diagonalization with overlap
     ethr =  1.25E-03,  avg # of iterations =  1.0

     negative rho (up, down):  7.184E-07 0.000E+00

     total cpu time spent up to now is        1.0 secs

     total energy              =     -31.81538441 Ry
     Harris-Foulkes estimate   =     -32.02631587 Ry
     estimated scf accuracy    <       1.29086527 Ry

     iteration # 22     ecut=    30.00 Ry     beta=0.70
     Davidson diagonalization with overlap
     ethr =  1.25E-03,  avg # of iterations =  1.0

     negative rho (up, down):  5.705E-06 0.000E+00

     total cpu time spent up to now is        1.0 secs

     total energy              =     -31.99073689 Ry
     Harris-Foulkes estimate   =     -32.03933038 Ry
     estimated scf accuracy    <       0.98220879 Ry

     iteration # 23     ecut=    30.00 Ry     beta=0.70
     Davidson diagonalization with overlap
     ethr =  1.25E-03,  avg # of iterations =  1.0

     negative rho (up, down):  7.622E-07 0.000E+00

     total cpu time spent up to now is        1.1 secs

     total energy              =     -32.00049678 Ry
     Harris-Foulkes estimate   =     -31.99107877 Ry
     estimated scf accuracy    <       0.90679830 Ry

     iteration # 24     ecut=    30.00 Ry     beta=0.70
     Davidson diagonalization with overlap
     ethr =  1.25E-03,  avg # of iterations =  1.0

     negative rho (up, down):  8.254E-07 0.000E+00

     total cpu time spent up to now is        1.1 secs

     total energy              =     -32.01155423 Ry
     Harris-Foulkes estimate   =     -32.00051785 Ry
     estimated scf accuracy    <       0.92204281 Ry

     iteration # 25     ecut=    30.00 Ry     beta=0.70
     Davidson diagonalization with overlap
     ethr =  1.25E-03,  avg # of iterations =  1.0

     negative rho (up, down):  3.486E-08 0.000E+00

     total cpu time spent up to now is        1.1 secs

     total energy              =     -31.99540795 Ry
     Harris-Foulkes estimate   =     -32.01157074 Ry
     estimated scf accuracy    <       0.94091434 Ry

     iteration # 26     ecut=    30.00 Ry     beta=0.70
     Davidson diagonalization with overlap
     ethr =  1.25E-03,  avg # of iterations =  1.0

     total cpu time spent up to now is        1.2 secs

     total energy              =     -32.04942948 Ry
     Harris-Foulkes estimate   =     -31.99544408 Ry
     estimated scf accuracy    <       0.91293295 Ry

     iteration # 27     ecut=    30.00 Ry     beta=0.70
     Davidson diagonalization with overlap
     ethr =  1.25E-03,  avg # of iterations =  1.0

     negative rho (up, down):  4.341E-08 0.000E+00

     total cpu time spent up to now is        1.2 secs

     total energy              =     -32.03616327 Ry
     Harris-Foulkes estimate   =     -32.04966295 Ry
     estimated scf accuracy    <       0.99741337 Ry

     iteration # 28     ecut=    30.00 Ry     beta=0.70
     Davidson diagonalization with overlap
     ethr =  1.25E-03,  avg # of iterations =  1.0

     negative rho (up, down):  1.402E-06 0.000E+00

     total cpu time spent up to now is        1.2 secs

     total energy              =     -32.08182142 Ry
     Harris-Foulkes estimate   =     -32.03617925 Ry
     estimated scf accuracy    <       0.97799517 Ry

     iteration # 29     ecut=    30.00 Ry     beta=0.70
     Davidson diagonalization with overlap
     ethr =  1.25E-03,  avg # of iterations =  1.0

     negative rho (up, down):  6.219E-07 0.000E+00

     total cpu time spent up to now is        1.3 secs

     total energy              =     -32.03467130 Ry
     Harris-Foulkes estimate   =     -32.08194152 Ry
     estimated scf accuracy    <       1.04744145 Ry

     iteration # 30     ecut=    30.00 Ry     beta=0.70
     Davidson diagonalization with overlap
     ethr =  1.25E-03,  avg # of iterations =  1.0

     negative rho (up, down):  7.591E-04 0.000E+00

     total cpu time spent up to now is        1.3 secs

     total energy              =     -31.33148585 Ry
     Harris-Foulkes estimate   =     -32.03480333 Ry
     estimated scf accuracy    <       0.97653422 Ry

     iteration # 31     ecut=    30.00 Ry     beta=0.70
     Davidson diagonalization with overlap
     ethr =  1.25E-03,  avg # of iterations =  4.0

     negative rho (up, down):  1.221E-03 0.000E+00

     total cpu time spent up to now is        1.3 secs

     total energy              =     -33.51481835 Ry
     Harris-Foulkes estimate   =     -33.52294396 Ry
     estimated scf accuracy    <      10.56263645 Ry

     iteration # 32     ecut=    30.00 Ry     beta=0.70
     Davidson diagonalization with overlap
     ethr =  1.25E-03,  avg # of iterations =  1.0

     negative rho (up, down):  4.678E-03 0.000E+00

     total cpu time spent up to now is        1.4 secs

     total energy              =     -33.48267577 Ry
     Harris-Foulkes estimate   =     -33.51574012 Ry
     estimated scf accuracy    <      10.55210359 Ry

     iteration # 33     ecut=    30.00 Ry     beta=0.70
     Davidson diagonalization with overlap
     ethr =  1.25E-03,  avg # of iterations =  1.0

     negative rho (up, down):  3.875E-03 0.000E+00

     total cpu time spent up to now is        1.4 secs

     total energy              =     -33.48408018 Ry
     Harris-Foulkes estimate   =     -33.48594520 Ry
     estimated scf accuracy    <      10.73186463 Ry

     iteration # 34     ecut=    30.00 Ry     beta=0.70
     Davidson diagonalization with overlap
     ethr =  1.25E-03,  avg # of iterations =  1.0

     negative rho (up, down):  8.610E-02 0.000E+00

     total cpu time spent up to now is        1.4 secs

     total energy              =     -33.70803854 Ry
     Harris-Foulkes estimate   =     -33.48569900 Ry
     estimated scf accuracy    <      10.55759835 Ry

     iteration # 35     ecut=    30.00 Ry     beta=0.70
     Davidson diagonalization with overlap
     ethr =  1.25E-03,  avg # of iterations =  6.0

     negative rho (up, down):  9.170E-02 0.000E+00

     total cpu time spent up to now is        1.5 secs

     total energy              =     -33.79887591 Ry
     Harris-Foulkes estimate   =     -33.71944951 Ry
     estimated scf accuracy    <      11.38991107 Ry

     iteration # 36     ecut=    30.00 Ry     beta=0.70
     Davidson diagonalization with overlap
     ethr =  1.25E-03,  avg # of iterations =  1.0

     negative rho (up, down):  9.981E-02 0.000E+00

     total cpu time spent up to now is        1.5 secs

     total energy              =     -33.77769323 Ry
     Harris-Foulkes estimate   =     -33.80128239 Ry
     estimated scf accuracy    <      11.47229654 Ry

     iteration # 37     ecut=    30.00 Ry     beta=0.70
     Davidson diagonalization with overlap
     ethr =  1.25E-03,  avg # of iterations =  1.0

     negative rho (up, down):  1.112E-01 0.000E+00

     total cpu time spent up to now is        1.5 secs

     total energy              =     -33.76626595 Ry
     Harris-Foulkes estimate   =     -33.78331454 Ry
     estimated scf accuracy    <      11.53044533 Ry

     iteration # 38     ecut=    30.00 Ry     beta=0.70
     Davidson diagonalization with overlap
     ethr =  1.25E-03,  avg # of iterations =  2.0

     negative rho (up, down):  6.165E-02 0.000E+00

     total cpu time spent up to now is        1.6 secs

     total energy              =     -31.35865129 Ry
     Harris-Foulkes estimate   =     -33.78394484 Ry
     estimated scf accuracy    <      11.59202611 Ry

     iteration # 39     ecut=    30.00 Ry     beta=0.70
     Davidson diagonalization with overlap
     ethr =  1.25E-03,  avg # of iterations =  4.0

     negative rho (up, down):  5.228E-01 0.000E+00

     total cpu time spent up to now is        1.6 secs

     total energy              =     -31.00922247 Ry
     Harris-Foulkes estimate   =     -32.24376408 Ry
     estimated scf accuracy    <       1.86450879 Ry

     iteration # 40     ecut=    30.00 Ry     beta=0.70
     Davidson diagonalization with overlap
     ethr =  1.25E-03,  avg # of iterations =  6.0

     negative rho (up, down):  6.112E-02 0.000E+00

     total cpu time spent up to now is        1.7 secs

     total energy              =     -32.26917588 Ry
     Harris-Foulkes estimate   =     -33.23563337 Ry
     estimated scf accuracy    <       2.94079148 Ry

     iteration # 41     ecut=    30.00 Ry     beta=0.70
     Davidson diagonalization with overlap
     ethr =  1.25E-03,  avg # of iterations =  3.0

     negative rho (up, down):  2.098E-02 0.000E+00

     total cpu time spent up to now is        1.7 secs

     total energy              =     -32.01192819 Ry
     Harris-Foulkes estimate   =     -32.28981614 Ry
     estimated scf accuracy    <       1.41284629 Ry

     iteration # 42     ecut=    30.00 Ry     beta=0.70
     Davidson diagonalization with overlap
     ethr =  1.25E-03,  avg # of iterations =  1.0

     negative rho (up, down):  1.210E-02 0.000E+00

     total cpu time spent up to now is        1.8 secs

     total energy              =     -31.90495869 Ry
     Harris-Foulkes estimate   =     -32.01478477 Ry
     estimated scf accuracy    <       0.98846716 Ry

     iteration # 43     ecut=    30.00 Ry     beta=0.70
     Davidson diagonalization with overlap
     ethr =  1.25E-03,  avg # of iterations =  1.0

     negative rho (up, down):  5.601E-05 0.000E+00

     total cpu time spent up to now is        1.8 secs

     total energy              =     -32.76463313 Ry
     Harris-Foulkes estimate   =     -31.97208935 Ry
     estimated scf accuracy    <       1.27462023 Ry

     iteration # 44     ecut=    30.00 Ry     beta=0.70
     Davidson diagonalization with overlap
     ethr =  1.25E-03,  avg # of iterations =  5.0

     negative rho (up, down):  4.329E-03 0.000E+00

     total cpu time spent up to now is        1.8 secs

     total energy              =     -33.02800273 Ry
     Harris-Foulkes estimate   =     -32.82826161 Ry
     estimated scf accuracy    <       2.82132725 Ry

     iteration # 45     ecut=    30.00 Ry     beta=0.70
     Davidson diagonalization with overlap
     ethr =  1.25E-03,  avg # of iterations =  1.0

     negative rho (up, down):  3.941E-04 0.000E+00

     total cpu time spent up to now is        1.9 secs

     total energy              =     -32.85899082 Ry
     Harris-Foulkes estimate   =     -33.03206633 Ry
     estimated scf accuracy    <       3.34412363 Ry

     iteration # 46     ecut=    30.00 Ry     beta=0.70
     Davidson diagonalization with overlap
     ethr =  1.25E-03,  avg # of iterations =  1.0

     negative rho (up, down):  1.945E-03 0.000E+00

     total cpu time spent up to now is        1.9 secs

     total energy              =     -32.73528623 Ry
     Harris-Foulkes estimate   =     -32.86199011 Ry
     estimated scf accuracy    <       2.94498150 Ry

     iteration # 47     ecut=    30.00 Ry     beta=0.70
     Davidson diagonalization with overlap
     ethr =  1.25E-03,  avg # of iterations =  1.0

     negative rho (up, down):  5.672E-03 0.000E+00

     total cpu time spent up to now is        1.9 secs

     total energy              =     -32.19391408 Ry
     Harris-Foulkes estimate   =     -32.73892888 Ry
     estimated scf accuracy    <       2.67474111 Ry

     iteration # 48     ecut=    30.00 Ry     beta=0.70
     Davidson diagonalization with overlap
     ethr =  1.25E-03,  avg # of iterations =  3.0

     negative rho (up, down):  1.584E-02 0.000E+00

     total cpu time spent up to now is        2.0 secs

     total energy              =     -32.42596259 Ry
     Harris-Foulkes estimate   =     -32.22141743 Ry
     estimated scf accuracy    <       1.70123835 Ry

     iteration # 49     ecut=    30.00 Ry     beta=0.70
     Davidson diagonalization with overlap
     ethr =  1.25E-03,  avg # of iterations =  1.0

     negative rho (up, down):  1.178E-02 0.000E+00

     total cpu time spent up to now is        2.0 secs

     total energy              =     -32.59937895 Ry
     Harris-Foulkes estimate   =     -32.43012508 Ry
     estimated scf accuracy    <       2.07612031 Ry

     iteration # 50     ecut=    30.00 Ry     beta=0.70
     Davidson diagonalization with overlap
     ethr =  1.25E-03,  avg # of iterations =  1.0

     negative rho (up, down):  9.882E-03 0.000E+00

     total cpu time spent up to now is        2.1 secs

     total energy              =     -32.70622568 Ry
     Harris-Foulkes estimate   =     -32.60342487 Ry
     estimated scf accuracy    <       2.40628001 Ry

     iteration # 51     ecut=    30.00 Ry     beta=0.70
     Davidson diagonalization with overlap
     ethr =  1.25E-03,  avg # of iterations =  1.0

     negative rho (up, down):  2.622E-01 0.000E+00

     total cpu time spent up to now is        2.1 secs

     total energy              =     -30.95922762 Ry
     Harris-Foulkes estimate   =     -32.70773514 Ry
     estimated scf accuracy    <       2.58463010 Ry

     iteration # 52     ecut=    30.00 Ry     beta=0.70
     Davidson diagonalization with overlap
     ethr =  1.25E-03,  avg # of iterations =  6.0

     negative rho (up, down):  5.784E-02 0.000E+00

     total cpu time spent up to now is        2.1 secs

     total energy              =     -32.09559826 Ry
     Harris-Foulkes estimate   =     -33.35514063 Ry
     estimated scf accuracy    <       2.84226007 Ry

     iteration # 53     ecut=    30.00 Ry     beta=0.70
     Davidson diagonalization with overlap
     ethr =  1.25E-03,  avg # of iterations =  3.0

     negative rho (up, down):  6.364E-03 0.000E+00

     total cpu time spent up to now is        2.2 secs

     total energy              =     -31.75525956 Ry
     Harris-Foulkes estimate   =     -32.13040302 Ry
     estimated scf accuracy    <       1.06582217 Ry

     iteration # 54     ecut=    30.00 Ry     beta=0.70
     Davidson diagonalization with overlap
     ethr =  1.25E-03,  avg # of iterations =  3.0

     negative rho (up, down):  5.682E-03 0.000E+00

     total cpu time spent up to now is        2.2 secs

     total energy              =     -31.57377685 Ry
     Harris-Foulkes estimate   =     -32.17298696 Ry
     estimated scf accuracy    <       1.53593881 Ry

     iteration # 55     ecut=    30.00 Ry     beta=0.70
     Davidson diagonalization with overlap
     ethr =  1.25E-03,  avg # of iterations =  2.0

     negative rho (up, down):  3.311E-03 0.000E+00

     total cpu time spent up to now is        2.3 secs

     total energy              =     -32.22395977 Ry
     Harris-Foulkes estimate   =     -32.30490503 Ry
     estimated scf accuracy    <       1.39772082 Ry

     iteration # 56     ecut=    30.00 Ry     beta=0.70
     Davidson diagonalization with overlap
     ethr =  1.25E-03,  avg # of iterations =  1.0

     negative rho (up, down):  2.756E-04 0.000E+00

     total cpu time spent up to now is        2.3 secs

     total energy              =     -31.86353295 Ry
     Harris-Foulkes estimate   =     -32.22428497 Ry
     estimated scf accuracy    <       1.28027596 Ry

     iteration # 57     ecut=    30.00 Ry     beta=0.70
     Davidson diagonalization with overlap
     ethr =  1.25E-03,  avg # of iterations =  2.0

     negative rho (up, down):  5.396E-04 0.000E+00

     total cpu time spent up to now is        2.3 secs

     total energy              =     -31.88594963 Ry
     Harris-Foulkes estimate   =     -32.00796418 Ry
     estimated scf accuracy    <       1.30505259 Ry

     iteration # 58     ecut=    30.00 Ry     beta=0.70
     Davidson diagonalization with overlap
     ethr =  1.25E-03,  avg # of iterations =  1.0

     total cpu time spent up to now is        2.3 secs

     total energy              =     -31.86245856 Ry
     Harris-Foulkes estimate   =     -31.97156358 Ry
     estimated scf accuracy    <       0.81523783 Ry

     iteration # 59     ecut=    30.00 Ry     beta=0.70
     Davidson diagonalization with overlap
     ethr =  1.25E-03,  avg # of iterations =  1.0

     negative rho (up, down):  2.589E-07 0.000E+00

     total cpu time spent up to now is        2.4 secs

     total energy              =     -31.98221560 Ry
     Harris-Foulkes estimate   =     -32.02617715 Ry
     estimated scf accuracy    <       1.26987504 Ry

     iteration # 60     ecut=    30.00 Ry     beta=0.70
     Davidson diagonalization with overlap
     ethr =  1.25E-03,  avg # of iterations =  1.0

     negative rho (up, down):  1.877E-05 0.000E+00

     total cpu time spent up to now is        2.4 secs

     total energy              =     -31.90653713 Ry
     Harris-Foulkes estimate   =     -31.97998138 Ry
     estimated scf accuracy    <       1.56499536 Ry

     iteration # 61     ecut=    30.00 Ry     beta=0.70
     Davidson diagonalization with overlap
     ethr =  1.25E-03,  avg # of iterations =  1.0

     negative rho (up, down):  3.586E-08 0.000E+00

     total cpu time spent up to now is        2.4 secs

     total energy              =     -31.94350635 Ry
     Harris-Foulkes estimate   =     -31.95097473 Ry
     estimated scf accuracy    <       0.25941455 Ry

     iteration # 62     ecut=    30.00 Ry     beta=0.70
     Davidson diagonalization with overlap
     ethr =  1.25E-03,  avg # of iterations =  1.0

     negative rho (up, down):  3.112E-07 0.000E+00

     total cpu time spent up to now is        2.5 secs

     total energy              =     -31.94666508 Ry
     Harris-Foulkes estimate   =     -31.94674119 Ry
     estimated scf accuracy    <       0.00143183 Ry

     iteration # 63     ecut=    30.00 Ry     beta=0.70
     Davidson diagonalization with overlap
     ethr =  1.79E-05,  avg # of iterations =  8.0

     negative rho (up, down):  4.718E-07 0.000E+00

     total cpu time spent up to now is        2.5 secs

     total energy              =     -31.94694850 Ry
     Harris-Foulkes estimate   =     -31.94673872 Ry
     estimated scf accuracy    <       0.00137793 Ry

     iteration # 64     ecut=    30.00 Ry     beta=0.70
     Davidson diagonalization with overlap
     ethr =  1.72E-05,  avg # of iterations =  1.0

     total cpu time spent up to now is        2.6 secs

     total energy              =     -31.94773979 Ry
     Harris-Foulkes estimate   =     -31.94751617 Ry
     estimated scf accuracy    <       0.06139692 Ry

     iteration # 65     ecut=    30.00 Ry     beta=0.70
     Davidson diagonalization with overlap
     ethr =  1.72E-05,  avg # of iterations =  1.0

     total cpu time spent up to now is        2.6 secs

     total energy              =     -31.94776916 Ry
     Harris-Foulkes estimate   =     -31.94776127 Ry
     estimated scf accuracy    <       0.08106911 Ry

     iteration # 66     ecut=    30.00 Ry     beta=0.70
     Davidson diagonalization with overlap
     ethr =  1.72E-05,  avg # of iterations =  1.0

     total cpu time spent up to now is        2.6 secs

     total energy              =     -31.94692105 Ry
     Harris-Foulkes estimate   =     -31.94776975 Ry
     estimated scf accuracy    <       0.08147127 Ry

     iteration # 67     ecut=    30.00 Ry     beta=0.70
     Davidson diagonalization with overlap
     ethr =  1.72E-05,  avg # of iterations =  1.0

     total cpu time spent up to now is        2.7 secs

     total energy              =     -31.94683411 Ry
     Harris-Foulkes estimate   =     -31.94709220 Ry
     estimated scf accuracy    <       0.02862969 Ry

     iteration # 68     ecut=    30.00 Ry     beta=0.70
     Davidson diagonalization with overlap
     ethr =  1.72E-05,  avg # of iterations =  1.0

     total cpu time spent up to now is        2.7 secs

     total energy              =     -31.94647660 Ry
     Harris-Foulkes estimate   =     -31.94687854 Ry
     estimated scf accuracy    <       0.01218355 Ry

     iteration # 69     ecut=    30.00 Ry     beta=0.70
     Davidson diagonalization with overlap
     ethr =  1.72E-05,  avg # of iterations =  1.0

     total cpu time spent up to now is        2.7 secs

     total energy              =     -31.94670908 Ry
     Harris-Foulkes estimate   =     -31.94672977 Ry
     estimated scf accuracy    <       0.00081039 Ry

     iteration # 70     ecut=    30.00 Ry     beta=0.70
     Davidson diagonalization with overlap
     ethr =  1.01E-05,  avg # of iterations =  1.0

     total cpu time spent up to now is        2.8 secs

     total energy              =     -31.94671822 Ry
     Harris-Foulkes estimate   =     -31.94671857 Ry
     estimated scf accuracy    <       0.00000340 Ry

     iteration # 71     ecut=    30.00 Ry     beta=0.70
     Davidson diagonalization with overlap
     ethr =  4.25E-08,  avg # of iterations =  1.0

     total cpu time spent up to now is        2.8 secs

     total energy              =     -31.94671830 Ry
     Harris-Foulkes estimate   =     -31.94671827 Ry
     estimated scf accuracy    <       0.00000002 Ry

     iteration # 72     ecut=    30.00 Ry     beta=0.70
     Davidson diagonalization with overlap
     ethr =  2.82E-10,  avg # of iterations =  1.0

     total cpu time spent up to now is        2.8 secs

     End of self-consistent calculation

          k = 0.0000 0.0000 0.0000 ( 22119 PWs)   bands (ev):

   -24.7817 -10.6312  -7.0551  -7.0447  -6.8953  -0.6962   0.2968   0.8578

     the Fermi energy is    -6.8743 ev

!    total energy              =     -31.94671827 Ry
     Harris-Foulkes estimate   =     -31.94671830 Ry
     estimated scf accuracy    <          2.1E-09 Ry

     convergence has been achieved in  72 iterations

     Forces acting on atoms (Ry/au):

     atom    1 type  1   force =    -0.00036305   -0.00036421    0.00002150
     atom    2 type  1   force =    -0.01211819    0.00460164   -0.00448324
     atom    3 type  2   force =     0.01248124   -0.00423743    0.00446175

     Total force =     0.019546     Total SCF correction =     0.000015

     Molecular Dynamics Calculation

     Starting temperature  =  1000.00 K

     temperature is controlled by Andersen thermostat
     Collision frequency = 1.0000/timestep
     mass H                =     1.01
     mass O                =    16.00
     Time step             =   100.00 a.u.,  4.8378 femto-seconds

     Entering Dynamics:    iteration =     1
                           time      =   0.0048 pico-seconds


     Andersen thermostat:    3 collisions

ATOMIC_POSITIONS (bohr)
H       17.886355099  20.061373351   3.594965132
H       14.427617578  15.997667603   9.649368656
O       15.916266230  14.990568897  10.705075893


     kinetic energy (Ekin) =     0.01369959 Ry
     temperature           =   720.99741743 K 
     Ekin + Etot (const)   =   -31.93301868 Ry

     Linear momentum :   -0.0000000000   -0.0000000000    0.0000000000

     Writing output data file pwscf.save
     Check: negative starting charge=   -0.346011
     NEW-OLD atomic charge density approx. for the potential
     Check: negative starting charge=   -0.347185

     negative rho (up, down):  7.386E-02 0.000E+00

     total cpu time spent up to now is        3.2 secs

     per-process dynamical memory:    20.4 Mb

     Self-consistent Calculation

     iteration #  1     ecut=    30.00 Ry     beta=0.70
     Davidson diagonalization with overlap
     c_bands:  1 eigenvalues not converged
     ethr =  1.00E-06,  avg # of iterations = 20.0

     negative rho (up, down):  1.766E-02 0.000E+00

     total cpu time spent up to now is        3.3 secs

     total energy              =     -31.81364967 Ry
     Harris-Foulkes estimate   =     -31.88594909 Ry
     estimated scf accuracy    <       0.14818191 Ry

     iteration #  2     ecut=    30.00 Ry     beta=0.70
     Davidson diagonalization with overlap
     ethr =  1.85E-03,  avg # of iterations =  3.0

     negative rho (up, down):  1.475E-02 0.000E+00

     total cpu time spent up to now is        3.3 secs

     total energy              =     -31.98316316 Ry
     Harris-Foulkes estimate   =     -32.43522356 Ry
     estimated scf accuracy    <       1.79674006 Ry

     iteration #  3     ecut=    30.00 Ry     beta=0.70
     Davidson diagonalization with overlap
     ethr =  1.85E-03,  avg # of iterations =  2.0

     negative rho (up, down):  1.392E-02 0.000E+00

     total cpu time spent up to now is        3.4 secs

     total energy              =     -31.95213350 Ry
     Harris-Foulkes estimate   =     -32.00526736 Ry
     estimated scf accuracy    <       0.96483695 Ry

     iteration #  4     ecut=    30.00 Ry     beta=0.70
     Davidson diagonalization with overlap
     ethr =  1.85E-03,  avg # of iterations =  1.0

     negative rho (up, down):  4.146E-03 0.000E+00

     total cpu time spent up to now is        3.4 secs

     total energy              =     -31.62464515 Ry
     Harris-Foulkes estimate   =     -31.95262308 Ry
     estimated scf accuracy    <       0.79953196 Ry

     iteration #  5     ecut=    30.00 Ry     beta=0.70
     Davidson diagonalization with overlap
     ethr =  1.85E-03,  avg # of iterations =  3.0

     negative rho (up, down):  1.860E-03 0.000E+00

     total cpu time spent up to now is        3.4 secs

     total energy              =     -32.39653580 Ry
     Harris-Foulkes estimate   =     -32.44456972 Ry
     estimated scf accuracy    <       2.01145178 Ry

     iteration #  6     ecut=    30.00 Ry     beta=0.70
     Davidson diagonalization with overlap
     ethr =  1.85E-03,  avg # of iterations =  1.0

     negative rho (up, down):  2.381E-04 0.000E+00

     total cpu time spent up to now is        3.5 secs

     total energy              =     -32.11969348 Ry
     Harris-Foulkes estimate   =     -32.39676464 Ry
     estimated scf accuracy    <       1.92641263 Ry

     iteration #  7     ecut=    30.00 Ry     beta=0.70
     Davidson diagonalization with overlap
     ethr =  1.85E-03,  avg # of iterations =  1.0

     negative rho (up, down):  9.667E-05 0.000E+00

     total cpu time spent up to now is        3.5 secs

     total energy              =     -32.03723583 Ry
     Harris-Foulkes estimate   =     -32.12479336 Ry
     estimated scf accuracy    <       1.44858452 Ry

     iteration #  8     ecut=    30.00 Ry     beta=0.70
     Davidson diagonalization with overlap
     ethr =  1.85E-03,  avg # of iterations =  1.0

     negative rho (up, down):  9.342E-05 0.000E+00

     total cpu time spent up to now is        3.5 secs

     total energy              =     -31.97765769 Ry
     Harris-Foulkes estimate   =     -32.03820840 Ry
     estimated scf accuracy    <       1.29141721 Ry

     iteration #  9     ecut=    30.00 Ry     beta=0.70
     Davidson diagonalization with overlap
     ethr =  1.85E-03,  avg # of iterations =  1.0

     negative rho (up, down):  9.014E-05 0.000E+00

     total cpu time spent up to now is        3.6 secs

     total energy              =     -31.98036276 Ry
     Harris-Foulkes estimate   =     -31.97534982 Ry
     estimated scf accuracy    <       1.55135247 Ry

     iteration # 10     ecut=    30.00 Ry     beta=0.70
     Davidson diagonalization with overlap
     ethr =  1.85E-03,  avg # of iterations =  1.0

     negative rho (up, down):  5.656E-04 0.000E+00

     total cpu time spent up to now is        3.6 secs

     total energy              =     -32.20689437 Ry
     Harris-Foulkes estimate   =     -31.98039963 Ry
     estimated scf accuracy    <       1.55587620 Ry

     iteration # 11     ecut=    30.00 Ry     beta=0.70
     Davidson diagonalization with overlap
     ethr =  1.85E-03,  avg # of iterations =  1.0

     negative rho (up, down):  7.968E-03 0.000E+00

     total cpu time spent up to now is        3.6 secs

     total energy              =     -32.39478952 Ry
     Harris-Foulkes estimate   =     -32.18568697 Ry
     estimated scf accuracy    <       1.54545653 Ry

     iteration # 12     ecut=    30.00 Ry     beta=0.70
     Davidson diagonalization with overlap
     ethr =  1.85E-03,  avg # of iterations =  1.0

     negative rho (up, down):  8.928E-04 0.000E+00

     total cpu time spent up to now is        3.7 secs

     total energy              =     -32.20083913 Ry
     Harris-Foulkes estimate   =     -32.39909514 Ry
     estimated scf accuracy    <       1.94496868 Ry

     iteration # 13     ecut=    30.00 Ry     beta=0.70
     Davidson diagonalization with overlap
     ethr =  1.85E-03,  avg # of iterations =  1.0

     negative rho (up, down):  6.709E-05 0.000E+00

     total cpu time spent up to now is        3.7 secs

     total energy              =     -31.93440658 Ry
     Harris-Foulkes estimate   =     -32.20380279 Ry
     estimated scf accuracy    <       1.60345469 Ry

     iteration # 14     ecut=    30.00 Ry     beta=0.70
     Davidson diagonalization with overlap
     ethr =  1.85E-03,  avg # of iterations =  1.0

     negative rho (up, down):  9.709E-04 0.000E+00

     total cpu time spent up to now is        3.7 secs

     total energy              =     -31.99775506 Ry
     Harris-Foulkes estimate   =     -31.94567169 Ry
     estimated scf accuracy    <       0.14906727 Ry

     iteration # 15     ecut=    30.00 Ry     beta=0.70
     Davidson diagonalization with overlap
     ethr =  1.85E-03,  avg # of iterations =  1.0

     negative rho (up, down):  1.034E-03 0.000E+00

     total cpu time spent up to now is        3.8 secs

     total energy              =     -32.11820777 Ry
     Harris-Foulkes estimate   =     -32.07928552 Ry
     estimated scf accuracy    <       1.33784328 Ry

     iteration # 16     ecut=    30.00 Ry     beta=0.70
     Davidson diagonalization with overlap
     ethr =  1.85E-03,  avg # of iterations =  1.0

     negative rho (up, down):  2.691E-03 0.000E+00

     total cpu time spent up to now is        3.8 secs

     total energy              =     -32.16382933 Ry
     Harris-Foulkes estimate   =     -32.11861923 Ry
     estimated scf accuracy    <       1.41480759 Ry

     iteration # 17     ecut=    30.00 Ry     beta=0.70
     Davidson diagonalization with overlap
     ethr =  1.85E-03,  avg # of iterations =  1.0

     negative rho (up, down):  3.066E-04 0.000E+00

     total cpu time spent up to now is        3.8 secs

     total energy              =     -32.05966684 Ry
     Harris-Foulkes estimate   =     -32.16407376 Ry
     estimated scf accuracy    <       1.49189241 Ry

     iteration # 18     ecut=    30.00 Ry     beta=0.70
     Davidson diagonalization with overlap
     ethr =  1.85E-03,  avg # of iterations =  1.0

     negative rho (up, down):  1.746E-04 0.000E+00

     total cpu time spent up to now is        3.9 secs

     total energy              =     -31.97218031 Ry
     Harris-Foulkes estimate   =     -32.06038813 Ry
     estimated scf accuracy    <       1.32774870 Ry

     iteration # 19     ecut=    30.00 Ry     beta=0.70
     Davidson diagonalization with overlap
     ethr =  1.85E-03,  avg # of iterations =  1.0

     negative rho (up, down):  4.875E-05 0.000E+00

     total cpu time spent up to now is        3.9 secs

     total energy              =     -31.73040153 Ry
     Harris-Foulkes estimate   =     -31.96975988 Ry
     estimated scf accuracy    <       1.45576949 Ry

     iteration # 20     ecut=    30.00 Ry     beta=0.70
     Davidson diagonalization with overlap
     ethr =  1.85E-03,  avg # of iterations =  1.0

     negative rho (up, down):  4.898E-05 0.000E+00

     total cpu time spent up to now is        3.9 secs

     total energy              =     -31.94358080 Ry
     Harris-Foulkes estimate   =     -32.09703007 Ry
     estimated scf accuracy    <       1.10512276 Ry

     iteration # 21     ecut=    30.00 Ry     beta=0.70
     Davidson diagonalization with overlap
     ethr =  1.85E-03,  avg # of iterations =  1.0

     negative rho (up, down):  1.271E-05 0.000E+00

     total cpu time spent up to now is        4.0 secs

     total energy              =     -31.91460582 Ry
     Harris-Foulkes estimate   =     -31.94951806 Ry
     estimated scf accuracy    <       0.34566074 Ry

     iteration # 22     ecut=    30.00 Ry     beta=0.70
     Davidson diagonalization with overlap
     ethr =  1.85E-03,  avg # of iterations =  1.0

     negative rho (up, down):  4.441E-07 0.000E+00

     total cpu time spent up to now is        4.0 secs

     total energy              =     -31.82842468 Ry
     Harris-Foulkes estimate   =     -31.97614942 Ry
     estimated scf accuracy    <       1.54338727 Ry

     iteration # 23     ecut=    30.00 Ry     beta=0.70
     Davidson diagonalization with overlap
     ethr =  1.85E-03,  avg # of iterations =  1.0

     negative rho (up, down):  2.811E-07 0.000E+00

     total cpu time spent up to now is        4.1 secs

     total energy              =     -31.99567327 Ry
     Harris-Foulkes estimate   =     -32.00385005 Ry
     estimated scf accuracy    <       0.94454701 Ry

     iteration # 24     ecut=    30.00 Ry     beta=0.70
     Davidson diagonalization with overlap
     ethr =  1.85E-03,  avg # of iterations =  1.0

     negative rho (up, down):  7.679E-08 0.000E+00

     total cpu time spent up to now is        4.1 secs

     total energy              =     -31.96982682 Ry
     Harris-Foulkes estimate   =     -31.99571674 Ry
     estimated scf accuracy    <       0.93438686 Ry

     iteration # 25     ecut=    30.00 Ry     beta=0.70
     Davidson diagonalization with overlap
     ethr =  1.85E-03,  avg # of iterations =  1.0

     negative rho (up, down):  6.992E-08 0.000E+00

     total cpu time spent up to now is        4.2 secs

     total energy              =     -31.96839608 Ry
     Harris-Foulkes estimate   =     -31.97002711 Ry
     estimated scf accuracy    <       0.84898676 Ry

     iteration # 26     ecut=    30.00 Ry     beta=0.70
     Davidson diagonalization with overlap
     ethr =  1.85E-03,  avg # of iterations =  1.0

     negative rho (up, down):  1.968E-08 0.000E+00

     total cpu time spent up to now is        4.2 secs

     total energy              =     -31.93325846 Ry
     Harris-Foulkes estimate   =     -31.96840461 Ry
     estimated scf accuracy    <       0.83334013 Ry

     iteration # 27     ecut=    30.00 Ry     beta=0.70
     Davidson diagonalization with overlap
     ethr =  1.85E-03,  avg # of iterations =  1.0

     total cpu time spent up to now is        4.2 secs

     total energy              =     -31.94484077 Ry
     Harris-Foulkes estimate   =     -31.94401632 Ry
     estimated scf accuracy    <       0.01538606 Ry

     iteration # 28     ecut=    30.00 Ry     beta=0.70
     Davidson diagonalization with overlap
     ethr =  1.92E-04,  avg # of iterations =  1.0

     total cpu time spent up to now is        4.3 secs

     total energy              =     -31.94506839 Ry
     Harris-Foulkes estimate   =     -31.94557123 Ry
     estimated scf accuracy    <       0.11846415 Ry

     iteration # 29     ecut=    30.00 Ry     beta=0.70
     Davidson diagonalization with overlap
     ethr =  1.92E-04,  avg # of iterations =  1.0

     total cpu time spent up to now is        4.3 secs

     total energy              =     -31.94536843 Ry
     Harris-Foulkes estimate   =     -31.94510130 Ry
     estimated scf accuracy    <       0.08882180 Ry

     iteration # 30     ecut=    30.00 Ry     beta=0.70
     Davidson diagonalization with overlap
     ethr =  1.92E-04,  avg # of iterations =  1.0

     total cpu time spent up to now is        4.4 secs

     total energy              =     -31.94297431 Ry
     Harris-Foulkes estimate   =     -31.94538157 Ry
     estimated scf accuracy    <       0.10694838 Ry

     iteration # 31     ecut=    30.00 Ry     beta=0.70
     Davidson diagonalization with overlap
     ethr =  1.92E-04,  avg # of iterations =  1.0

     total cpu time spent up to now is        4.4 secs

     total energy              =     -31.94383446 Ry
     Harris-Foulkes estimate   =     -31.94387046 Ry
     estimated scf accuracy    <       0.00547555 Ry

     iteration # 32     ecut=    30.00 Ry     beta=0.70
     Davidson diagonalization with overlap
     ethr =  6.84E-05,  avg # of iterations =  1.0

     total cpu time spent up to now is        4.4 secs

     total energy              =     -31.94381360 Ry
     Harris-Foulkes estimate   =     -31.94383920 Ry
     estimated scf accuracy    <       0.00312494 Ry

     iteration # 33     ecut=    30.00 Ry     beta=0.70
     Davidson diagonalization with overlap
     ethr =  3.91E-05,  avg # of iterations =  1.0

     total cpu time spent up to now is        4.4 secs

     total energy              =     -31.94388799 Ry
     Harris-Foulkes estimate   =     -31.94381755 Ry
     estimated scf accuracy    <       0.00151621 Ry

     iteration # 34     ecut=    30.00 Ry     beta=0.70
     Davidson diagonalization with overlap
     ethr =  1.90E-05,  avg # of iterations =  1.0

     negative rho (up, down):  3.688E-08 0.000E+00

     total cpu time spent up to now is        4.5 secs

     total energy              =     -31.94519071 Ry
     Harris-Foulkes estimate   =     -31.94394546 Ry
     estimated scf accuracy    <       0.01081258 Ry

     iteration # 35     ecut=    30.00 Ry     beta=0.70
     Davidson diagonalization with overlap
     ethr =  1.90E-05,  avg # of iterations =  1.0

     total cpu time spent up to now is        4.5 secs

     total energy              =     -31.94067294 Ry
     Harris-Foulkes estimate   =     -31.94730617 Ry
     estimated scf accuracy    <       0.21940238 Ry

     iteration # 36     ecut=    30.00 Ry     beta=0.70
     Davidson diagonalization with overlap
     ethr =  1.90E-05,  avg # of iterations =  1.0

     total cpu time spent up to now is        4.6 secs

     total energy              =     -31.94380401 Ry
     Harris-Foulkes estimate   =     -31.94380442 Ry
     estimated scf accuracy    <       0.00002623 Ry

     iteration # 37     ecut=    30.00 Ry     beta=0.70
     Davidson diagonalization with overlap
     ethr =  3.28E-07,  avg # of iterations =  8.0

     total cpu time spent up to now is        4.6 secs

     total energy              =     -31.94377476 Ry
     Harris-Foulkes estimate   =     -31.94382108 Ry
     estimated scf accuracy    <       0.00138755 Ry

     iteration # 38     ecut=    30.00 Ry     beta=0.70
     Davidson diagonalization with overlap
     ethr =  3.28E-07,  avg # of iterations =  1.0

     total cpu time spent up to now is        4.6 secs

     total energy              =     -31.94380762 Ry
     Harris-Foulkes estimate   =     -31.94381044 Ry
     estimated scf accuracy    <       0.00022601 Ry

     iteration # 39     ecut=    30.00 Ry     beta=0.70
     Davidson diagonalization with overlap
     ethr =  3.28E-07,  avg # of iterations =  1.0

     total cpu time spent up to now is        4.7 secs

     total energy              =     -31.94381062 Ry
     Harris-Foulkes estimate   =     -31.94380812 Ry
     estimated scf accuracy    <       0.00008702 Ry

     iteration # 40     ecut=    30.00 Ry     beta=0.70
     Davidson diagonalization with overlap
     ethr =  3.28E-07,  avg # of iterations =  1.0

     total cpu time spent up to now is        4.7 secs

     total energy              =     -31.94379784 Ry
     Harris-Foulkes estimate   =     -31.94381092 Ry
     estimated scf accuracy    <       0.00015563 Ry

     iteration # 41     ecut=    30.00 Ry     beta=0.70
     Davidson diagonalization with overlap
     ethr =  3.28E-07,  avg # of iterations =  2.0

     total cpu time spent up to now is        4.7 secs

     total energy              =     -31.94380478 Ry
     Harris-Foulkes estimate   =     -31.94380785 Ry
     estimated scf accuracy    <       0.00008971 Ry

     iteration # 42     ecut=    30.00 Ry     beta=0.70
     Davidson diagonalization with overlap
     ethr =  3.28E-07,  avg # of iterations =  1.0

     total cpu time spent up to now is        4.8 secs

     total energy              =     -31.94380621 Ry
     Harris-Foulkes estimate   =     -31.94380603 Ry
     estimated scf accuracy    <       0.00000029 Ry

     iteration # 43     ecut=    30.00 Ry     beta=0.70
     Davidson diagonalization with overlap
     ethr =  3.59E-09,  avg # of iterations =  2.0

     total cpu time spent up to now is        4.8 secs

     total energy              =     -31.94380633 Ry
     Harris-Foulkes estimate   =     -31.94380631 Ry
     estimated scf accuracy    <       0.00000095 Ry

     iteration # 44     ecut=    30.00 Ry     beta=0.70
     Davidson diagonalization with overlap
     ethr =  3.59E-09,  avg # of iterations =  1.0

     total cpu time spent up to now is        4.8 secs

     End of self-consistent calculation

          k = 0.0000 0.0000 0.0000 ( 22119 PWs)   bands (ev):

   -24.5877 -10.5116  -7.0513  -7.0435  -6.8979  -0.8352   0.2265   0.8392

     the Fermi energy is    -6.8736 ev

!    total energy              =     -31.94380640 Ry
     Harris-Foulkes estimate   =     -31.94380635 Ry
     estimated scf accuracy    <          3.8E-09 Ry

     convergence has been achieved in  44 iterations

     Forces acting on atoms (Ry/au):

     atom    1 type  1   force =    -0.00030102   -0.00022362    0.00029373
     atom    2 type  1   force =     0.04554590   -0.03167285    0.03309778
     atom    3 type  2   force =    -0.04524488    0.03189646   -0.03339151

     Total force =     0.091393     Total SCF correction =     0.000137

     Entering Dynamics:    iteration =     2
                           time      =   0.0097 pico-seconds


     Andersen thermostat:    3 collisions

ATOMIC_POSITIONS (bohr)
H       17.944434967  19.587686751   3.505458459
H       15.168331389  15.633894426   9.867963963
O       15.865842379  15.043433546  10.696927173


     kinetic energy (Ekin) =     0.02801937 Ry
     temperature           =  1474.63449908 K 
     Ekin + Etot (const)   =   -31.91578703 Ry
     Message from routine dynamics:
     Total linear momentum <> 0

     Linear momentum :    0.2754824804   -0.1240895650    0.2785139739

     Writing output data file pwscf.save

     first order wave-functions extrapolation
     Check: negative starting charge=   -0.347185
     first order charge density extrapolation
     Check: negative starting charge=   -0.347963

     negative rho (up, down):  2.424E-01 0.000E+00

     total cpu time spent up to now is        5.2 secs

     per-process dynamical memory:    20.4 Mb

     Self-consistent Calculation

     iteration #  1     ecut=    30.00 Ry     beta=0.70
     Davidson diagonalization with overlap
     c_bands:  2 eigenvalues not converged
     ethr =  1.00E-06,  avg # of iterations = 20.0

     negative rho (up, down):  6.415E-02 0.000E+00

     total cpu time spent up to now is        5.3 secs

     total energy              =     -30.45810288 Ry
     Harris-Foulkes estimate   =     -31.53534939 Ry
     estimated scf accuracy    <       1.36713530 Ry

     iteration #  2     ecut=    30.00 Ry     beta=0.70
     Davidson diagonalization with overlap
     ethr =  1.00E-02,  avg # of iterations =  3.0

     negative rho (up, down):  8.863E-03 0.000E+00

     total cpu time spent up to now is        5.3 secs

     total energy              =     -30.28979043 Ry
     Harris-Foulkes estimate   =     -33.76486628 Ry
     estimated scf accuracy    <      11.76762590 Ry

     iteration #  3     ecut=    30.00 Ry     beta=0.70
     Davidson diagonalization with overlap
     ethr =  1.00E-02,  avg # of iterations =  3.0

     negative rho (up, down):  1.055E-02 0.000E+00

     total cpu time spent up to now is        5.4 secs

     total energy              =     -31.36706740 Ry
     Harris-Foulkes estimate   =     -31.51933407 Ry
     estimated scf accuracy    <       1.76189129 Ry

     iteration #  4     ecut=    30.00 Ry     beta=0.70
     Davidson diagonalization with overlap
     ethr =  1.00E-02,  avg # of iterations =  1.0

     negative rho (up, down):  1.746E-01 0.000E+00

     total cpu time spent up to now is        5.4 secs

     total energy              =     -30.81754565 Ry
     Harris-Foulkes estimate   =     -31.37095130 Ry
     estimated scf accuracy    <       1.46337964 Ry

     iteration #  5     ecut=    30.00 Ry     beta=0.70
     Davidson diagonalization with overlap
     ethr =  1.00E-02,  avg # of iterations =  5.0

     negative rho (up, down):  4.458E-02 0.000E+00

     total cpu time spent up to now is        5.4 secs

     total energy              =     -31.59102000 Ry
     Harris-Foulkes estimate   =     -31.76783655 Ry
     estimated scf accuracy    <       1.51026040 Ry

     iteration #  6     ecut=    30.00 Ry     beta=0.70
     Davidson diagonalization with overlap
     ethr =  1.00E-02,  avg # of iterations =  1.0

     negative rho (up, down):  6.355E-04 0.000E+00

     total cpu time spent up to now is        5.5 secs

     total energy              =     -31.44297058 Ry
     Harris-Foulkes estimate   =     -31.59209093 Ry
     estimated scf accuracy    <       1.20967257 Ry

     iteration #  7     ecut=    30.00 Ry     beta=0.70
     Davidson diagonalization with overlap
     ethr =  1.00E-02,  avg # of iterations =  1.0

     negative rho (up, down):  6.301E-02 0.000E+00

     total cpu time spent up to now is        5.5 secs

     total energy              =     -31.77870328 Ry
     Harris-Foulkes estimate   =     -31.44394113 Ry
     estimated scf accuracy    <       0.96673649 Ry

     iteration #  8     ecut=    30.00 Ry     beta=0.70
     Davidson diagonalization with overlap
     ethr =  1.00E-02,  avg # of iterations =  1.0

     negative rho (up, down):  6.047E-02 0.000E+00

     total cpu time spent up to now is        5.6 secs

     total energy              =     -31.73142021 Ry
     Harris-Foulkes estimate   =     -31.78551834 Ry
     estimated scf accuracy    <       1.45878825 Ry

     iteration #  9     ecut=    30.00 Ry     beta=0.70
     Davidson diagonalization with overlap
     ethr =  1.00E-02,  avg # of iterations =  1.0

     negative rho (up, down):  1.662E-01 0.000E+00

     total cpu time spent up to now is        5.6 secs

     total energy              =     -31.98605563 Ry
     Harris-Foulkes estimate   =     -31.73154982 Ry
     estimated scf accuracy    <       1.38661925 Ry

     iteration # 10     ecut=    30.00 Ry     beta=0.70
     Davidson diagonalization with overlap
     ethr =  1.00E-02,  avg # of iterations =  1.0

     negative rho (up, down):  5.939E-02 0.000E+00

     total cpu time spent up to now is        5.6 secs

     total energy              =     -30.96612946 Ry
     Harris-Foulkes estimate   =     -31.98658383 Ry
     estimated scf accuracy    <       1.74173013 Ry

     iteration # 11     ecut=    30.00 Ry     beta=0.70
     Davidson diagonalization with overlap
     ethr =  1.00E-02,  avg # of iterations =  2.0

     negative rho (up, down):  3.350E-04 0.000E+00

     total cpu time spent up to now is        5.7 secs

     total energy              =     -32.22173923 Ry
     Harris-Foulkes estimate   =     -31.97777667 Ry
     estimated scf accuracy    <       2.47000644 Ry

     iteration # 12     ecut=    30.00 Ry     beta=0.70
     Davidson diagonalization with overlap
     ethr =  1.00E-02,  avg # of iterations =  1.0

     negative rho (up, down):  7.442E-04 0.000E+00

     total cpu time spent up to now is        5.7 secs

     total energy              =     -31.89494521 Ry
     Harris-Foulkes estimate   =     -32.22762107 Ry
     estimated scf accuracy    <       2.87162135 Ry

     iteration # 13     ecut=    30.00 Ry     beta=0.70
     Davidson diagonalization with overlap
     ethr =  1.00E-02,  avg # of iterations =  1.0

     negative rho (up, down):  2.132E-01 0.000E+00

     total cpu time spent up to now is        5.7 secs

     total energy              =     -33.92228648 Ry
     Harris-Foulkes estimate   =     -31.90053802 Ry
     estimated scf accuracy    <       2.34417543 Ry

     iteration # 14     ecut=    30.00 Ry     beta=0.70
     Davidson diagonalization with overlap
     ethr =  1.00E-02,  avg # of iterations =  3.0

     negative rho (up, down):  2.100E-01 0.000E+00

     total cpu time spent up to now is        5.8 secs

     total energy              =     -35.04032821 Ry
     Harris-Foulkes estimate   =     -34.93600778 Ry
     estimated scf accuracy    <      27.33748569 Ry

     iteration # 15     ecut=    30.00 Ry     beta=0.70
     Davidson diagonalization with overlap
     ethr =  1.00E-02,  avg # of iterations =  1.0

     negative rho (up, down):  2.657E-03 0.000E+00

     total cpu time spent up to now is        5.8 secs

     total energy              =     -31.72645913 Ry
     Harris-Foulkes estimate   =     -35.05171346 Ry
     estimated scf accuracy    <      27.43848526 Ry

     iteration # 16     ecut=    30.00 Ry     beta=0.70
     Davidson diagonalization with overlap
     ethr =  1.00E-02,  avg # of iterations =  2.0

     negative rho (up, down):  4.125E-04 0.000E+00

     total cpu time spent up to now is        5.8 secs

     total energy              =     -30.78098388 Ry
     Harris-Foulkes estimate   =     -32.60665710 Ry
     estimated scf accuracy    <       9.86931470 Ry

     iteration # 17     ecut=    30.00 Ry     beta=0.70
     Davidson diagonalization with overlap
     ethr =  1.00E-02,  avg # of iterations =  7.0

     negative rho (up, down):  8.220E-06 0.000E+00

     total cpu time spent up to now is        5.9 secs

     total energy              =     -31.29224083 Ry
     Harris-Foulkes estimate   =     -31.65723447 Ry
     estimated scf accuracy    <       1.81340936 Ry

     iteration # 18     ecut=    30.00 Ry     beta=0.70
     Davidson diagonalization with overlap
     ethr =  1.00E-02,  avg # of iterations =  1.0

     negative rho (up, down):  9.499E-04 0.000E+00

     total cpu time spent up to now is        5.9 secs

     total energy              =     -31.17783082 Ry
     Harris-Foulkes estimate   =     -31.37991527 Ry
     estimated scf accuracy    <       0.66852088 Ry

     iteration # 19     ecut=    30.00 Ry     beta=0.70
     Davidson diagonalization with overlap
     ethr =  8.36E-03,  avg # of iterations =  1.0

     negative rho (up, down):  2.105E-03 0.000E+00

     total cpu time spent up to now is        6.0 secs

     total energy              =     -31.81353915 Ry
     Harris-Foulkes estimate   =     -31.62605351 Ry
     estimated scf accuracy    <       1.74419663 Ry

     iteration # 20     ecut=    30.00 Ry     beta=0.70
     Davidson diagonalization with overlap
     ethr =  8.36E-03,  avg # of iterations =  1.0

     negative rho (up, down):  1.962E-03 0.000E+00

     total cpu time spent up to now is        6.0 secs

     total energy              =     -31.73415653 Ry
     Harris-Foulkes estimate   =     -31.81783279 Ry
     estimated scf accuracy    <       2.06229536 Ry

     iteration # 21     ecut=    30.00 Ry     beta=0.70
     Davidson diagonalization with overlap
     ethr =  8.36E-03,  avg # of iterations =  1.0

     negative rho (up, down):  2.077E-03 0.000E+00

     total cpu time spent up to now is        6.0 secs

     total energy              =     -31.70980409 Ry
     Harris-Foulkes estimate   =     -31.73467836 Ry
     estimated scf accuracy    <       1.93685086 Ry

     iteration # 22     ecut=    30.00 Ry     beta=0.70
     Davidson diagonalization with overlap
     ethr =  8.36E-03,  avg # of iterations =  1.0

     negative rho (up, down):  1.635E-03 0.000E+00

     total cpu time spent up to now is        6.1 secs

     total energy              =     -31.71871111 Ry
     Harris-Foulkes estimate   =     -31.70994331 Ry
     estimated scf accuracy    <       1.88913166 Ry

     iteration # 23     ecut=    30.00 Ry     beta=0.70
     Davidson diagonalization with overlap
     ethr =  8.36E-03,  avg # of iterations =  1.0

     negative rho (up, down):  5.533E-06 0.000E+00

     total cpu time spent up to now is        6.1 secs

     total energy              =     -31.70457306 Ry
     Harris-Foulkes estimate   =     -31.71873421 Ry
     estimated scf accuracy    <       1.90038768 Ry

     iteration # 24     ecut=    30.00 Ry     beta=0.70
     Davidson diagonalization with overlap
     ethr =  8.36E-03,  avg # of iterations =  1.0

     negative rho (up, down):  9.496E-05 0.000E+00

     total cpu time spent up to now is        6.1 secs

     total energy              =     -31.68653174 Ry
     Harris-Foulkes estimate   =     -31.70481317 Ry
     estimated scf accuracy    <       1.86914489 Ry

     iteration # 25     ecut=    30.00 Ry     beta=0.70
     Davidson diagonalization with overlap
     ethr =  8.36E-03,  avg # of iterations =  1.0

     negative rho (up, down):  4.148E-04 0.000E+00

     total cpu time spent up to now is        6.2 secs

     total energy              =     -31.87626901 Ry
     Harris-Foulkes estimate   =     -31.68659301 Ry
     estimated scf accuracy    <       1.83911429 Ry

     iteration # 26     ecut=    30.00 Ry     beta=0.70
     Davidson diagonalization with overlap
     ethr =  8.36E-03,  avg # of iterations =  1.0

     negative rho (up, down):  1.430E-03 0.000E+00

     total cpu time spent up to now is        6.2 secs

     total energy              =     -31.78344178 Ry
     Harris-Foulkes estimate   =     -31.88087254 Ry
     estimated scf accuracy    <       2.14204466 Ry

     iteration # 27     ecut=    30.00 Ry     beta=0.70
     Davidson diagonalization with overlap
     ethr =  8.36E-03,  avg # of iterations =  1.0

     negative rho (up, down):  9.428E-02 0.000E+00

     total cpu time spent up to now is        6.2 secs

     total energy              =     -30.17870833 Ry
     Harris-Foulkes estimate   =     -31.78448020 Ry
     estimated scf accuracy    <       1.97953116 Ry

     iteration # 28     ecut=    30.00 Ry     beta=0.70
     Davidson diagonalization with overlap
     ethr =  8.36E-03,  avg # of iterations =  3.0

     negative rho (up, down):  4.351E-03 0.000E+00

     total cpu time spent up to now is        6.3 secs

     total energy              =     -31.62787722 Ry
     Harris-Foulkes estimate   =     -33.60899170 Ry
     estimated scf accuracy    <       4.14834996 Ry

     iteration # 29     ecut=    30.00 Ry     beta=0.70
     Davidson diagonalization with overlap
     ethr =  8.36E-03,  avg # of iterations =  4.0

     negative rho (up, down):  2.748E-03 0.000E+00

     total cpu time spent up to now is        6.3 secs

     total energy              =     -31.43789656 Ry
     Harris-Foulkes estimate   =     -31.72002622 Ry
     estimated scf accuracy    <       1.34610545 Ry

     iteration # 30     ecut=    30.00 Ry     beta=0.70
     Davidson diagonalization with overlap
     ethr =  8.36E-03,  avg # of iterations =  1.0

     total cpu time spent up to now is        6.3 secs

     total energy              =     -31.32453119 Ry
     Harris-Foulkes estimate   =     -31.43500875 Ry
     estimated scf accuracy    <       0.93636241 Ry

     iteration # 31     ecut=    30.00 Ry     beta=0.70
     Davidson diagonalization with overlap
     ethr =  8.36E-03,  avg # of iterations =  1.0

     negative rho (up, down):  2.709E-03 0.000E+00

     total cpu time spent up to now is        6.4 secs

     total energy              =     -31.31725545 Ry
     Harris-Foulkes estimate   =     -31.35324167 Ry
     estimated scf accuracy    <       0.21771064 Ry

     iteration # 32     ecut=    30.00 Ry     beta=0.70
     Davidson diagonalization with overlap
     ethr =  2.72E-03,  avg # of iterations =  1.0

     negative rho (up, down):  2.080E-06 0.000E+00

     total cpu time spent up to now is        6.4 secs

     total energy              =     -31.36757393 Ry
     Harris-Foulkes estimate   =     -31.40076193 Ry
     estimated scf accuracy    <       0.87622284 Ry

     iteration # 33     ecut=    30.00 Ry     beta=0.70
     Davidson diagonalization with overlap
     ethr =  2.72E-03,  avg # of iterations =  1.0

     total cpu time spent up to now is        6.4 secs

     total energy              =     -31.21428608 Ry
     Harris-Foulkes estimate   =     -31.36816631 Ry
     estimated scf accuracy    <       0.70748964 Ry

     iteration # 34     ecut=    30.00 Ry     beta=0.70
     Davidson diagonalization with overlap
     ethr =  2.72E-03,  avg # of iterations =  1.0

     total cpu time spent up to now is        6.5 secs

     total energy              =     -31.43922432 Ry
     Harris-Foulkes estimate   =     -31.52694701 Ry
     estimated scf accuracy    <       1.49212147 Ry

     iteration # 35     ecut=    30.00 Ry     beta=0.70
     Davidson diagonalization with overlap
     ethr =  2.72E-03,  avg # of iterations =  1.0

     total cpu time spent up to now is        6.5 secs

     total energy              =     -31.33705584 Ry
     Harris-Foulkes estimate   =     -31.43994763 Ry
     estimated scf accuracy    <       1.35110024 Ry

     iteration # 36     ecut=    30.00 Ry     beta=0.70
     Davidson diagonalization with overlap
     ethr =  2.72E-03,  avg # of iterations =  1.0

     negative rho (up, down):  1.131E-08 0.000E+00

     total cpu time spent up to now is        6.5 secs

     total energy              =     -31.35032864 Ry
     Harris-Foulkes estimate   =     -31.35037631 Ry
     estimated scf accuracy    <       0.00014124 Ry

     iteration # 37     ecut=    30.00 Ry     beta=0.70
     Davidson diagonalization with overlap
     ethr =  1.77E-06,  avg # of iterations = 16.0

     negative rho (up, down):  1.753E-08 0.000E+00

     total cpu time spent up to now is        6.6 secs

     total energy              =     -31.34791423 Ry
     Harris-Foulkes estimate   =     -31.35095331 Ry
     estimated scf accuracy    <       0.04282077 Ry

     iteration # 38     ecut=    30.00 Ry     beta=0.70
     Davidson diagonalization with overlap
     ethr =  1.77E-06,  avg # of iterations =  2.0

     total cpu time spent up to now is        6.6 secs

     total energy              =     -31.34438871 Ry
     Harris-Foulkes estimate   =     -31.35206277 Ry
     estimated scf accuracy    <       0.11178644 Ry

     iteration # 39     ecut=    30.00 Ry     beta=0.70
     Davidson diagonalization with overlap
     ethr =  1.77E-06,  avg # of iterations =  3.0

     total cpu time spent up to now is        6.7 secs

     total energy              =     -31.35317460 Ry
     Harris-Foulkes estimate   =     -31.35406385 Ry
     estimated scf accuracy    <       0.28868506 Ry

     iteration # 40     ecut=    30.00 Ry     beta=0.70
     Davidson diagonalization with overlap
     ethr =  1.77E-06,  avg # of iterations =  1.0

     total cpu time spent up to now is        6.7 secs

     total energy              =     -31.35057664 Ry
     Harris-Foulkes estimate   =     -31.35322732 Ry
     estimated scf accuracy    <       0.22336941 Ry

     iteration # 41     ecut=    30.00 Ry     beta=0.70
     Davidson diagonalization with overlap
     ethr =  1.77E-06,  avg # of iterations =  1.0

     total cpu time spent up to now is        6.7 secs

     total energy              =     -31.35058926 Ry
     Harris-Foulkes estimate   =     -31.35119229 Ry
     estimated scf accuracy    <       0.06268550 Ry

     iteration # 42     ecut=    30.00 Ry     beta=0.70
     Davidson diagonalization with overlap
     ethr =  1.77E-06,  avg # of iterations =  1.0

     total cpu time spent up to now is        6.8 secs

     total energy              =     -31.35033455 Ry
     Harris-Foulkes estimate   =     -31.35070244 Ry
     estimated scf accuracy    <       0.02421061 Ry

     iteration # 43     ecut=    30.00 Ry     beta=0.70
     Davidson diagonalization with overlap
     ethr =  1.77E-06,  avg # of iterations =  1.0

     total cpu time spent up to now is        6.8 secs

     total energy              =     -31.35032212 Ry
     Harris-Foulkes estimate   =     -31.35044223 Ry
     estimated scf accuracy    <       0.00408453 Ry

     iteration # 44     ecut=    30.00 Ry     beta=0.70
     Davidson diagonalization with overlap
     ethr =  1.77E-06,  avg # of iterations =  1.0

     total cpu time spent up to now is        6.8 secs

     total energy              =     -31.35038780 Ry
     Harris-Foulkes estimate   =     -31.35038922 Ry
     estimated scf accuracy    <       0.00005996 Ry

     iteration # 45     ecut=    30.00 Ry     beta=0.70
     Davidson diagonalization with overlap
     ethr =  7.50E-07,  avg # of iterations =  1.0

     total cpu time spent up to now is        6.9 secs

     total energy              =     -31.35038831 Ry
     Harris-Foulkes estimate   =     -31.35038845 Ry
     estimated scf accuracy    <       0.00000066 Ry

     iteration # 46     ecut=    30.00 Ry     beta=0.70
     Davidson diagonalization with overlap
     ethr =  8.31E-09,  avg # of iterations =  1.0

     total cpu time spent up to now is        6.9 secs

     End of self-consistent calculation

          k = 0.0000 0.0000 0.0000 ( 22119 PWs)   bands (ev):

   -28.4582 -11.5341  -7.3292  -7.3236  -7.1693  -0.3622   0.4593   0.8083

     the Fermi energy is    -7.1500 ev

!    total energy              =     -31.35038834 Ry
     Harris-Foulkes estimate   =     -31.35038832 Ry
     estimated scf accuracy    <          6.5E-09 Ry

     convergence has been achieved in  46 iterations

     Forces acting on atoms (Ry/au):

     atom    1 type  1   force =    -0.00003928   -0.00030080    0.00000239
     atom    2 type  1   force =    -1.38909571    1.17448493   -1.64938275
     atom    3 type  2   force =     1.38913499   -1.17418413    1.64938037

     Total force =     3.472510     Total SCF correction =     0.000057

     Entering Dynamics:    iteration =     3
                           time      =   0.0145 pico-seconds


     Andersen thermostat:    3 collisions

ATOMIC_POSITIONS (bohr)
H       17.753238279  19.450369819   4.048363890
H       -0.228976281  28.561550185  -7.671562565
O       16.849866717  14.236043407  11.769838879


     kinetic energy (Ekin) =     8.71438128 Ry
     temperature           = ************** K 
     Ekin + Etot (const)   =   -22.63600706 Ry
     Message from routine dynamics:
     Total linear momentum <> 0

     Linear momentum :    0.3577994790   -0.1784686041    0.0869883519

     Writing output data file pwscf.save

     second order wave-functions extrapolation
     Check: negative starting charge=   -0.347963
     second order charge density extrapolation
     Check: negative starting charge=   -0.341343

     negative rho (up, down):  1.084E+01 0.000E+00

     total cpu time spent up to now is        7.3 secs

     per-process dynamical memory:    20.4 Mb

     Self-consistent Calculation

     iteration #  1     ecut=    30.00 Ry     beta=0.70
     Davidson diagonalization with overlap
     c_bands:  2 eigenvalues not converged
     ethr =  1.00E-06,  avg # of iterations = 20.0

     negative rho (up, down):  2.703E+00 0.000E+00

     total cpu time spent up to now is        7.4 secs

     total energy              =      28.88026920 Ry
     Harris-Foulkes estimate   =   -3091.61652596 Ry
     estimated scf accuracy    <      92.03639940 Ry

     iteration #  2     ecut=    30.00 Ry     beta=0.70
     Davidson diagonalization with overlap
     ethr =  1.00E-02,  avg # of iterations =  9.0

     negative rho (up, down):  6.301E-01 0.000E+00

     total cpu time spent up to now is        7.5 secs

     total energy              =      73.26307758 Ry
     Harris-Foulkes estimate   =   -2519.07243165 Ry
     estimated scf accuracy    <      30.52218223 Ry

     iteration #  3     ecut=    30.00 Ry     beta=0.70
     Davidson diagonalization with overlap
     ethr =  1.00E-02,  avg # of iterations =  9.0

     negative rho (up, down):  3.000E-01 0.000E+00

     total cpu time spent up to now is        7.5 secs

     total energy              =     101.17968562 Ry
     Harris-Foulkes estimate   =   -1253.14607512 Ry
     estimated scf accuracy    <      33.60539394 Ry

     iteration #  4     ecut=    30.00 Ry     beta=0.70
     Davidson diagonalization with overlap
     ethr =  1.00E-02,  avg # of iterations =  8.0

     negative rho (up, down):  1.389E-01 0.000E+00

     total cpu time spent up to now is        7.6 secs

     total energy              =      72.02781221 Ry
     Harris-Foulkes estimate   =    -219.80194915 Ry
     estimated scf accuracy    <      20.14972345 Ry

     iteration #  5     ecut=    30.00 Ry     beta=0.70
     Davidson diagonalization with overlap
     ethr =  1.00E-02,  avg # of iterations =  9.0

     negative rho (up, down):  2.840E-01 0.000E+00

     total cpu time spent up to now is        7.6 secs

     total energy              =     -49.71509878 Ry
     Harris-Foulkes estimate   =     -60.62986130 Ry
     estimated scf accuracy    <      43.62625852 Ry

     iteration #  6     ecut=    30.00 Ry     beta=0.70
     Davidson diagonalization with overlap
     ethr =  1.00E-02,  avg # of iterations =  3.0

     negative rho (up, down):  2.838E-01 0.000E+00

     total cpu time spent up to now is        7.7 secs

     total energy              =     -43.73054056 Ry
     Harris-Foulkes estimate   =     -75.94663065 Ry
     estimated scf accuracy    <      21.03130161 Ry

     iteration #  7     ecut=    30.00 Ry     beta=0.70
     Davidson diagonalization with overlap
     ethr =  1.00E-02,  avg # of iterations =  3.0

     negative rho (up, down):  3.059E-01 0.000E+00

     total cpu time spent up to now is        7.7 secs

     total energy              =     -28.51700921 Ry
     Harris-Foulkes estimate   =     -58.75227767 Ry
     estimated scf accuracy    <      21.02995304 Ry

     iteration #  8     ecut=    30.00 Ry     beta=0.70
     Davidson diagonalization with overlap
     ethr =  1.00E-02,  avg # of iterations =  7.0

     negative rho (up, down):  2.360E+00 0.000E+00

     total cpu time spent up to now is        7.8 secs

     total energy              =    -130.97823698 Ry
     Harris-Foulkes estimate   =     -45.87876203 Ry
     estimated scf accuracy    <      22.82418885 Ry

     iteration #  9     ecut=    30.00 Ry     beta=0.70
     Davidson diagonalization with overlap
     ethr =  1.00E-02,  avg # of iterations = 11.0

     negative rho (up, down):  1.575E+00 0.000E+00

     total cpu time spent up to now is        7.8 secs

     total energy              =      61.95427104 Ry
     Harris-Foulkes estimate   =   -6482.79421800 Ry
     estimated scf accuracy    <      66.97076314 Ry

     iteration # 10     ecut=    30.00 Ry     beta=0.70
     Davidson diagonalization with overlap
     ethr =  1.00E-02,  avg # of iterations =  7.0

     negative rho (up, down):  1.273E+00 0.000E+00

     total cpu time spent up to now is        7.9 secs

     total energy              =   -3020.45688936 Ry
     Harris-Foulkes estimate   =    -915.43759121 Ry
     estimated scf accuracy    <      53.54712191 Ry

     iteration # 11     ecut=    30.00 Ry     beta=0.70
     Davidson diagonalization with overlap
     ethr =  1.00E-02,  avg # of iterations =  7.0

     negative rho (up, down):  3.952E-01 0.000E+00

     total cpu time spent up to now is        7.9 secs

[...]

     total energy              =    -181.62378386 Ry
     Harris-Foulkes estimate   =   -7853.98515986 Ry
     estimated scf accuracy    <      21.26814928 Ry

     iteration # 59     ecut=    30.00 Ry     beta=0.70
     Davidson diagonalization with overlap
     ethr =  1.00E-02,  avg # of iterations =  6.0

     negative rho (up, down):  1.501E+00 0.000E+00

     total cpu time spent up to now is       12.7 secs

     total energy              =   -1157.22717181 Ry
     Harris-Foulkes estimate   =   -3612.25675958 Ry
     estimated scf accuracy    <      17.63888392 Ry

     iteration # 60     ecut=    30.00 Ry     beta=0.70
     Davidson diagonalization with overlap
     ethr =  1.00E-02,  avg # of iterations =  6.0

     negative rho (up, down):  2.958E-01 0.000E+00

     total cpu time spent up to now is       12.8 secs

     total energy              =    -209.49671772 Ry
     Harris-Foulkes estimate   =   -7875.34926840 Ry
     estimated scf accuracy    <      21.98412072 Ry

     iteration # 61     ecut=    30.00 Ry     beta=0.70
     Davidson diagonalization with overlap
     ethr =  1.00E-02,  avg # of iterations = 10.0

     negative rho (up, down):  1.448E-01 0.000E+00

     total cpu time spent up to now is       12.9 secs

     total energy              =     111.30280066 Ry
     Harris-Foulkes estimate   =   -2940.82240992 Ry
     estimated scf accuracy    <      24.04347360 Ry

     iteration # 62     ecut=    30.00 Ry     beta=0.70
     Davidson diagonalization with overlap
     ethr =  1.00E-02,  avg # of iterations =  7.0

     negative rho (up, down):  7.842E-02 0.000E+00

     total cpu time spent up to now is       12.9 secs

     total energy              =    -323.43797440 Ry
     Harris-Foulkes estimate   =    -647.39177935 Ry
     estimated scf accuracy    <      28.83319655 Ry

     iteration # 63     ecut=    30.00 Ry     beta=0.70
     Davidson diagonalization with overlap
     ethr =  1.00E-02,  avg # of iterations =  6.0

     negative rho (up, down):  1.049E-01 0.000E+00

     total cpu time spent up to now is       13.0 secs

     total energy              =     138.01380993 Ry
     Harris-Foulkes estimate   =   -2680.70281235 Ry
     estimated scf accuracy    <      34.30732165 Ry

     iteration # 64     ecut=    30.00 Ry     beta=0.70
     Davidson diagonalization with overlap
     ethr =  1.00E-02,  avg # of iterations = 11.0

     negative rho (up, down):  2.971E-02 0.000E+00

     total cpu time spent up to now is       13.0 secs

     total energy              =     -79.52297590 Ry
     Harris-Foulkes estimate   =     -87.31046300 Ry
     estimated scf accuracy    <      76.52612741 Ry

     iteration # 65     ecut=    30.00 Ry     beta=0.70
     Davidson diagonalization with overlap
     ethr =  1.00E-02,  avg # of iterations =  1.0

     negative rho (up, down):  5.230E-02 0.000E+00

     total cpu time spent up to now is       13.1 secs

     total energy              =     -68.06178242 Ry
     Harris-Foulkes estimate   =     -79.54310623 Ry
     estimated scf accuracy    <      65.22715744 Ry

     iteration # 66     ecut=    30.00 Ry     beta=0.70
     Davidson diagonalization with overlap
     ethr =  1.00E-02,  avg # of iterations =  6.0

     negative rho (up, down):  2.757E-02 0.000E+00

     total cpu time spent up to now is       13.1 secs

     total energy              =      75.62072401 Ry
     Harris-Foulkes estimate   =   -1722.90410261 Ry
     estimated scf accuracy    <      17.59504886 Ry

     iteration # 67     ecut=    30.00 Ry     beta=0.70
     Davidson diagonalization with overlap
     ethr =  1.00E-02,  avg # of iterations =  8.0

     negative rho (up, down):  2.876E-03 0.000E+00

     total cpu time spent up to now is       13.2 secs

     total energy              =      27.58439262 Ry
     Harris-Foulkes estimate   =    -141.37499544 Ry
     estimated scf accuracy    <      16.44653830 Ry

     iteration # 68     ecut=    30.00 Ry     beta=0.70
     Davidson diagonalization with overlap
     ethr =  1.00E-02,  avg # of iterations =  6.0

     negative rho (up, down):  7.947E-02 0.000E+00

     total cpu time spent up to now is       13.2 secs

     total energy              =     -49.53500794 Ry
     Harris-Foulkes estimate   =     -60.95488005 Ry
     estimated scf accuracy    <      41.18782502 Ry

     iteration # 69     ecut=    30.00 Ry     beta=0.70
     Davidson diagonalization with overlap
     ethr =  1.00E-02,  avg # of iterations = 11.0

     negative rho (up, down):  6.538E-02 0.000E+00

     total cpu time spent up to now is       13.3 secs

     total energy              =      -9.41824111 Ry
     Harris-Foulkes estimate   =    -205.38144074 Ry
     estimated scf accuracy    <      21.22969368 Ry

     iteration # 70     ecut=    30.00 Ry     beta=0.70
     Davidson diagonalization with overlap
     ethr =  1.00E-02,  avg # of iterations =  7.0

     negative rho (up, down):  1.228E-03 0.000E+00

     total cpu time spent up to now is       13.3 secs

     total energy              =      69.73112431 Ry
     Harris-Foulkes estimate   =    -288.77184451 Ry
     estimated scf accuracy    <      22.39249255 Ry

     iteration # 71     ecut=    30.00 Ry     beta=0.70
     Davidson diagonalization with overlap
     ethr =  1.00E-02,  avg # of iterations =  6.0

     negative rho (up, down):  1.569E-02 0.000E+00

     total cpu time spent up to now is       13.4 secs

     total energy              =     -49.06802815 Ry
     Harris-Foulkes estimate   =     -52.41975741 Ry
     estimated scf accuracy    <      30.33587312 Ry

     iteration # 72     ecut=    30.00 Ry     beta=0.70
     Davidson diagonalization with overlap
     ethr =  1.00E-02,  avg # of iterations = 12.0

     negative rho (up, down):  7.337E-02 0.000E+00

     total cpu time spent up to now is       13.4 secs

     total energy              =      23.39863665 Ry
     Harris-Foulkes estimate   =     -87.76248278 Ry
     estimated scf accuracy    <      17.97261078 Ry

     iteration # 73     ecut=    30.00 Ry     beta=0.70
     Davidson diagonalization with overlap
     ethr =  1.00E-02,  avg # of iterations =  9.0

     negative rho (up, down):  8.887E-03 0.000E+00

     total cpu time spent up to now is       13.5 secs

     total energy              =      26.59739807 Ry
     Harris-Foulkes estimate   =    -103.69201973 Ry
     estimated scf accuracy    <      10.56656236 Ry

     iteration # 74     ecut=    30.00 Ry     beta=0.70
     Davidson diagonalization with overlap
     ethr =  1.00E-02,  avg # of iterations =  6.0

     negative rho (up, down):  1.773E-02 0.000E+00

     total cpu time spent up to now is       13.5 secs

     total energy              =     -45.47901346 Ry
     Harris-Foulkes estimate   =     -46.60385749 Ry
     estimated scf accuracy    <      22.64603122 Ry

     iteration # 75     ecut=    30.00 Ry     beta=0.70
     Davidson diagonalization with overlap
     ethr =  1.00E-02,  avg # of iterations =  2.0

     negative rho (up, down):  1.240E-02 0.000E+00

     total cpu time spent up to now is       13.6 secs

     total energy              =     -45.15590662 Ry
     Harris-Foulkes estimate   =     -45.47948962 Ry
     estimated scf accuracy    <      21.46342634 Ry

     iteration # 76     ecut=    30.00 Ry     beta=0.70
     Davidson diagonalization with overlap
     ethr =  1.00E-02,  avg # of iterations =  1.0

     negative rho (up, down):  6.002E-02 0.000E+00

     total cpu time spent up to now is       13.6 secs

     total energy              =     -42.14666560 Ry
     Harris-Foulkes estimate   =     -45.15695435 Ry
     estimated scf accuracy    <      20.96402537 Ry

     iteration # 77     ecut=    30.00 Ry     beta=0.70
     Davidson diagonalization with overlap
     ethr =  1.00E-02,  avg # of iterations =  7.0

     negative rho (up, down):  1.074E-01 0.000E+00

     total cpu time spent up to now is       13.7 secs

     total energy              =     -92.70576689 Ry
     Harris-Foulkes estimate   =    -350.16863398 Ry
     estimated scf accuracy    <      23.96604211 Ry

     iteration # 78     ecut=    30.00 Ry     beta=0.70
     Davidson diagonalization with overlap
     ethr =  1.00E-02,  avg # of iterations =  8.0

     negative rho (up, down):  1.543E-05 0.000E+00

     total cpu time spent up to now is       13.7 secs

     total energy              =      96.44625921 Ry
     Harris-Foulkes estimate   =    -229.02147161 Ry
     estimated scf accuracy    <      42.46701926 Ry

     iteration # 79     ecut=    30.00 Ry     beta=0.70
     Davidson diagonalization with overlap
     ethr =  1.00E-02,  avg # of iterations =  7.0

     negative rho (up, down):  4.719E-02 0.000E+00

     total cpu time spent up to now is       13.8 secs

     total energy              =     -41.06600564 Ry
     Harris-Foulkes estimate   =     -45.43421107 Ry
     estimated scf accuracy    <      21.34660759 Ry

     iteration # 80     ecut=    30.00 Ry     beta=0.70
     Davidson diagonalization with overlap
     ethr =  1.00E-02,  avg # of iterations = 11.0

     total cpu time spent up to now is       13.8 secs

     total energy              =      99.42775665 Ry
     Harris-Foulkes estimate   =    -214.14298158 Ry
     estimated scf accuracy    <      41.77839777 Ry

     iteration # 81     ecut=    30.00 Ry     beta=0.70
     Davidson diagonalization with overlap
     ethr =  1.00E-02,  avg # of iterations = 10.0

     negative rho (up, down):  5.543E-02 0.000E+00

     total cpu time spent up to now is       13.9 secs

     total energy              =     -45.50130916 Ry
     Harris-Foulkes estimate   =     -44.93974056 Ry
     estimated scf accuracy    <      20.60071761 Ry

     iteration # 82     ecut=    30.00 Ry     beta=0.70
     Davidson diagonalization with overlap
     ethr =  1.00E-02,  avg # of iterations =  4.0

     negative rho (up, down):  3.148E-02 0.000E+00

     total cpu time spent up to now is       13.9 secs

     total energy              =      -2.05778180 Ry
     Harris-Foulkes estimate   =    -534.86462818 Ry
     estimated scf accuracy    <      11.49284703 Ry

     iteration # 83     ecut=    30.00 Ry     beta=0.70
     Davidson diagonalization with overlap
     ethr =  1.00E-02,  avg # of iterations =  4.0

     negative rho (up, down):  6.931E-03 0.000E+00

     total cpu time spent up to now is       13.9 secs

     total energy              =     -44.00226124 Ry
     Harris-Foulkes estimate   =     -45.28479435 Ry
     estimated scf accuracy    <      20.60152371 Ry

     iteration # 84     ecut=    30.00 Ry     beta=0.70
     Davidson diagonalization with overlap
     ethr =  1.00E-02,  avg # of iterations =  1.0

     negative rho (up, down):  7.283E-03 0.000E+00

     total cpu time spent up to now is       14.0 secs

     total energy              =     -44.25176716 Ry
     Harris-Foulkes estimate   =     -44.00572397 Ry
     estimated scf accuracy    <      19.06378067 Ry

     iteration # 85     ecut=    30.00 Ry     beta=0.70
     Davidson diagonalization with overlap
     ethr =  1.00E-02,  avg # of iterations =  1.0

     negative rho (up, down):  1.442E-02 0.000E+00

     total cpu time spent up to now is       14.0 secs

     total energy              =     -43.82357176 Ry
     Harris-Foulkes estimate   =     -44.25210826 Ry
     estimated scf accuracy    <      19.27050474 Ry

     iteration # 86     ecut=    30.00 Ry     beta=0.70
     Davidson diagonalization with overlap
     ethr =  1.00E-02,  avg # of iterations =  1.0

     negative rho (up, down):  1.883E-02 0.000E+00

     total cpu time spent up to now is       14.1 secs

     total energy              =     -44.65613703 Ry
     Harris-Foulkes estimate   =     -43.82370210 Ry
     estimated scf accuracy    <      18.82648200 Ry

     iteration # 87     ecut=    30.00 Ry     beta=0.70
     Davidson diagonalization with overlap
     ethr =  1.00E-02,  avg # of iterations =  5.0

     negative rho (up, down):  2.802E-01 0.000E+00

     total cpu time spent up to now is       14.2 secs

     total energy              =    -123.37400120 Ry
     Harris-Foulkes estimate   =     -90.66612914 Ry
     estimated scf accuracy    <      18.19296129 Ry

     iteration # 88     ecut=    30.00 Ry     beta=0.70
     Davidson diagonalization with overlap
     ethr =  1.00E-02,  avg # of iterations =  9.0

     negative rho (up, down):  2.955E-01 0.000E+00

     total cpu time spent up to now is       14.2 secs

     total energy              =      53.13036905 Ry
     Harris-Foulkes estimate   =    -696.57326642 Ry
     estimated scf accuracy    <      54.53524770 Ry

     iteration # 89     ecut=    30.00 Ry     beta=0.70
     Davidson diagonalization with overlap
     ethr =  1.00E-02,  avg # of iterations = 10.0

     negative rho (up, down):  2.816E-01 0.000E+00

     total cpu time spent up to now is       14.3 secs

     total energy              =     -20.29867255 Ry
     Harris-Foulkes estimate   =    -112.65991396 Ry
     estimated scf accuracy    <      51.48999574 Ry

     iteration # 90     ecut=    30.00 Ry     beta=0.70
     Davidson diagonalization with overlap
     ethr =  1.00E-02,  avg # of iterations =  6.0

     negative rho (up, down):  1.271E-01 0.000E+00

     total cpu time spent up to now is       14.3 secs

     total energy              =      99.54616526 Ry
     Harris-Foulkes estimate   =    -375.52372234 Ry
     estimated scf accuracy    <      67.14993021 Ry

     iteration # 91     ecut=    30.00 Ry     beta=0.70
     Davidson diagonalization with overlap
     ethr =  1.00E-02,  avg # of iterations =  8.0

     negative rho (up, down):  1.289E-02 0.000E+00

     total cpu time spent up to now is       14.4 secs

     total energy              =      40.85212188 Ry
     Harris-Foulkes estimate   =     -74.29358454 Ry
     estimated scf accuracy    <      48.99586952 Ry

     iteration # 92     ecut=    30.00 Ry     beta=0.70
     Davidson diagonalization with overlap
     ethr =  1.00E-02,  avg # of iterations =  6.0

     negative rho (up, down):  1.256E-01 0.000E+00

     total cpu time spent up to now is       14.4 secs

     total energy              =     -16.67390828 Ry
     Harris-Foulkes estimate   =     -42.41976489 Ry
     estimated scf accuracy    <       6.82525051 Ry

     iteration # 93     ecut=    30.00 Ry     beta=0.70
     Davidson diagonalization with overlap
     ethr =  1.00E-02,  avg # of iterations =  9.0

     negative rho (up, down):  2.836E-01 0.000E+00

     total cpu time spent up to now is       14.5 secs

     total energy              =    -390.58210833 Ry
     Harris-Foulkes estimate   =    -980.25904069 Ry
     estimated scf accuracy    <      53.80534384 Ry

     iteration # 94     ecut=    30.00 Ry     beta=0.70
     Davidson diagonalization with overlap
     ethr =  1.00E-02,  avg # of iterations =  6.0

     negative rho (up, down):  3.280E-01 0.000E+00

     total cpu time spent up to now is       14.6 secs

     total energy              =       3.26767521 Ry
     Harris-Foulkes estimate   =   -3151.88907041 Ry
     estimated scf accuracy    <      53.57165102 Ry

     iteration # 95     ecut=    30.00 Ry     beta=0.70
     Davidson diagonalization with overlap
     ethr =  1.00E-02,  avg # of iterations =  6.0

     negative rho (up, down):  5.263E-01 0.000E+00

     total cpu time spent up to now is       14.6 secs

     total energy              =      45.84986489 Ry
     Harris-Foulkes estimate   =    -949.73477246 Ry
     estimated scf accuracy    <      45.48901509 Ry

     iteration # 96     ecut=    30.00 Ry     beta=0.70
     Davidson diagonalization with overlap
     ethr =  1.00E-02,  avg # of iterations =  7.0

     negative rho (up, down):  6.057E-01 0.000E+00

     total cpu time spent up to now is       14.7 secs

     total energy              =   -5557.07561045 Ry
     Harris-Foulkes estimate   =   -1384.59205450 Ry
     estimated scf accuracy    <      51.04736801 Ry

     iteration # 97     ecut=    30.00 Ry     beta=0.70
     Davidson diagonalization with overlap
     ethr =  1.00E-02,  avg # of iterations =  6.0

     negative rho (up, down):  6.409E-01 0.000E+00

     total cpu time spent up to now is       14.7 secs

     total energy              =   -2372.61329327 Ry
     Harris-Foulkes estimate   =  -15427.22521604 Ry
     estimated scf accuracy    <      40.21597876 Ry

     iteration # 98     ecut=    30.00 Ry     beta=0.70
     Davidson diagonalization with overlap
     ethr =  1.00E-02,  avg # of iterations =  6.0

     negative rho (up, down):  5.471E-01 0.000E+00

     total cpu time spent up to now is       14.8 secs

     total energy              =     -27.47408663 Ry
     Harris-Foulkes estimate   =   -6896.67609747 Ry
     estimated scf accuracy    <      38.53867818 Ry

     iteration # 99     ecut=    30.00 Ry     beta=0.70
     Davidson diagonalization with overlap
     ethr =  1.00E-02,  avg # of iterations =  8.0

     negative rho (up, down):  6.475E-01 0.000E+00

     total cpu time spent up to now is       14.8 secs

     total energy              =   15199.14572742 Ry
     Harris-Foulkes estimate   =    -951.25615798 Ry
     estimated scf accuracy    <      42.59839108 Ry

     iteration #100     ecut=    30.00 Ry     beta=0.70
     Davidson diagonalization with overlap
     ethr =  1.00E-02,  avg # of iterations =  8.0

     negative rho (up, down):  9.518E-01 0.000E+00

     total cpu time spent up to now is       14.9 secs

     total energy              =      29.52142519 Ry
     Harris-Foulkes estimate   =   -4889.90658109 Ry
     estimated scf accuracy    <      52.63382445 Ry

     End of self-consistent calculation

     convergence NOT achieved after 100 iterations: stopping

     Writing output data file pwscf.save
 
     init_run     :      0.09s CPU      0.11s WALL (       1 calls)
     electrons    :     10.80s CPU     13.46s WALL (       5 calls)
     update_pot   :      0.46s CPU      0.67s WALL (       4 calls)
     forces       :      0.11s CPU      0.11s WALL (       4 calls)

     Called by init_run:
     wfcinit      :      0.01s CPU      0.02s WALL (       1 calls)
     potinit      :      0.02s CPU      0.03s WALL (       1 calls)

     Called by electrons:
     c_bands      :      4.89s CPU      5.17s WALL (     322 calls)
     sum_band     :      0.94s CPU      1.03s WALL (     322 calls)
     v_of_rho     :      2.33s CPU      2.51s WALL (     327 calls)
     mix_rho      :      2.26s CPU      3.89s WALL (     322 calls)

     Called by c_bands:
     init_us_2    :      0.03s CPU      0.04s WALL (     645 calls)
     cegterg      :      4.82s CPU      5.00s WALL (     322 calls)

     Called by sum_band:

     Called by *egterg:
     h_psi        :      4.08s CPU      4.20s WALL (    1383 calls)
     g_psi        :      0.04s CPU      0.04s WALL (    1060 calls)
     cdiaghg      :      0.28s CPU      0.30s WALL (    1378 calls)

     Called by h_psi:
     h_psi:pot    :      4.05s CPU      4.18s WALL (    1383 calls)
     h_psi:calbec :      0.13s CPU      0.14s WALL (    1383 calls)
     vloc_psi     :      3.90s CPU      4.02s WALL (    1383 calls)
     add_vuspsi   :      0.01s CPU      0.01s WALL (    1383 calls)

     General routines
     calbec       :      0.15s CPU      0.17s WALL (    1402 calls)
     fft          :      1.56s CPU      1.67s WALL (    3605 calls)
     fftw         :      4.11s CPU      4.29s WALL (   18470 calls)
     davcio       :      0.35s CPU      1.42s WALL (    6008 calls)
 
     Parallel routines
     fft_scatter  :      2.29s CPU      2.50s WALL (   22075 calls)
 
     PWSCF        :    11.64s CPU        14.96s WALL

 
   This run was terminated on:   7:15:17  14Feb2018            

=------------------------------------------------------------------------------=
   JOB DONE.
=------------------------------------------------------------------------------=
