
     Program PWSCF v.6.0 (svn rev. 13079) starts on 14Feb2018 at  7:19:54 

     This program is part of the open-source Quantum ESPRESSO suite
     for quantum simulation of materials; please cite
         "P. Giannozzi et al., J. Phys.:Condens. Matter 21 395502 (2009);
          URL http://www.quantum-espresso.org", 
     in publications or presentations arising from this work. More details at
     http://www.quantum-espresso.org/quote

     Parallel version (MPI), running on    28 processors
     R & G space division:  proc/nbgrp/npool/nimage =      28
     Reading input from inputs/MD-H2O-2/74.in

     Current dimensions of program PWSCF are:
     Max number of different atomic species (ntypx) = 10
     Max number of k-points (npk) =  40000
     Max angular momentum in pseudopotentials (lmaxx) =  3

     Subspace diagonalization in iterative solution of the eigenvalue problem:
     a serial algorithm will be used

 
     Parallelization info
     --------------------
     sticks:   dense  smooth     PW     G-vecs:    dense   smooth      PW
     Min         136     136     33                 6338     6338     787
     Max         137     137     34                 6341     6341     792
     Sum        3809    3809    949               177509   177509   22119
 


     bravais-lattice index     =            1
     lattice parameter (alat)  =      20.0000  a.u.
     unit-cell volume          =    8000.0000 (a.u.)^3
     number of atoms/cell      =            3
     number of atomic types    =            2
     number of electrons       =         8.00
     number of Kohn-Sham states=            8
     kinetic-energy cutoff     =      30.0000  Ry
     charge density cutoff     =     120.0000  Ry
     convergence threshold     =      1.0E-08
     mixing beta               =       0.7000
     number of iterations used =            8  plain     mixing
     Exchange-correlation      = BLYP ( 1  3  1  3 0 0)
     nstep                     =         5000


     celldm(1)=  20.000000  celldm(2)=   0.000000  celldm(3)=   0.000000
     celldm(4)=   0.000000  celldm(5)=   0.000000  celldm(6)=   0.000000

     crystal axes: (cart. coord. in units of alat)
               a(1) = (   1.000000   0.000000   0.000000 )  
               a(2) = (   0.000000   1.000000   0.000000 )  
               a(3) = (   0.000000   0.000000   1.000000 )  

     reciprocal axes: (cart. coord. in units 2 pi/alat)
               b(1) = (  1.000000  0.000000  0.000000 )  
               b(2) = (  0.000000  1.000000  0.000000 )  
               b(3) = (  0.000000  0.000000  1.000000 )  


     PseudoPot. # 1 for  H read from file:
     ./H.blyp-hgh.UPF
     MD5 check sum: c576e69559cde411e611be972c763230
     Pseudo is Norm-conserving, Zval =  1.0
     Generated in analytical, separable form
     Using radial grid of  929 points,  0 beta functions with: 

     PseudoPot. # 2 for  O read from file:
     ./O.blyp-hgh.UPF
     MD5 check sum: d0b7156309aa9befef28faac7bc56342
     Pseudo is Norm-conserving, Zval =  6.0
     Generated in analytical, separable form
     Using radial grid of 1095 points,  1 beta functions with: 
                l(1) =   0

     atomic species   valence    mass     pseudopotential
        H              1.00     1.01000      H( 1.00)
        O              6.00    16.00000      O( 1.00)

     No symmetry found



   Cartesian axes

     site n.     atom                  positions (alat units)
         1           H   tau(   1) = (   0.4482293   0.6835612   0.4235173  )
         2           H   tau(   2) = (   0.9185902   0.1374259   0.6005006  )
         3           O   tau(   3) = (   0.8657526   0.1954619   0.6615927  )

     number of k points=     1  Marzari-Vanderbilt smearing, width (Ry)=  0.0250
                       cart. coord. in units 2pi/alat
        k(    1) = (   0.0000000   0.0000000   0.0000000), wk =   2.0000000

     Dense  grid:   177509 G-vectors     FFT dimensions: (  72,  72,  72)

     Estimated max dynamical RAM per process >       6.09Mb

     Estimated total allocated dynamical RAM >     170.64Mb

     Initial potential from superposition of free atoms
     Check: negative starting charge=   -0.350502

     starting charge    7.99998, renormalised to    8.00000

     negative rho (up, down):  3.505E-01 0.000E+00
     Starting wfc are    6 randomized atomic wfcs +    2 random wfc

     total cpu time spent up to now is        0.2 secs

     per-process dynamical memory:    18.8 Mb

     Self-consistent Calculation

     iteration #  1     ecut=    30.00 Ry     beta=0.70
     Davidson diagonalization with overlap
     ethr =  1.00E-02,  avg # of iterations =  6.0

     negative rho (up, down):  9.220E-02 0.000E+00

     total cpu time spent up to now is        0.3 secs

     total energy              =     -30.31488820 Ry
     Harris-Foulkes estimate   =     -32.23296435 Ry
     estimated scf accuracy    <       2.20937409 Ry

     iteration #  2     ecut=    30.00 Ry     beta=0.70
     Davidson diagonalization with overlap
     ethr =  1.00E-02,  avg # of iterations =  3.0

     negative rho (up, down):  6.700E-02 0.000E+00

     total cpu time spent up to now is        0.3 secs

     total energy              =     -32.31298597 Ry
     Harris-Foulkes estimate   =     -34.63982546 Ry
     estimated scf accuracy    <       5.64770604 Ry

     iteration #  3     ecut=    30.00 Ry     beta=0.70
     Davidson diagonalization with overlap
     ethr =  1.00E-02,  avg # of iterations =  2.0

     negative rho (up, down):  6.429E-02 0.000E+00

     total cpu time spent up to now is        0.4 secs

     total energy              =     -32.45516838 Ry
     Harris-Foulkes estimate   =     -32.54814895 Ry
     estimated scf accuracy    <       1.84880298 Ry

     iteration #  4     ecut=    30.00 Ry     beta=0.70
     Davidson diagonalization with overlap
     ethr =  1.00E-02,  avg # of iterations =  1.0

     negative rho (up, down):  1.146E-02 0.000E+00

     total cpu time spent up to now is        0.4 secs

     total energy              =     -31.27859219 Ry
     Harris-Foulkes estimate   =     -32.45548770 Ry
     estimated scf accuracy    <       1.72154656 Ry

     iteration #  5     ecut=    30.00 Ry     beta=0.70
     Davidson diagonalization with overlap
     ethr =  1.00E-02,  avg # of iterations =  4.0

     negative rho (up, down):  2.530E-02 0.000E+00

     total cpu time spent up to now is        0.4 secs

     total energy              =     -33.50285787 Ry
     Harris-Foulkes estimate   =     -33.31652331 Ry
     estimated scf accuracy    <       9.22473657 Ry

     iteration #  6     ecut=    30.00 Ry     beta=0.70
     Davidson diagonalization with overlap
     ethr =  1.00E-02,  avg # of iterations =  3.0

     negative rho (up, down):  3.074E-02 0.000E+00

     total cpu time spent up to now is        0.5 secs

     total energy              =     -33.52226674 Ry
     Harris-Foulkes estimate   =     -33.50688810 Ry
     estimated scf accuracy    <       9.70598397 Ry

     iteration #  7     ecut=    30.00 Ry     beta=0.70
     Davidson diagonalization with overlap
     ethr =  1.00E-02,  avg # of iterations =  1.0

     negative rho (up, down):  3.763E-02 0.000E+00

     total cpu time spent up to now is        0.5 secs

     total energy              =     -33.27742546 Ry
     Harris-Foulkes estimate   =     -33.52340193 Ry
     estimated scf accuracy    <       9.77718942 Ry

     iteration #  8     ecut=    30.00 Ry     beta=0.70
     Davidson diagonalization with overlap
     ethr =  1.00E-02,  avg # of iterations =  1.0

     negative rho (up, down):  5.638E-02 0.000E+00

     total cpu time spent up to now is        0.5 secs

     total energy              =     -32.79448612 Ry
     Harris-Foulkes estimate   =     -33.27945988 Ry
     estimated scf accuracy    <       8.97144570 Ry

     iteration #  9     ecut=    30.00 Ry     beta=0.70
     Davidson diagonalization with overlap
     ethr =  1.00E-02,  avg # of iterations =  1.0

     negative rho (up, down):  3.458E-02 0.000E+00

     total cpu time spent up to now is        0.6 secs

     total energy              =     -32.88346507 Ry
     Harris-Foulkes estimate   =     -32.92491158 Ry
     estimated scf accuracy    <       3.01299507 Ry

     iteration # 10     ecut=    30.00 Ry     beta=0.70
     Davidson diagonalization with overlap
     ethr =  1.00E-02,  avg # of iterations =  1.0

     negative rho (up, down):  5.390E-02 0.000E+00

     total cpu time spent up to now is        0.6 secs

     total energy              =     -32.79149566 Ry
     Harris-Foulkes estimate   =     -32.88452194 Ry
     estimated scf accuracy    <       2.92887453 Ry

     iteration # 11     ecut=    30.00 Ry     beta=0.70
     Davidson diagonalization with overlap
     ethr =  1.00E-02,  avg # of iterations =  1.0

     negative rho (up, down):  3.784E-01 0.000E+00

     total cpu time spent up to now is        0.6 secs

     total energy              =     -32.46336294 Ry
     Harris-Foulkes estimate   =     -32.79235588 Ry
     estimated scf accuracy    <       2.74605482 Ry

     iteration # 12     ecut=    30.00 Ry     beta=0.70
     Davidson diagonalization with overlap
     ethr =  1.00E-02,  avg # of iterations =  1.0

     negative rho (up, down):  4.487E-01 0.000E+00

     total cpu time spent up to now is        0.7 secs

     total energy              =     -32.46521996 Ry
     Harris-Foulkes estimate   =     -32.47198188 Ry
     estimated scf accuracy    <       2.20899045 Ry

     iteration # 13     ecut=    30.00 Ry     beta=0.70
     Davidson diagonalization with overlap
     ethr =  1.00E-02,  avg # of iterations =  1.0

     negative rho (up, down):  1.251E+00 0.000E+00

     total cpu time spent up to now is        0.7 secs

     total energy              =     -31.54738399 Ry
     Harris-Foulkes estimate   =     -32.46656277 Ry
     estimated scf accuracy    <       2.24725739 Ry

     iteration # 14     ecut=    30.00 Ry     beta=0.70
     Davidson diagonalization with overlap
     ethr =  1.00E-02,  avg # of iterations =  2.0

     negative rho (up, down):  8.805E-01 0.000E+00

     total cpu time spent up to now is        0.7 secs

     total energy              =     -32.15295507 Ry
     Harris-Foulkes estimate   =     -32.45498399 Ry
     estimated scf accuracy    <       1.65282403 Ry

     iteration # 15     ecut=    30.00 Ry     beta=0.70
     Davidson diagonalization with overlap
     ethr =  1.00E-02,  avg # of iterations =  1.0

     negative rho (up, down):  8.544E-03 0.000E+00

     total cpu time spent up to now is        0.8 secs

     total energy              =     -31.55612736 Ry
     Harris-Foulkes estimate   =     -32.15607608 Ry
     estimated scf accuracy    <       1.24440920 Ry

     iteration # 16     ecut=    30.00 Ry     beta=0.70
     Davidson diagonalization with overlap
     ethr =  1.00E-02,  avg # of iterations =  2.0

     negative rho (up, down):  6.316E-03 0.000E+00

     total cpu time spent up to now is        0.8 secs

     total energy              =     -32.43591640 Ry
     Harris-Foulkes estimate   =     -32.52153022 Ry
     estimated scf accuracy    <       2.16834953 Ry

     iteration # 17     ecut=    30.00 Ry     beta=0.70
     Davidson diagonalization with overlap
     ethr =  1.00E-02,  avg # of iterations =  1.0

     negative rho (up, down):  1.166E-02 0.000E+00

     total cpu time spent up to now is        0.8 secs

     total energy              =     -32.49097201 Ry
     Harris-Foulkes estimate   =     -32.43730180 Ry
     estimated scf accuracy    <       2.05595651 Ry

     iteration # 18     ecut=    30.00 Ry     beta=0.70
     Davidson diagonalization with overlap
     ethr =  1.00E-02,  avg # of iterations =  1.0

     negative rho (up, down):  1.958E-02 0.000E+00

     total cpu time spent up to now is        0.9 secs

     total energy              =     -32.43676715 Ry
     Harris-Foulkes estimate   =     -32.49171418 Ry
     estimated scf accuracy    <       2.12564689 Ry

     iteration # 19     ecut=    30.00 Ry     beta=0.70
     Davidson diagonalization with overlap
     ethr =  1.00E-02,  avg # of iterations =  1.0

     negative rho (up, down):  1.944E-02 0.000E+00

     total cpu time spent up to now is        0.9 secs

     total energy              =     -32.43095449 Ry
     Harris-Foulkes estimate   =     -32.43710913 Ry
     estimated scf accuracy    <       2.03801210 Ry

     iteration # 20     ecut=    30.00 Ry     beta=0.70
     Davidson diagonalization with overlap
     ethr =  1.00E-02,  avg # of iterations =  1.0

     negative rho (up, down):  2.379E-02 0.000E+00

     total cpu time spent up to now is        0.9 secs

     total energy              =     -32.41455115 Ry
     Harris-Foulkes estimate   =     -32.43099095 Ry
     estimated scf accuracy    <       2.02865479 Ry

     iteration # 21     ecut=    30.00 Ry     beta=0.70
     Davidson diagonalization with overlap
     ethr =  1.00E-02,  avg # of iterations =  1.0

     negative rho (up, down):  1.920E-02 0.000E+00

     total cpu time spent up to now is        1.0 secs

     total energy              =     -32.36789067 Ry
     Harris-Foulkes estimate   =     -32.41486797 Ry
     estimated scf accuracy    <       2.01742004 Ry

     iteration # 22     ecut=    30.00 Ry     beta=0.70
     Davidson diagonalization with overlap
     ethr =  1.00E-02,  avg # of iterations =  1.0

     negative rho (up, down):  9.590E-03 0.000E+00

     total cpu time spent up to now is        1.0 secs

     total energy              =     -32.36120544 Ry
     Harris-Foulkes estimate   =     -32.36876182 Ry
     estimated scf accuracy    <       1.91881574 Ry

     iteration # 23     ecut=    30.00 Ry     beta=0.70
     Davidson diagonalization with overlap
     ethr =  1.00E-02,  avg # of iterations =  1.0

     negative rho (up, down):  7.561E-02 0.000E+00

     total cpu time spent up to now is        1.0 secs

     total energy              =     -31.82178877 Ry
     Harris-Foulkes estimate   =     -32.36149957 Ry
     estimated scf accuracy    <       1.90038238 Ry

     iteration # 24     ecut=    30.00 Ry     beta=0.70
     Davidson diagonalization with overlap
     ethr =  1.00E-02,  avg # of iterations =  1.0

     negative rho (up, down):  9.169E-03 0.000E+00

     total cpu time spent up to now is        1.1 secs

     total energy              =     -31.81705758 Ry
     Harris-Foulkes estimate   =     -32.00147926 Ry
     estimated scf accuracy    <       0.98591018 Ry

     iteration # 25     ecut=    30.00 Ry     beta=0.70
     Davidson diagonalization with overlap
     ethr =  1.00E-02,  avg # of iterations =  1.0

     negative rho (up, down):  9.590E-03 0.000E+00

     total cpu time spent up to now is        1.1 secs

     total energy              =     -32.05056612 Ry
     Harris-Foulkes estimate   =     -32.07488139 Ry
     estimated scf accuracy    <       1.36769967 Ry

     iteration # 26     ecut=    30.00 Ry     beta=0.70
     Davidson diagonalization with overlap
     ethr =  1.00E-02,  avg # of iterations =  1.0

     negative rho (up, down):  8.340E-03 0.000E+00

     total cpu time spent up to now is        1.1 secs

     total energy              =     -31.95464329 Ry
     Harris-Foulkes estimate   =     -32.05082063 Ry
     estimated scf accuracy    <       1.34099108 Ry

     iteration # 27     ecut=    30.00 Ry     beta=0.70
     Davidson diagonalization with overlap
     ethr =  1.00E-02,  avg # of iterations =  1.0

     negative rho (up, down):  4.896E-05 0.000E+00

     total cpu time spent up to now is        1.2 secs

     total energy              =     -31.86801295 Ry
     Harris-Foulkes estimate   =     -31.95281735 Ry
     estimated scf accuracy    <       0.58387177 Ry

     iteration # 28     ecut=    30.00 Ry     beta=0.70
     Davidson diagonalization with overlap
     ethr =  7.30E-03,  avg # of iterations =  1.0

     negative rho (up, down):  5.685E-06 0.000E+00

     total cpu time spent up to now is        1.2 secs

     total energy              =     -31.98011351 Ry
     Harris-Foulkes estimate   =     -32.02641211 Ry
     estimated scf accuracy    <       1.03274936 Ry

     iteration # 29     ecut=    30.00 Ry     beta=0.70
     Davidson diagonalization with overlap
     ethr =  7.30E-03,  avg # of iterations =  1.0

     negative rho (up, down):  8.775E-06 0.000E+00

     total cpu time spent up to now is        1.2 secs

     total energy              =     -31.91551360 Ry
     Harris-Foulkes estimate   =     -31.98044909 Ry
     estimated scf accuracy    <       0.94746198 Ry

     iteration # 30     ecut=    30.00 Ry     beta=0.70
     Davidson diagonalization with overlap
     ethr =  7.30E-03,  avg # of iterations =  1.0

     negative rho (up, down):  1.369E-08 0.000E+00

     total cpu time spent up to now is        1.3 secs

     total energy              =     -31.86241914 Ry
     Harris-Foulkes estimate   =     -31.95159806 Ry
     estimated scf accuracy    <       0.45112591 Ry

     iteration # 31     ecut=    30.00 Ry     beta=0.70
     Davidson diagonalization with overlap
     ethr =  5.64E-03,  avg # of iterations =  1.0

     negative rho (up, down):  1.721E-05 0.000E+00

     total cpu time spent up to now is        1.3 secs

     total energy              =     -31.99861178 Ry
     Harris-Foulkes estimate   =     -32.05419404 Ry
     estimated scf accuracy    <       1.06437239 Ry

     iteration # 32     ecut=    30.00 Ry     beta=0.70
     Davidson diagonalization with overlap
     ethr =  5.64E-03,  avg # of iterations =  1.0

     negative rho (up, down):  3.146E-06 0.000E+00

     total cpu time spent up to now is        1.3 secs

     total energy              =     -31.93446991 Ry
     Harris-Foulkes estimate   =     -31.99888425 Ry
     estimated scf accuracy    <       0.98265042 Ry

     iteration # 33     ecut=    30.00 Ry     beta=0.70
     Davidson diagonalization with overlap
     ethr =  5.64E-03,  avg # of iterations =  1.0

     negative rho (up, down):  1.286E-07 0.000E+00

     total cpu time spent up to now is        1.3 secs

     total energy              =     -31.94781278 Ry
     Harris-Foulkes estimate   =     -31.94635071 Ry
     estimated scf accuracy    <       0.02470088 Ry

     iteration # 34     ecut=    30.00 Ry     beta=0.70
     Davidson diagonalization with overlap
     ethr =  3.09E-04,  avg # of iterations =  1.0

     negative rho (up, down):  8.725E-06 0.000E+00

     total cpu time spent up to now is        1.4 secs

     total energy              =     -31.94396294 Ry
     Harris-Foulkes estimate   =     -31.94927720 Ry
     estimated scf accuracy    <       0.21757286 Ry

     iteration # 35     ecut=    30.00 Ry     beta=0.70
     Davidson diagonalization with overlap
     ethr =  3.09E-04,  avg # of iterations =  1.0

     negative rho (up, down):  2.032E-05 0.000E+00

     total cpu time spent up to now is        1.4 secs

     total energy              =     -31.94692546 Ry
     Harris-Foulkes estimate   =     -31.94609898 Ry
     estimated scf accuracy    <       0.00511417 Ry

     iteration # 36     ecut=    30.00 Ry     beta=0.70
     Davidson diagonalization with overlap
     ethr =  6.39E-05,  avg # of iterations =  5.0

     negative rho (up, down):  1.689E-06 0.000E+00

     total cpu time spent up to now is        1.4 secs

     total energy              =     -31.95206136 Ry
     Harris-Foulkes estimate   =     -31.94909732 Ry
     estimated scf accuracy    <       0.20645646 Ry

     iteration # 37     ecut=    30.00 Ry     beta=0.70
     Davidson diagonalization with overlap
     ethr =  6.39E-05,  avg # of iterations =  1.0

     negative rho (up, down):  2.659E-07 0.000E+00

     total cpu time spent up to now is        1.5 secs

     total energy              =     -31.94528986 Ry
     Harris-Foulkes estimate   =     -31.95264231 Ry
     estimated scf accuracy    <       0.39777700 Ry

     iteration # 38     ecut=    30.00 Ry     beta=0.70
     Davidson diagonalization with overlap
     ethr =  6.39E-05,  avg # of iterations =  1.0

     negative rho (up, down):  3.836E-06 0.000E+00

     total cpu time spent up to now is        1.5 secs

     total energy              =     -31.93985816 Ry
     Harris-Foulkes estimate   =     -31.94714652 Ry
     estimated scf accuracy    <       0.08158206 Ry

     iteration # 39     ecut=    30.00 Ry     beta=0.70
     Davidson diagonalization with overlap
     ethr =  6.39E-05,  avg # of iterations =  1.0

     negative rho (up, down):  1.697E-07 0.000E+00

     total cpu time spent up to now is        1.6 secs

     total energy              =     -31.94975598 Ry
     Harris-Foulkes estimate   =     -31.95305870 Ry
     estimated scf accuracy    <       0.56065766 Ry

     iteration # 40     ecut=    30.00 Ry     beta=0.70
     Davidson diagonalization with overlap
     ethr =  6.39E-05,  avg # of iterations =  1.0

     negative rho (up, down):  2.650E-08 0.000E+00

     total cpu time spent up to now is        1.6 secs

     total energy              =     -31.94323075 Ry
     Harris-Foulkes estimate   =     -31.95012459 Ry
     estimated scf accuracy    <       0.33417334 Ry

     iteration # 41     ecut=    30.00 Ry     beta=0.70
     Davidson diagonalization with overlap
     ethr =  6.39E-05,  avg # of iterations =  1.0

     negative rho (up, down):  1.656E-08 0.000E+00

     total cpu time spent up to now is        1.6 secs

     total energy              =     -31.94581361 Ry
     Harris-Foulkes estimate   =     -31.94612086 Ry
     estimated scf accuracy    <       0.00786419 Ry

     iteration # 42     ecut=    30.00 Ry     beta=0.70
     Davidson diagonalization with overlap
     ethr =  6.39E-05,  avg # of iterations =  1.0

     negative rho (up, down):  1.093E-08 0.000E+00

     total cpu time spent up to now is        1.7 secs

     total energy              =     -31.94589154 Ry
     Harris-Foulkes estimate   =     -31.94605443 Ry
     estimated scf accuracy    <       0.00247352 Ry

     iteration # 43     ecut=    30.00 Ry     beta=0.70
     Davidson diagonalization with overlap
     ethr =  3.09E-05,  avg # of iterations =  1.0

     total cpu time spent up to now is        1.7 secs

     total energy              =     -31.94586173 Ry
     Harris-Foulkes estimate   =     -31.94611535 Ry
     estimated scf accuracy    <       0.00711789 Ry

     iteration # 44     ecut=    30.00 Ry     beta=0.70
     Davidson diagonalization with overlap
     ethr =  3.09E-05,  avg # of iterations =  1.0

     negative rho (up, down):  2.261E-08 0.000E+00

     total cpu time spent up to now is        1.8 secs

     total energy              =     -31.94595423 Ry
     Harris-Foulkes estimate   =     -31.94603989 Ry
     estimated scf accuracy    <       0.00121231 Ry

     iteration # 45     ecut=    30.00 Ry     beta=0.70
     Davidson diagonalization with overlap
     ethr =  1.52E-05,  avg # of iterations =  1.0

     total cpu time spent up to now is        1.8 secs

     total energy              =     -31.94606438 Ry
     Harris-Foulkes estimate   =     -31.94608166 Ry
     estimated scf accuracy    <       0.00440321 Ry

     iteration # 46     ecut=    30.00 Ry     beta=0.70
     Davidson diagonalization with overlap
     ethr =  1.52E-05,  avg # of iterations =  1.0

     total cpu time spent up to now is        1.8 secs

     total energy              =     -31.94599024 Ry
     Harris-Foulkes estimate   =     -31.94606567 Ry
     estimated scf accuracy    <       0.00316435 Ry

     iteration # 47     ecut=    30.00 Ry     beta=0.70
     Davidson diagonalization with overlap
     ethr =  1.52E-05,  avg # of iterations =  1.0

     total cpu time spent up to now is        1.9 secs

     total energy              =     -31.94602406 Ry
     Harris-Foulkes estimate   =     -31.94602474 Ry
     estimated scf accuracy    <       0.00001333 Ry

     iteration # 48     ecut=    30.00 Ry     beta=0.70
     Davidson diagonalization with overlap
     ethr =  1.67E-07,  avg # of iterations =  1.0

     total cpu time spent up to now is        1.9 secs

     total energy              =     -31.94602453 Ry
     Harris-Foulkes estimate   =     -31.94602436 Ry
     estimated scf accuracy    <       0.00000124 Ry

     iteration # 49     ecut=    30.00 Ry     beta=0.70
     Davidson diagonalization with overlap
     ethr =  1.55E-08,  avg # of iterations =  1.0

     total cpu time spent up to now is        1.9 secs

     total energy              =     -31.94602504 Ry
     Harris-Foulkes estimate   =     -31.94602455 Ry
     estimated scf accuracy    <       0.00000515 Ry

     iteration # 50     ecut=    30.00 Ry     beta=0.70
     Davidson diagonalization with overlap
     ethr =  1.55E-08,  avg # of iterations =  1.0

     total cpu time spent up to now is        2.0 secs

     total energy              =     -31.94602519 Ry
     Harris-Foulkes estimate   =     -31.94602513 Ry
     estimated scf accuracy    <       0.00000002 Ry

     iteration # 51     ecut=    30.00 Ry     beta=0.70
     Davidson diagonalization with overlap
     ethr =  1.94E-10,  avg # of iterations =  2.0

     total cpu time spent up to now is        2.0 secs

     total energy              =     -31.94602528 Ry
     Harris-Foulkes estimate   =     -31.94602519 Ry
     estimated scf accuracy    <       0.00000001 Ry

     iteration # 52     ecut=    30.00 Ry     beta=0.70
     Davidson diagonalization with overlap
     ethr =  1.61E-10,  avg # of iterations =  2.0

     total cpu time spent up to now is        2.0 secs

     total energy              =     -31.94602536 Ry
     Harris-Foulkes estimate   =     -31.94602529 Ry
     estimated scf accuracy    <       0.00000001 Ry

     iteration # 53     ecut=    30.00 Ry     beta=0.70
     Davidson diagonalization with overlap
     ethr =  1.61E-10,  avg # of iterations =  1.0

     total cpu time spent up to now is        2.1 secs

     End of self-consistent calculation

          k = 0.0000 0.0000 0.0000 ( 22119 PWs)   bands (ev):

   -24.7825 -10.6298  -7.0414  -7.0411  -6.9021  -0.6935   0.3674   0.8042

     the Fermi energy is    -6.8710 ev

!    total energy              =     -31.94602566 Ry
     Harris-Foulkes estimate   =     -31.94602536 Ry
     estimated scf accuracy    <          9.0E-09 Ry

     convergence has been achieved in  53 iterations

     Forces acting on atoms (Ry/au):

     atom    1 type  1   force =    -0.00021199   -0.00005230    0.00019284
     atom    2 type  1   force =     0.00861971   -0.01005364   -0.01050479
     atom    3 type  2   force =    -0.00840772    0.01010594    0.01031195

     Total force =     0.023769     Total SCF correction =     0.000154

     Molecular Dynamics Calculation

     Starting temperature  =  1000.00 K

     temperature is controlled by Andersen thermostat
     Collision frequency = 1.0000/timestep
     mass H                =     1.01
     mass O                =    16.00
     Time step             =   100.00 a.u.,  4.8378 femto-seconds

     Entering Dynamics:    iteration =     1
                           time      =   0.0048 pico-seconds


     Andersen thermostat:    3 collisions

ATOMIC_POSITIONS (bohr)
H        9.194993637  13.947480081   8.273265529
H       18.425153213   2.922924811  11.764059285
O       17.297139912   3.880790842  13.259820470


     kinetic energy (Ekin) =     0.01319564 Ry
     temperature           =   694.47456190 K 
     Ekin + Etot (const)   =   -31.93283002 Ry

     Linear momentum :   -0.0000000000    0.0000000000    0.0000000000

     Writing output data file pwscf.save
     Check: negative starting charge=   -0.350502
     NEW-OLD atomic charge density approx. for the potential
     Check: negative starting charge=   -0.350578

     negative rho (up, down):  8.913E-02 0.000E+00

     total cpu time spent up to now is        2.4 secs

     per-process dynamical memory:    20.4 Mb

     Self-consistent Calculation

     iteration #  1     ecut=    30.00 Ry     beta=0.70
     Davidson diagonalization with overlap
     c_bands:  1 eigenvalues not converged
     ethr =  1.00E-06,  avg # of iterations = 20.0

     negative rho (up, down):  2.179E-02 0.000E+00

     total cpu time spent up to now is        2.5 secs

     total energy              =     -31.81301055 Ry
     Harris-Foulkes estimate   =     -31.87575011 Ry
     estimated scf accuracy    <       0.14051502 Ry

     iteration #  2     ecut=    30.00 Ry     beta=0.70
     Davidson diagonalization with overlap
     ethr =  1.76E-03,  avg # of iterations =  3.0

     negative rho (up, down):  1.828E-02 0.000E+00

     total cpu time spent up to now is        2.5 secs

     total energy              =     -31.97831746 Ry
     Harris-Foulkes estimate   =     -32.42761075 Ry
     estimated scf accuracy    <       1.81999441 Ry

     iteration #  3     ecut=    30.00 Ry     beta=0.70
     Davidson diagonalization with overlap
     ethr =  1.76E-03,  avg # of iterations =  2.0

     negative rho (up, down):  1.744E-02 0.000E+00

     total cpu time spent up to now is        2.6 secs

     total energy              =     -31.95285871 Ry
     Harris-Foulkes estimate   =     -31.99838003 Ry
     estimated scf accuracy    <       1.00659172 Ry

     iteration #  4     ecut=    30.00 Ry     beta=0.70
     Davidson diagonalization with overlap
     ethr =  1.76E-03,  avg # of iterations =  1.0

     negative rho (up, down):  7.079E-03 0.000E+00

     total cpu time spent up to now is        2.6 secs

     total energy              =     -31.58079083 Ry
     Harris-Foulkes estimate   =     -31.95308123 Ry
     estimated scf accuracy    <       0.90290737 Ry

     iteration #  5     ecut=    30.00 Ry     beta=0.70
     Davidson diagonalization with overlap
     ethr =  1.76E-03,  avg # of iterations =  3.0

     negative rho (up, down):  3.795E-03 0.000E+00

     total cpu time spent up to now is        2.6 secs

     total energy              =     -32.42567218 Ry
     Harris-Foulkes estimate   =     -32.47978543 Ry
     estimated scf accuracy    <       2.09329065 Ry

     iteration #  6     ecut=    30.00 Ry     beta=0.70
     Davidson diagonalization with overlap
     ethr =  1.76E-03,  avg # of iterations =  1.0

     negative rho (up, down):  4.904E-04 0.000E+00

     total cpu time spent up to now is        2.7 secs

     total energy              =     -32.04399244 Ry
     Harris-Foulkes estimate   =     -32.42590349 Ry
     estimated scf accuracy    <       1.99847762 Ry

     iteration #  7     ecut=    30.00 Ry     beta=0.70
     Davidson diagonalization with overlap
     ethr =  1.76E-03,  avg # of iterations =  2.0

     negative rho (up, down):  4.392E-04 0.000E+00

     total cpu time spent up to now is        2.7 secs

     total energy              =     -32.03100023 Ry
     Harris-Foulkes estimate   =     -32.05292239 Ry
     estimated scf accuracy    <       1.36145253 Ry

     iteration #  8     ecut=    30.00 Ry     beta=0.70
     Davidson diagonalization with overlap
     ethr =  1.76E-03,  avg # of iterations =  1.0

     negative rho (up, down):  4.532E-04 0.000E+00

     total cpu time spent up to now is        2.7 secs

     total energy              =     -32.01745129 Ry
     Harris-Foulkes estimate   =     -32.03123573 Ry
     estimated scf accuracy    <       1.32420290 Ry

     iteration #  9     ecut=    30.00 Ry     beta=0.70
     Davidson diagonalization with overlap
     ethr =  1.76E-03,  avg # of iterations =  1.0

     negative rho (up, down):  4.021E-04 0.000E+00

     total cpu time spent up to now is        2.8 secs

     total energy              =     -32.03517403 Ry
     Harris-Foulkes estimate   =     -32.01749020 Ry
     estimated scf accuracy    <       1.30858617 Ry

     iteration # 10     ecut=    30.00 Ry     beta=0.70
     Davidson diagonalization with overlap
     ethr =  1.76E-03,  avg # of iterations =  1.0

     negative rho (up, down):  7.269E-04 0.000E+00

     total cpu time spent up to now is        2.8 secs

     total energy              =     -32.03065131 Ry
     Harris-Foulkes estimate   =     -32.03514405 Ry
     estimated scf accuracy    <       1.32448528 Ry

     iteration # 11     ecut=    30.00 Ry     beta=0.70
     Davidson diagonalization with overlap
     ethr =  1.76E-03,  avg # of iterations =  1.0

     negative rho (up, down):  1.054E-03 0.000E+00

     total cpu time spent up to now is        2.8 secs

     total energy              =     -32.06027406 Ry
     Harris-Foulkes estimate   =     -32.03081679 Ry
     estimated scf accuracy    <       1.33496094 Ry

     iteration # 12     ecut=    30.00 Ry     beta=0.70
     Davidson diagonalization with overlap
     ethr =  1.76E-03,  avg # of iterations =  1.0

     negative rho (up, down):  2.303E-03 0.000E+00

     total cpu time spent up to now is        2.9 secs

     total energy              =     -31.54905976 Ry
     Harris-Foulkes estimate   =     -32.06037164 Ry
     estimated scf accuracy    <       1.36749940 Ry

     iteration # 13     ecut=    30.00 Ry     beta=0.70
     Davidson diagonalization with overlap
     ethr =  1.76E-03,  avg # of iterations =  3.0

     negative rho (up, down):  8.570E-04 0.000E+00

     total cpu time spent up to now is        2.9 secs

     total energy              =     -32.35720947 Ry
     Harris-Foulkes estimate   =     -32.36321217 Ry
     estimated scf accuracy    <       1.49788421 Ry

     iteration # 14     ecut=    30.00 Ry     beta=0.70
     Davidson diagonalization with overlap
     ethr =  1.76E-03,  avg # of iterations =  1.0

     negative rho (up, down):  1.538E-05 0.000E+00

     total cpu time spent up to now is        2.9 secs

     total energy              =     -32.11731111 Ry
     Harris-Foulkes estimate   =     -32.35789007 Ry
     estimated scf accuracy    <       1.52197829 Ry

     iteration # 15     ecut=    30.00 Ry     beta=0.70
     Davidson diagonalization with overlap
     ethr =  1.76E-03,  avg # of iterations =  1.0

     negative rho (up, down):  2.518E-05 0.000E+00

     total cpu time spent up to now is        3.0 secs

     total energy              =     -31.99980130 Ry
     Harris-Foulkes estimate   =     -32.11142815 Ry
     estimated scf accuracy    <       1.17466763 Ry

     iteration # 16     ecut=    30.00 Ry     beta=0.70
     Davidson diagonalization with overlap
     ethr =  1.76E-03,  avg # of iterations =  1.0

     negative rho (up, down):  3.179E-05 0.000E+00

     total cpu time spent up to now is        3.0 secs

     total energy              =     -31.98251927 Ry
     Harris-Foulkes estimate   =     -32.00093669 Ry
     estimated scf accuracy    <       0.99420884 Ry

     iteration # 17     ecut=    30.00 Ry     beta=0.70
     Davidson diagonalization with overlap
     ethr =  1.76E-03,  avg # of iterations =  1.0

     negative rho (up, down):  1.473E-05 0.000E+00

     total cpu time spent up to now is        3.0 secs

     total energy              =     -31.93677781 Ry
     Harris-Foulkes estimate   =     -31.98255426 Ry
     estimated scf accuracy    <       0.96640601 Ry

     iteration # 18     ecut=    30.00 Ry     beta=0.70
     Davidson diagonalization with overlap
     ethr =  1.76E-03,  avg # of iterations =  1.0

     negative rho (up, down):  1.562E-05 0.000E+00

     total cpu time spent up to now is        3.1 secs

     total energy              =     -31.93844521 Ry
     Harris-Foulkes estimate   =     -31.94420749 Ry
     estimated scf accuracy    <       0.14035174 Ry

     iteration # 19     ecut=    30.00 Ry     beta=0.70
     Davidson diagonalization with overlap
     ethr =  1.75E-03,  avg # of iterations =  1.0

     negative rho (up, down):  4.564E-06 0.000E+00

     total cpu time spent up to now is        3.1 secs

     total energy              =     -31.93374698 Ry
     Harris-Foulkes estimate   =     -31.94274977 Ry
     estimated scf accuracy    <       0.04373131 Ry

     iteration # 20     ecut=    30.00 Ry     beta=0.70
     Davidson diagonalization with overlap
     ethr =  5.47E-04,  avg # of iterations =  1.0

     negative rho (up, down):  2.515E-06 0.000E+00

     total cpu time spent up to now is        3.1 secs

     total energy              =     -31.96039484 Ry
     Harris-Foulkes estimate   =     -31.96665682 Ry
     estimated scf accuracy    <       0.87437526 Ry

     iteration # 21     ecut=    30.00 Ry     beta=0.70
     Davidson diagonalization with overlap
     ethr =  5.47E-04,  avg # of iterations =  1.0

     negative rho (up, down):  8.753E-07 0.000E+00

     total cpu time spent up to now is        3.2 secs

     total energy              =     -31.97035298 Ry
     Harris-Foulkes estimate   =     -31.96053585 Ry
     estimated scf accuracy    <       0.78336225 Ry

     iteration # 22     ecut=    30.00 Ry     beta=0.70
     Davidson diagonalization with overlap
     ethr =  5.47E-04,  avg # of iterations =  1.0

     negative rho (up, down):  1.594E-07 0.000E+00

     total cpu time spent up to now is        3.2 secs

     total energy              =     -31.96715290 Ry
     Harris-Foulkes estimate   =     -31.97076680 Ry
     estimated scf accuracy    <       0.91208476 Ry

     iteration # 23     ecut=    30.00 Ry     beta=0.70
     Davidson diagonalization with overlap
     ethr =  5.47E-04,  avg # of iterations =  1.0

     total cpu time spent up to now is        3.2 secs

     total energy              =     -31.97528561 Ry
     Harris-Foulkes estimate   =     -31.96717680 Ry
     estimated scf accuracy    <       0.88225455 Ry

     iteration # 24     ecut=    30.00 Ry     beta=0.70
     Davidson diagonalization with overlap
     ethr =  5.47E-04,  avg # of iterations =  1.0

     total cpu time spent up to now is        3.3 secs

     total energy              =     -31.94047935 Ry
     Harris-Foulkes estimate   =     -31.97540700 Ry
     estimated scf accuracy    <       0.93824468 Ry

     iteration # 25     ecut=    30.00 Ry     beta=0.70
     Davidson diagonalization with overlap
     ethr =  5.47E-04,  avg # of iterations =  1.0

     total cpu time spent up to now is        3.3 secs

     total energy              =     -31.94186129 Ry
     Harris-Foulkes estimate   =     -31.94570285 Ry
     estimated scf accuracy    <       0.23363524 Ry

     iteration # 26     ecut=    30.00 Ry     beta=0.70
     Davidson diagonalization with overlap
     ethr =  5.47E-04,  avg # of iterations =  1.0

     total cpu time spent up to now is        3.3 secs

     total energy              =     -31.94255144 Ry
     Harris-Foulkes estimate   =     -31.94285623 Ry
     estimated scf accuracy    <       0.04894695 Ry

     iteration # 27     ecut=    30.00 Ry     beta=0.70
     Davidson diagonalization with overlap
     ethr =  5.47E-04,  avg # of iterations =  1.0

     total cpu time spent up to now is        3.4 secs

     total energy              =     -31.94183569 Ry
     Harris-Foulkes estimate   =     -31.94258654 Ry
     estimated scf accuracy    <       0.02913813 Ry

     iteration # 28     ecut=    30.00 Ry     beta=0.70
     Davidson diagonalization with overlap
     ethr =  3.64E-04,  avg # of iterations =  1.0

     total cpu time spent up to now is        3.4 secs

     total energy              =     -31.94220697 Ry
     Harris-Foulkes estimate   =     -31.94220525 Ry
     estimated scf accuracy    <       0.00000066 Ry

     iteration # 29     ecut=    30.00 Ry     beta=0.70
     Davidson diagonalization with overlap
     ethr =  8.20E-09,  avg # of iterations = 14.0

     total cpu time spent up to now is        3.5 secs

     total energy              =     -31.94205380 Ry
     Harris-Foulkes estimate   =     -31.94226126 Ry
     estimated scf accuracy    <       0.00435798 Ry

     iteration # 30     ecut=    30.00 Ry     beta=0.70
     Davidson diagonalization with overlap
     ethr =  8.20E-09,  avg # of iterations =  3.0

     total cpu time spent up to now is        3.5 secs

     total energy              =     -31.94221366 Ry
     Harris-Foulkes estimate   =     -31.94225008 Ry
     estimated scf accuracy    <       0.00354741 Ry

     iteration # 31     ecut=    30.00 Ry     beta=0.70
     Davidson diagonalization with overlap
     ethr =  8.20E-09,  avg # of iterations =  2.0

     total cpu time spent up to now is        3.5 secs

     total energy              =     -31.94217134 Ry
     Harris-Foulkes estimate   =     -31.94222099 Ry
     estimated scf accuracy    <       0.00124083 Ry

     iteration # 32     ecut=    30.00 Ry     beta=0.70
     Davidson diagonalization with overlap
     ethr =  8.20E-09,  avg # of iterations =  2.0

     total cpu time spent up to now is        3.6 secs

     total energy              =     -31.94219649 Ry
     Harris-Foulkes estimate   =     -31.94221086 Ry
     estimated scf accuracy    <       0.00043927 Ry

     iteration # 33     ecut=    30.00 Ry     beta=0.70
     Davidson diagonalization with overlap
     ethr =  8.20E-09,  avg # of iterations =  2.0

     total cpu time spent up to now is        3.6 secs

     total energy              =     -31.94220433 Ry
     Harris-Foulkes estimate   =     -31.94220568 Ry
     estimated scf accuracy    <       0.00003744 Ry

     iteration # 34     ecut=    30.00 Ry     beta=0.70
     Davidson diagonalization with overlap
     ethr =  8.20E-09,  avg # of iterations =  1.0

     total cpu time spent up to now is        3.6 secs

     total energy              =     -31.94220498 Ry
     Harris-Foulkes estimate   =     -31.94220510 Ry
     estimated scf accuracy    <       0.00000287 Ry

     iteration # 35     ecut=    30.00 Ry     beta=0.70
     Davidson diagonalization with overlap
     ethr =  8.20E-09,  avg # of iterations =  1.0

     total cpu time spent up to now is        3.7 secs

     total energy              =     -31.94220509 Ry
     Harris-Foulkes estimate   =     -31.94220502 Ry
     estimated scf accuracy    <       0.00000003 Ry

     iteration # 36     ecut=    30.00 Ry     beta=0.70
     Davidson diagonalization with overlap
     ethr =  3.34E-10,  avg # of iterations =  1.0

     total cpu time spent up to now is        3.7 secs

     total energy              =     -31.94220512 Ry
     Harris-Foulkes estimate   =     -31.94220509 Ry
     estimated scf accuracy    <       0.00000002 Ry

     iteration # 37     ecut=    30.00 Ry     beta=0.70
     Davidson diagonalization with overlap
     ethr =  2.75E-10,  avg # of iterations =  1.0

     total cpu time spent up to now is        3.7 secs

     End of self-consistent calculation

          k = 0.0000 0.0000 0.0000 ( 22119 PWs)   bands (ev):

   -24.5222 -10.4554  -7.0151  -7.0147  -6.8768  -0.8508   0.2802   0.7979

     the Fermi energy is    -6.8450 ev

!    total energy              =     -31.94220512 Ry
     Harris-Foulkes estimate   =     -31.94220512 Ry
     estimated scf accuracy    <          1.6E-09 Ry

     convergence has been achieved in  37 iterations

     Forces acting on atoms (Ry/au):

     atom    1 type  1   force =    -0.00037333    0.00009272    0.00040498
     atom    2 type  1   force =    -0.04242253    0.03633832    0.05647401
     atom    3 type  2   force =     0.04279586   -0.03643104   -0.05687899

     Total force =     0.112711     Total SCF correction =     0.000020

     Entering Dynamics:    iteration =     2
                           time      =   0.0097 pico-seconds


     Andersen thermostat:    3 collisions

ATOMIC_POSITIONS (bohr)
H        9.243351859  14.124637162   8.422795487
H       18.027575030   3.163816120  12.553775874
O       17.319184422   3.854401537  13.200530532


     kinetic energy (Ekin) =     0.01890326 Ry
     temperature           =   994.86158799 K 
     Ekin + Etot (const)   =   -31.92330186 Ry
     Message from routine dynamics:
     Total linear momentum <> 0

     Linear momentum :   -0.0482643422    0.4839037204    0.0463385468

     Writing output data file pwscf.save

     first order wave-functions extrapolation
     Check: negative starting charge=   -0.350578
     first order charge density extrapolation
     Check: negative starting charge=   -0.353603

     negative rho (up, down):  2.546E-01 0.000E+00

     total cpu time spent up to now is        4.1 secs

     per-process dynamical memory:    20.4 Mb

     Self-consistent Calculation

     iteration #  1     ecut=    30.00 Ry     beta=0.70
     Davidson diagonalization with overlap
     c_bands:  2 eigenvalues not converged
     ethr =  1.00E-06,  avg # of iterations = 20.0

     negative rho (up, down):  6.804E-02 0.000E+00

     total cpu time spent up to now is        4.2 secs

     total energy              =     -30.21687128 Ry
     Harris-Foulkes estimate   =     -31.44449201 Ry
     estimated scf accuracy    <       1.51828055 Ry

     iteration #  2     ecut=    30.00 Ry     beta=0.70
     Davidson diagonalization with overlap
     ethr =  1.00E-02,  avg # of iterations =  4.0

     negative rho (up, down):  1.503E-02 0.000E+00

     total cpu time spent up to now is        4.2 secs

     total energy              =     -29.14667214 Ry
     Harris-Foulkes estimate   =     -33.84609756 Ry
     estimated scf accuracy    <      17.73821521 Ry

     iteration #  3     ecut=    30.00 Ry     beta=0.70
     Davidson diagonalization with overlap
     ethr =  1.00E-02,  avg # of iterations =  6.0

     negative rho (up, down):  1.560E-02 0.000E+00

     total cpu time spent up to now is        4.3 secs

     total energy              =     -31.17150521 Ry
     Harris-Foulkes estimate   =     -31.34984021 Ry
     estimated scf accuracy    <       1.79557771 Ry

     iteration #  4     ecut=    30.00 Ry     beta=0.70
     Davidson diagonalization with overlap
     ethr =  1.00E-02,  avg # of iterations =  1.0

     negative rho (up, down):  1.825E-01 0.000E+00

     total cpu time spent up to now is        4.3 secs

     total energy              =     -30.56967349 Ry
     Harris-Foulkes estimate   =     -31.17393644 Ry
     estimated scf accuracy    <       1.83070372 Ry

     iteration #  5     ecut=    30.00 Ry     beta=0.70
     Davidson diagonalization with overlap
     ethr =  1.00E-02,  avg # of iterations =  2.0

     negative rho (up, down):  4.280E-01 0.000E+00

     total cpu time spent up to now is        4.3 secs

     total energy              =     -30.50574058 Ry
     Harris-Foulkes estimate   =     -30.69454315 Ry
     estimated scf accuracy    <       0.61161229 Ry

     iteration #  6     ecut=    30.00 Ry     beta=0.70
     Davidson diagonalization with overlap
     ethr =  7.65E-03,  avg # of iterations =  1.0

     negative rho (up, down):  4.114E-01 0.000E+00

     total cpu time spent up to now is        4.4 secs

     total energy              =     -30.64729508 Ry
     Harris-Foulkes estimate   =     -30.73504747 Ry
     estimated scf accuracy    <       1.40868004 Ry

     iteration #  7     ecut=    30.00 Ry     beta=0.70
     Davidson diagonalization with overlap
     ethr =  7.65E-03,  avg # of iterations =  5.0

     negative rho (up, down):  1.638E-01 0.000E+00

     total cpu time spent up to now is        4.4 secs

     total energy              =     -31.86674022 Ry
     Harris-Foulkes estimate   =     -32.22345386 Ry
     estimated scf accuracy    <       2.41449864 Ry

     iteration #  8     ecut=    30.00 Ry     beta=0.70
     Davidson diagonalization with overlap
     ethr =  7.65E-03,  avg # of iterations =  1.0

     negative rho (up, down):  1.688E-01 0.000E+00

     total cpu time spent up to now is        4.4 secs

     total energy              =     -31.88100997 Ry
     Harris-Foulkes estimate   =     -31.87009603 Ry
     estimated scf accuracy    <       1.84584213 Ry

     iteration #  9     ecut=    30.00 Ry     beta=0.70
     Davidson diagonalization with overlap
     ethr =  7.65E-03,  avg # of iterations =  1.0

     negative rho (up, down):  1.583E-01 0.000E+00

     total cpu time spent up to now is        4.5 secs

     total energy              =     -31.84573303 Ry
     Harris-Foulkes estimate   =     -31.88108611 Ry
     estimated scf accuracy    <       1.86039810 Ry

     iteration # 10     ecut=    30.00 Ry     beta=0.70
     Davidson diagonalization with overlap
     ethr =  7.65E-03,  avg # of iterations =  1.0

     negative rho (up, down):  7.369E-03 0.000E+00

     total cpu time spent up to now is        4.5 secs

     total energy              =     -31.53273179 Ry
     Harris-Foulkes estimate   =     -31.84581146 Ry
     estimated scf accuracy    <       1.80216109 Ry

     iteration # 11     ecut=    30.00 Ry     beta=0.70
     Davidson diagonalization with overlap
     ethr =  7.65E-03,  avg # of iterations =  1.0

     negative rho (up, down):  3.581E-03 0.000E+00

     total cpu time spent up to now is        4.5 secs

     total energy              =     -31.55240811 Ry
     Harris-Foulkes estimate   =     -31.53487238 Ry
     estimated scf accuracy    <       1.33867826 Ry

     iteration # 12     ecut=    30.00 Ry     beta=0.70
     Davidson diagonalization with overlap
     ethr =  7.65E-03,  avg # of iterations =  1.0

     negative rho (up, down):  2.449E-02 0.000E+00

     total cpu time spent up to now is        4.6 secs

     total energy              =     -31.62598562 Ry
     Harris-Foulkes estimate   =     -31.55262365 Ry
     estimated scf accuracy    <       1.34832372 Ry

     iteration # 13     ecut=    30.00 Ry     beta=0.70
     Davidson diagonalization with overlap
     ethr =  7.65E-03,  avg # of iterations =  1.0

     negative rho (up, down):  1.319E+00 0.000E+00

     total cpu time spent up to now is        4.6 secs

     total energy              =     -67.10256888 Ry
     Harris-Foulkes estimate   =     -31.62688272 Ry
     estimated scf accuracy    <       1.43417273 Ry

     iteration # 14     ecut=    30.00 Ry     beta=0.70
     Davidson diagonalization with overlap
     ethr =  7.65E-03,  avg # of iterations =  8.0

     negative rho (up, down):  4.155E-02 0.000E+00

     total cpu time spent up to now is        4.7 secs

     total energy              =      83.39188004 Ry
     Harris-Foulkes estimate   =    -403.84770345 Ry
     estimated scf accuracy    <      26.83946636 Ry

     iteration # 15     ecut=    30.00 Ry     beta=0.70
     Davidson diagonalization with overlap
     ethr =  7.65E-03,  avg # of iterations = 11.0

     negative rho (up, down):  8.504E-03 0.000E+00

     total cpu time spent up to now is        4.7 secs

     total energy              =     -31.20546881 Ry
     Harris-Foulkes estimate   =     -32.69529018 Ry
     estimated scf accuracy    <       4.35067420 Ry

     iteration # 16     ecut=    30.00 Ry     beta=0.70
     Davidson diagonalization with overlap
     ethr =  7.65E-03,  avg # of iterations =  2.0

     negative rho (up, down):  4.592E-03 0.000E+00

     total cpu time spent up to now is        4.8 secs

     total energy              =     -31.14593237 Ry
     Harris-Foulkes estimate   =     -31.28080920 Ry
     estimated scf accuracy    <       1.50093337 Ry

     iteration # 17     ecut=    30.00 Ry     beta=0.70
     Davidson diagonalization with overlap
     ethr =  7.65E-03,  avg # of iterations =  1.0

     negative rho (up, down):  2.070E-03 0.000E+00

     total cpu time spent up to now is        4.8 secs

     total energy              =     -31.54330175 Ry
     Harris-Foulkes estimate   =     -31.23104960 Ry
     estimated scf accuracy    <       0.91220714 Ry

     iteration # 18     ecut=    30.00 Ry     beta=0.70
     Davidson diagonalization with overlap
     ethr =  7.65E-03,  avg # of iterations =  1.0

     negative rho (up, down):  1.038E-03 0.000E+00

     total cpu time spent up to now is        4.8 secs

     total energy              =     -31.67921251 Ry
     Harris-Foulkes estimate   =     -31.57237055 Ry
     estimated scf accuracy    <       1.38306156 Ry

     iteration # 19     ecut=    30.00 Ry     beta=0.70
     Davidson diagonalization with overlap
     ethr =  7.65E-03,  avg # of iterations =  1.0

     negative rho (up, down):  2.567E-03 0.000E+00

     total cpu time spent up to now is        4.9 secs

     total energy              =     -31.84636092 Ry
     Harris-Foulkes estimate   =     -31.67977950 Ry
     estimated scf accuracy    <       1.53840025 Ry

     iteration # 20     ecut=    30.00 Ry     beta=0.70
     Davidson diagonalization with overlap
     ethr =  7.65E-03,  avg # of iterations =  1.0

     negative rho (up, down):  6.816E-05 0.000E+00

     total cpu time spent up to now is        4.9 secs

     total energy              =     -31.58309743 Ry
     Harris-Foulkes estimate   =     -31.84709169 Ry
     estimated scf accuracy    <       1.77630856 Ry

     iteration # 21     ecut=    30.00 Ry     beta=0.70
     Davidson diagonalization with overlap
     ethr =  7.65E-03,  avg # of iterations =  1.0

     negative rho (up, down):  1.491E-04 0.000E+00

     total cpu time spent up to now is        4.9 secs

     total energy              =     -31.41381850 Ry
     Harris-Foulkes estimate   =     -31.58450854 Ry
     estimated scf accuracy    <       1.41208323 Ry

     iteration # 22     ecut=    30.00 Ry     beta=0.70
     Davidson diagonalization with overlap
     ethr =  7.65E-03,  avg # of iterations =  1.0

     negative rho (up, down):  7.779E-05 0.000E+00

     total cpu time spent up to now is        5.0 secs

     total energy              =     -31.39232698 Ry
     Harris-Foulkes estimate   =     -31.41114689 Ry
     estimated scf accuracy    <       1.15790305 Ry

     iteration # 23     ecut=    30.00 Ry     beta=0.70
     Davidson diagonalization with overlap
     ethr =  7.65E-03,  avg # of iterations =  1.0

     negative rho (up, down):  9.537E-05 0.000E+00

     total cpu time spent up to now is        5.0 secs

     total energy              =     -31.26295346 Ry
     Harris-Foulkes estimate   =     -31.39235835 Ry
     estimated scf accuracy    <       1.13250980 Ry

     iteration # 24     ecut=    30.00 Ry     beta=0.70
     Davidson diagonalization with overlap
     ethr =  7.65E-03,  avg # of iterations =  1.0

     negative rho (up, down):  1.171E-04 0.000E+00

     total cpu time spent up to now is        5.0 secs

     total energy              =     -31.18125877 Ry
     Harris-Foulkes estimate   =     -31.26387824 Ry
     estimated scf accuracy    <       0.90714916 Ry

     iteration # 25     ecut=    30.00 Ry     beta=0.70
     Davidson diagonalization with overlap
     ethr =  7.65E-03,  avg # of iterations =  1.0

     negative rho (up, down):  8.334E-04 0.000E+00

     total cpu time spent up to now is        5.1 secs

     total energy              =     -32.55717406 Ry
     Harris-Foulkes estimate   =     -31.24606678 Ry
     estimated scf accuracy    <       1.20966282 Ry

     iteration # 26     ecut=    30.00 Ry     beta=0.70
     Davidson diagonalization with overlap
     ethr =  7.65E-03,  avg # of iterations =  4.0

     negative rho (up, down):  4.998E-04 0.000E+00

     total cpu time spent up to now is        5.1 secs

     total energy              =     -32.85623643 Ry
     Harris-Foulkes estimate   =     -33.00568123 Ry
     estimated scf accuracy    <      11.47963171 Ry

     iteration # 27     ecut=    30.00 Ry     beta=0.70
     Davidson diagonalization with overlap
     ethr =  7.65E-03,  avg # of iterations =  1.0

     negative rho (up, down):  1.166E-03 0.000E+00

     total cpu time spent up to now is        5.1 secs

     total energy              =     -33.07639014 Ry
     Harris-Foulkes estimate   =     -32.86001342 Ry
     estimated scf accuracy    <      11.19321998 Ry

     iteration # 28     ecut=    30.00 Ry     beta=0.70
     Davidson diagonalization with overlap
     ethr =  7.65E-03,  avg # of iterations =  1.0

     negative rho (up, down):  3.406E-03 0.000E+00

     total cpu time spent up to now is        5.2 secs

     total energy              =     -33.00810479 Ry
     Harris-Foulkes estimate   =     -33.07775671 Ry
     estimated scf accuracy    <      11.65486595 Ry

     iteration # 29     ecut=    30.00 Ry     beta=0.70
     Davidson diagonalization with overlap
     ethr =  7.65E-03,  avg # of iterations =  1.0

     negative rho (up, down):  5.968E-02 0.000E+00

     total cpu time spent up to now is        5.2 secs

     total energy              =     -33.49059997 Ry
     Harris-Foulkes estimate   =     -33.01076958 Ry
     estimated scf accuracy    <      11.47481488 Ry

     iteration # 30     ecut=    30.00 Ry     beta=0.70
     Davidson diagonalization with overlap
     ethr =  7.65E-03,  avg # of iterations =  1.0

     negative rho (up, down):  6.165E-02 0.000E+00

     total cpu time spent up to now is        5.2 secs

     total energy              =     -33.48894268 Ry
     Harris-Foulkes estimate   =     -33.50091730 Ry
     estimated scf accuracy    <      12.33892592 Ry

     iteration # 31     ecut=    30.00 Ry     beta=0.70
     Davidson diagonalization with overlap
     ethr =  7.65E-03,  avg # of iterations =  1.0

     negative rho (up, down):  1.282E-01 0.000E+00

     total cpu time spent up to now is        5.3 secs

     total energy              =     -33.87888925 Ry
     Harris-Foulkes estimate   =     -33.49059983 Ry
     estimated scf accuracy    <      12.33241879 Ry

     iteration # 32     ecut=    30.00 Ry     beta=0.70
     Davidson diagonalization with overlap
     ethr =  7.65E-03,  avg # of iterations =  1.0

     negative rho (up, down):  4.218E-02 0.000E+00

     total cpu time spent up to now is        5.3 secs

     total energy              =     -30.44416373 Ry
     Harris-Foulkes estimate   =     -33.88549291 Ry
     estimated scf accuracy    <      13.01253379 Ry

     iteration # 33     ecut=    30.00 Ry     beta=0.70
     Davidson diagonalization with overlap
     ethr =  7.65E-03,  avg # of iterations =  3.0

     negative rho (up, down):  2.058E-01 0.000E+00

     total cpu time spent up to now is        5.3 secs

     total energy              =     -30.08191315 Ry
     Harris-Foulkes estimate   =     -31.47594133 Ry
     estimated scf accuracy    <       1.76497159 Ry

     iteration # 34     ecut=    30.00 Ry     beta=0.70
     Davidson diagonalization with overlap
     ethr =  7.65E-03,  avg # of iterations =  5.0

     negative rho (up, down):  4.293E-02 0.000E+00

     total cpu time spent up to now is        5.4 secs

     total energy              =     -31.96992770 Ry
     Harris-Foulkes estimate   =     -33.30278515 Ry
     estimated scf accuracy    <       3.86039109 Ry

     iteration # 35     ecut=    30.00 Ry     beta=0.70
     Davidson diagonalization with overlap
     ethr =  7.65E-03,  avg # of iterations =  4.0

     negative rho (up, down):  1.068E-03 0.000E+00

     total cpu time spent up to now is        5.4 secs

     total energy              =     -31.24616577 Ry
     Harris-Foulkes estimate   =     -31.99672185 Ry
     estimated scf accuracy    <       2.01434016 Ry

     iteration # 36     ecut=    30.00 Ry     beta=0.70
     Davidson diagonalization with overlap
     ethr =  7.65E-03,  avg # of iterations =  1.0

     negative rho (up, down):  5.598E-04 0.000E+00

     total cpu time spent up to now is        5.5 secs

     total energy              =     -31.14812423 Ry
     Harris-Foulkes estimate   =     -31.25829122 Ry
     estimated scf accuracy    <       0.93600363 Ry

     iteration # 37     ecut=    30.00 Ry     beta=0.70
     Davidson diagonalization with overlap
     ethr =  7.65E-03,  avg # of iterations =  1.0

     negative rho (up, down):  1.193E-04 0.000E+00

     total cpu time spent up to now is        5.5 secs

     total energy              =     -31.40284126 Ry
     Harris-Foulkes estimate   =     -31.25860459 Ry
     estimated scf accuracy    <       1.63907790 Ry

     iteration # 38     ecut=    30.00 Ry     beta=0.70
     Davidson diagonalization with overlap
     ethr =  7.65E-03,  avg # of iterations =  1.0

     negative rho (up, down):  3.672E-05 0.000E+00

     total cpu time spent up to now is        5.5 secs

     total energy              =     -31.32422500 Ry
     Harris-Foulkes estimate   =     -31.39398055 Ry
     estimated scf accuracy    <       1.58699750 Ry

     iteration # 39     ecut=    30.00 Ry     beta=0.70
     Davidson diagonalization with overlap
     ethr =  7.65E-03,  avg # of iterations =  1.0

     negative rho (up, down):  8.328E-06 0.000E+00

     total cpu time spent up to now is        5.6 secs

     total energy              =     -32.03915751 Ry
     Harris-Foulkes estimate   =     -31.32454615 Ry
     estimated scf accuracy    <       1.48817124 Ry

     iteration # 40     ecut=    30.00 Ry     beta=0.70
     Davidson diagonalization with overlap
     ethr =  7.65E-03,  avg # of iterations =  3.0

     negative rho (up, down):  8.211E-05 0.000E+00

     total cpu time spent up to now is        5.6 secs

     total energy              =     -32.17820126 Ry
     Harris-Foulkes estimate   =     -32.06218002 Ry
     estimated scf accuracy    <       2.73120283 Ry

     iteration # 41     ecut=    30.00 Ry     beta=0.70
     Davidson diagonalization with overlap
     ethr =  7.65E-03,  avg # of iterations =  1.0

     negative rho (up, down):  1.352E-03 0.000E+00

     total cpu time spent up to now is        5.6 secs

     total energy              =     -31.65687621 Ry
     Harris-Foulkes estimate   =     -32.17968865 Ry
     estimated scf accuracy    <       2.95253396 Ry

     iteration # 42     ecut=    30.00 Ry     beta=0.70
     Davidson diagonalization with overlap
     ethr =  7.65E-03,  avg # of iterations =  1.0

     negative rho (up, down):  3.370E-03 0.000E+00

     total cpu time spent up to now is        5.7 secs

     total energy              =     -31.40512499 Ry
     Harris-Foulkes estimate   =     -31.66882063 Ry
     estimated scf accuracy    <       2.02561971 Ry

     iteration # 43     ecut=    30.00 Ry     beta=0.70
     Davidson diagonalization with overlap
     ethr =  7.65E-03,  avg # of iterations =  1.0

     negative rho (up, down):  9.827E-03 0.000E+00

     total cpu time spent up to now is        5.7 secs

     total energy              =     -30.95713160 Ry
     Harris-Foulkes estimate   =     -31.40889196 Ry
     estimated scf accuracy    <       1.59938718 Ry

     iteration # 44     ecut=    30.00 Ry     beta=0.70
     Davidson diagonalization with overlap
     ethr =  7.65E-03,  avg # of iterations =  1.0

     negative rho (up, down):  1.059E-02 0.000E+00

     total cpu time spent up to now is        5.7 secs

     total energy              =     -31.96529281 Ry
     Harris-Foulkes estimate   =     -31.41110600 Ry
     estimated scf accuracy    <       1.15715052 Ry

     iteration # 45     ecut=    30.00 Ry     beta=0.70
     Davidson diagonalization with overlap
     ethr =  7.65E-03,  avg # of iterations =  1.0

     negative rho (up, down):  1.112E-02 0.000E+00

     total cpu time spent up to now is        5.8 secs

     total energy              =     -31.83996496 Ry
     Harris-Foulkes estimate   =     -31.98353472 Ry
     estimated scf accuracy    <       1.95219625 Ry

     iteration # 46     ecut=    30.00 Ry     beta=0.70
     Davidson diagonalization with overlap
     ethr =  7.65E-03,  avg # of iterations =  1.0

     negative rho (up, down):  1.526E-02 0.000E+00

     total cpu time spent up to now is        5.8 secs

     total energy              =     -30.93570164 Ry
     Harris-Foulkes estimate   =     -31.84053675 Ry
     estimated scf accuracy    <       1.76576206 Ry

     iteration # 47     ecut=    30.00 Ry     beta=0.70
     Davidson diagonalization with overlap
     ethr =  7.65E-03,  avg # of iterations =  2.0

     negative rho (up, down):  1.325E-02 0.000E+00

     total cpu time spent up to now is        5.8 secs

     total energy              =     -31.28327483 Ry
     Harris-Foulkes estimate   =     -31.54449809 Ry
     estimated scf accuracy    <       1.80628652 Ry

     iteration # 48     ecut=    30.00 Ry     beta=0.70
     Davidson diagonalization with overlap
     ethr =  7.65E-03,  avg # of iterations =  1.0

     negative rho (up, down):  1.542E-02 0.000E+00

     total cpu time spent up to now is        5.9 secs

     total energy              =     -30.16353094 Ry
     Harris-Foulkes estimate   =     -31.28694376 Ry
     estimated scf accuracy    <       1.41087566 Ry

     iteration # 49     ecut=    30.00 Ry     beta=0.70
     Davidson diagonalization with overlap
     ethr =  7.65E-03,  avg # of iterations =  3.0

     negative rho (up, down):  7.670E-03 0.000E+00

     total cpu time spent up to now is        5.9 secs

     total energy              =     -33.34460076 Ry
     Harris-Foulkes estimate   =     -33.38938616 Ry
     estimated scf accuracy    <       3.82668748 Ry

     iteration # 50     ecut=    30.00 Ry     beta=0.70
     Davidson diagonalization with overlap
     ethr =  7.65E-03,  avg # of iterations =  1.0

     negative rho (up, down):  1.416E-04 0.000E+00

     total cpu time spent up to now is        5.9 secs

     total energy              =     -32.99091970 Ry
     Harris-Foulkes estimate   =     -33.34485963 Ry
     estimated scf accuracy    <       3.77003029 Ry

     iteration # 51     ecut=    30.00 Ry     beta=0.70
     Davidson diagonalization with overlap
     ethr =  7.65E-03,  avg # of iterations =  1.0

     negative rho (up, down):  1.290E-04 0.000E+00

     total cpu time spent up to now is        6.0 secs

     total energy              =     -32.91339469 Ry
     Harris-Foulkes estimate   =     -32.99180549 Ry
     estimated scf accuracy    <       3.31855109 Ry

     iteration # 52     ecut=    30.00 Ry     beta=0.70
     Davidson diagonalization with overlap
     ethr =  7.65E-03,  avg # of iterations =  1.0

     negative rho (up, down):  5.830E-04 0.000E+00

     total cpu time spent up to now is        6.0 secs

     total energy              =     -32.01499242 Ry
     Harris-Foulkes estimate   =     -32.91348202 Ry
     estimated scf accuracy    <       3.21374146 Ry

     iteration # 53     ecut=    30.00 Ry     beta=0.70
     Davidson diagonalization with overlap
     ethr =  7.65E-03,  avg # of iterations =  1.0

     negative rho (up, down):  4.999E-04 0.000E+00

     total cpu time spent up to now is        6.0 secs

     total energy              =     -31.91528742 Ry
     Harris-Foulkes estimate   =     -32.02535427 Ry
     estimated scf accuracy    <       2.02562812 Ry

     iteration # 54     ecut=    30.00 Ry     beta=0.70
     Davidson diagonalization with overlap
     ethr =  7.65E-03,  avg # of iterations =  1.0

     negative rho (up, down):  8.614E-05 0.000E+00

     total cpu time spent up to now is        6.1 secs

     total energy              =     -31.36763351 Ry
     Harris-Foulkes estimate   =     -31.91580039 Ry
     estimated scf accuracy    <       1.86582573 Ry

     iteration # 55     ecut=    30.00 Ry     beta=0.70
     Davidson diagonalization with overlap
     ethr =  7.65E-03,  avg # of iterations =  3.0

     negative rho (up, down):  1.633E-05 0.000E+00

     total cpu time spent up to now is        6.1 secs

     total energy              =     -31.01538537 Ry
     Harris-Foulkes estimate   =     -31.36866062 Ry
     estimated scf accuracy    <       1.10034433 Ry

     iteration # 56     ecut=    30.00 Ry     beta=0.70
     Davidson diagonalization with overlap
     ethr =  7.65E-03,  avg # of iterations =  2.0

     negative rho (up, down):  3.699E-02 0.000E+00

     total cpu time spent up to now is        6.1 secs

     total energy              =     -32.96535537 Ry
     Harris-Foulkes estimate   =     -31.44110048 Ry
     estimated scf accuracy    <       1.63449947 Ry

     iteration # 57     ecut=    30.00 Ry     beta=0.70
     Davidson diagonalization with overlap
     ethr =  7.65E-03,  avg # of iterations =  5.0

     negative rho (up, down):  4.028E-05 0.000E+00

     total cpu time spent up to now is        6.2 secs

     total energy              =     -33.00861710 Ry
     Harris-Foulkes estimate   =     -33.56937113 Ry
     estimated scf accuracy    <      12.54317957 Ry

     iteration # 58     ecut=    30.00 Ry     beta=0.70
     Davidson diagonalization with overlap
     ethr =  7.65E-03,  avg # of iterations =  2.0

     negative rho (up, down):  1.491E-04 0.000E+00

     total cpu time spent up to now is        6.2 secs

     total energy              =     -33.09118599 Ry
     Harris-Foulkes estimate   =     -33.01407927 Ry
     estimated scf accuracy    <      11.49649891 Ry

     iteration # 59     ecut=    30.00 Ry     beta=0.70
     Davidson diagonalization with overlap
     ethr =  7.65E-03,  avg # of iterations =  1.0

     negative rho (up, down):  1.357E-06 0.000E+00

     total cpu time spent up to now is        6.2 secs

     total energy              =     -30.41613538 Ry
     Harris-Foulkes estimate   =     -33.09443301 Ry
     estimated scf accuracy    <      11.67135528 Ry

     iteration # 60     ecut=    30.00 Ry     beta=0.70
     Davidson diagonalization with overlap
     ethr =  7.65E-03,  avg # of iterations =  3.0

     negative rho (up, down):  1.546E-06 0.000E+00

     total cpu time spent up to now is        6.3 secs

     total energy              =     -31.63790973 Ry
     Harris-Foulkes estimate   =     -31.41695899 Ry
     estimated scf accuracy    <       1.78062548 Ry

     iteration # 61     ecut=    30.00 Ry     beta=0.70
     Davidson diagonalization with overlap
     ethr =  7.65E-03,  avg # of iterations =  1.0

     negative rho (up, down):  7.266E-07 0.000E+00

     total cpu time spent up to now is        6.3 secs

     total energy              =     -31.65797095 Ry
     Harris-Foulkes estimate   =     -31.64043799 Ry
     estimated scf accuracy    <       2.12340760 Ry

     iteration # 62     ecut=    30.00 Ry     beta=0.70
     Davidson diagonalization with overlap
     ethr =  7.65E-03,  avg # of iterations =  1.0

     negative rho (up, down):  4.763E-06 0.000E+00

     total cpu time spent up to now is        6.3 secs

     total energy              =     -31.12182308 Ry
     Harris-Foulkes estimate   =     -31.65812312 Ry
     estimated scf accuracy    <       2.15569873 Ry

     iteration # 63     ecut=    30.00 Ry     beta=0.70
     Davidson diagonalization with overlap
     ethr =  7.65E-03,  avg # of iterations =  4.0

     negative rho (up, down):  3.651E-04 0.000E+00

     total cpu time spent up to now is        6.4 secs

     total energy              =     -31.10725537 Ry
     Harris-Foulkes estimate   =     -31.23041686 Ry
     estimated scf accuracy    <       0.80789091 Ry

     iteration # 64     ecut=    30.00 Ry     beta=0.70
     Davidson diagonalization with overlap
     ethr =  7.65E-03,  avg # of iterations =  1.0

     negative rho (up, down):  1.399E-04 0.000E+00

     total cpu time spent up to now is        6.5 secs

     total energy              =     -31.27045455 Ry
     Harris-Foulkes estimate   =     -31.31942044 Ry
     estimated scf accuracy    <       1.43229968 Ry

     iteration # 65     ecut=    30.00 Ry     beta=0.70
     Davidson diagonalization with overlap
     ethr =  7.65E-03,  avg # of iterations =  1.0

     negative rho (up, down):  7.920E-05 0.000E+00

     total cpu time spent up to now is        6.5 secs

     total energy              =     -31.26240665 Ry
     Harris-Foulkes estimate   =     -31.27032673 Ry
     estimated scf accuracy    <       1.45670815 Ry

     iteration # 66     ecut=    30.00 Ry     beta=0.70
     Davidson diagonalization with overlap
     ethr =  7.65E-03,  avg # of iterations =  1.0

     total cpu time spent up to now is        6.5 secs

     total energy              =     -31.23224524 Ry
     Harris-Foulkes estimate   =     -31.26230309 Ry
     estimated scf accuracy    <       1.54276759 Ry

     iteration # 67     ecut=    30.00 Ry     beta=0.70
     Davidson diagonalization with overlap
     ethr =  7.65E-03,  avg # of iterations =  1.0

     total cpu time spent up to now is        6.6 secs

     total energy              =     -31.27457959 Ry
     Harris-Foulkes estimate   =     -31.23102397 Ry
     estimated scf accuracy    <       1.46730962 Ry

     iteration # 68     ecut=    30.00 Ry     beta=0.70
     Davidson diagonalization with overlap
     ethr =  7.65E-03,  avg # of iterations =  1.0

     negative rho (up, down):  4.314E-04 0.000E+00

     total cpu time spent up to now is        6.6 secs

     total energy              =     -31.12028148 Ry
     Harris-Foulkes estimate   =     -31.27601496 Ry
     estimated scf accuracy    <       1.41634663 Ry

     iteration # 69     ecut=    30.00 Ry     beta=0.70
     Davidson diagonalization with overlap
     ethr =  7.65E-03,  avg # of iterations =  1.0

     negative rho (up, down):  8.348E-05 0.000E+00

     total cpu time spent up to now is        6.6 secs

     total energy              =     -31.29884521 Ry
     Harris-Foulkes estimate   =     -31.25778597 Ry
     estimated scf accuracy    <       0.93018729 Ry

     iteration # 70     ecut=    30.00 Ry     beta=0.70
     Davidson diagonalization with overlap
     ethr =  7.65E-03,  avg # of iterations =  1.0

     negative rho (up, down):  7.345E-05 0.000E+00

     total cpu time spent up to now is        6.7 secs

     total energy              =     -31.35904724 Ry
     Harris-Foulkes estimate   =     -31.29902008 Ry
     estimated scf accuracy    <       0.99016780 Ry

     iteration # 71     ecut=    30.00 Ry     beta=0.70
     Davidson diagonalization with overlap
     ethr =  7.65E-03,  avg # of iterations =  1.0

     negative rho (up, down):  6.119E-06 0.000E+00

     total cpu time spent up to now is        6.7 secs

     total energy              =     -31.46338780 Ry
     Harris-Foulkes estimate   =     -31.35924774 Ry
     estimated scf accuracy    <       1.07789632 Ry

     iteration # 72     ecut=    30.00 Ry     beta=0.70
     Davidson diagonalization with overlap
     ethr =  7.65E-03,  avg # of iterations =  1.0

     negative rho (up, down):  2.396E-06 0.000E+00

     total cpu time spent up to now is        6.7 secs

     total energy              =     -31.43878175 Ry
     Harris-Foulkes estimate   =     -31.46389041 Ry
     estimated scf accuracy    <       1.22675822 Ry

     iteration # 73     ecut=    30.00 Ry     beta=0.70
     Davidson diagonalization with overlap
     ethr =  7.65E-03,  avg # of iterations =  1.0

     negative rho (up, down):  1.728E-05 0.000E+00

     total cpu time spent up to now is        6.8 secs

     total energy              =     -31.39167072 Ry
     Harris-Foulkes estimate   =     -31.43880853 Ry
     estimated scf accuracy    <       1.19413898 Ry

     iteration # 74     ecut=    30.00 Ry     beta=0.70
     Davidson diagonalization with overlap
     ethr =  7.65E-03,  avg # of iterations =  1.0

     negative rho (up, down):  1.751E-05 0.000E+00

     total cpu time spent up to now is        6.8 secs

     total energy              =     -31.38136684 Ry
     Harris-Foulkes estimate   =     -31.39178774 Ry
     estimated scf accuracy    <       1.12643344 Ry

     iteration # 75     ecut=    30.00 Ry     beta=0.70
     Davidson diagonalization with overlap
     ethr =  7.65E-03,  avg # of iterations =  1.0

     negative rho (up, down):  2.100E-05 0.000E+00

     total cpu time spent up to now is        6.9 secs

     total energy              =     -31.30010019 Ry
     Harris-Foulkes estimate   =     -31.38140508 Ry
     estimated scf accuracy    <       1.10723528 Ry

     iteration # 76     ecut=    30.00 Ry     beta=0.70
     Davidson diagonalization with overlap
     ethr =  7.65E-03,  avg # of iterations =  1.0

     negative rho (up, down):  2.451E-06 0.000E+00

     total cpu time spent up to now is        6.9 secs

     total energy              =     -31.11533845 Ry
     Harris-Foulkes estimate   =     -31.30040996 Ry
     estimated scf accuracy    <       0.99021015 Ry

     iteration # 77     ecut=    30.00 Ry     beta=0.70
     Davidson diagonalization with overlap
     ethr =  7.65E-03,  avg # of iterations =  1.0

     negative rho (up, down):  4.786E-05 0.000E+00

     total cpu time spent up to now is        6.9 secs

     total energy              =     -31.20272615 Ry
     Harris-Foulkes estimate   =     -31.29841093 Ry
     estimated scf accuracy    <       1.39821225 Ry

     iteration # 78     ecut=    30.00 Ry     beta=0.70
     Davidson diagonalization with overlap
     ethr =  7.65E-03,  avg # of iterations =  1.0

     total cpu time spent up to now is        7.0 secs

     total energy              =     -31.19728212 Ry
     Harris-Foulkes estimate   =     -31.20976843 Ry
     estimated scf accuracy    <       0.04767639 Ry

     iteration # 79     ecut=    30.00 Ry     beta=0.70
     Davidson diagonalization with overlap
     ethr =  5.96E-04,  avg # of iterations =  1.0

     total cpu time spent up to now is        7.0 secs

     total energy              =     -31.20456636 Ry
     Harris-Foulkes estimate   =     -31.24887695 Ry
     estimated scf accuracy    <       0.91004435 Ry

     iteration # 80     ecut=    30.00 Ry     beta=0.70
     Davidson diagonalization with overlap
     ethr =  5.96E-04,  avg # of iterations =  1.0

     total cpu time spent up to now is        7.0 secs

     total energy              =     -31.21515340 Ry
     Harris-Foulkes estimate   =     -31.21128800 Ry
     estimated scf accuracy    <       0.14475637 Ry

     iteration # 81     ecut=    30.00 Ry     beta=0.70
     Davidson diagonalization with overlap
     ethr =  5.96E-04,  avg # of iterations =  1.0

     total cpu time spent up to now is        7.1 secs

     total energy              =     -31.21502904 Ry
     Harris-Foulkes estimate   =     -31.21658868 Ry
     estimated scf accuracy    <       0.42773975 Ry

     iteration # 82     ecut=    30.00 Ry     beta=0.70
     Davidson diagonalization with overlap
     ethr =  5.96E-04,  avg # of iterations =  1.0

     total cpu time spent up to now is        7.1 secs

     total energy              =     -31.20724122 Ry
     Harris-Foulkes estimate   =     -31.21509252 Ry
     estimated scf accuracy    <       0.35808376 Ry

     iteration # 83     ecut=    30.00 Ry     beta=0.70
     Davidson diagonalization with overlap
     ethr =  5.96E-04,  avg # of iterations =  1.0

     total cpu time spent up to now is        7.1 secs

     total energy              =     -31.20967198 Ry
     Harris-Foulkes estimate   =     -31.20970337 Ry
     estimated scf accuracy    <       0.03654214 Ry

     iteration # 84     ecut=    30.00 Ry     beta=0.70
     Davidson diagonalization with overlap
     ethr =  4.57E-04,  avg # of iterations =  1.0

     total cpu time spent up to now is        7.2 secs

     total energy              =     -31.21077848 Ry
     Harris-Foulkes estimate   =     -31.20967289 Ry
     estimated scf accuracy    <       0.03430689 Ry

     iteration # 85     ecut=    30.00 Ry     beta=0.70
     Davidson diagonalization with overlap
     ethr =  4.29E-04,  avg # of iterations =  1.0

     total cpu time spent up to now is        7.2 secs

     total energy              =     -31.20717377 Ry
     Harris-Foulkes estimate   =     -31.21138217 Ry
     estimated scf accuracy    <       0.15047634 Ry

     iteration # 86     ecut=    30.00 Ry     beta=0.70
     Davidson diagonalization with overlap
     ethr =  4.29E-04,  avg # of iterations =  1.0

     total cpu time spent up to now is        7.2 secs

     total energy              =     -31.20918905 Ry
     Harris-Foulkes estimate   =     -31.20921839 Ry
     estimated scf accuracy    <       0.00004416 Ry

[...]
     Harris-Foulkes estimate   =    -100.58100800 Ry
     estimated scf accuracy    <      11.79080846 Ry

     iteration # 59     ecut=    30.00 Ry     beta=0.70
     Davidson diagonalization with overlap
     ethr =  1.00E-02,  avg # of iterations =  9.0

     negative rho (up, down):  1.017E-01 0.000E+00

     total cpu time spent up to now is       11.1 secs

     total energy              =     -46.43498871 Ry
     Harris-Foulkes estimate   =     -49.00671684 Ry
     estimated scf accuracy    <      24.88875074 Ry

     iteration # 60     ecut=    30.00 Ry     beta=0.70
     Davidson diagonalization with overlap
     ethr =  1.00E-02,  avg # of iterations =  7.0

     negative rho (up, down):  1.558E-01 0.000E+00

     total cpu time spent up to now is       11.1 secs

     total energy              =      58.68671948 Ry
     Harris-Foulkes estimate   =    -644.52088610 Ry
     estimated scf accuracy    <      24.20441962 Ry

     iteration # 61     ecut=    30.00 Ry     beta=0.70
     Davidson diagonalization with overlap
     ethr =  1.00E-02,  avg # of iterations = 13.0

     negative rho (up, down):  1.046E-01 0.000E+00

     total cpu time spent up to now is       11.2 secs

     total energy              =    1300.69047136 Ry
     Harris-Foulkes estimate   =    -141.96694792 Ry
     estimated scf accuracy    <      11.97678439 Ry

     iteration # 62     ecut=    30.00 Ry     beta=0.70
     Davidson diagonalization with overlap
     ethr =  1.00E-02,  avg # of iterations =  9.0

     negative rho (up, down):  1.413E-01 0.000E+00

     total cpu time spent up to now is       11.3 secs

     total energy              =      67.84515415 Ry
     Harris-Foulkes estimate   =    -188.17718782 Ry
     estimated scf accuracy    <      26.25947892 Ry

     iteration # 63     ecut=    30.00 Ry     beta=0.70
     Davidson diagonalization with overlap
     ethr =  1.00E-02,  avg # of iterations =  7.0

     negative rho (up, down):  3.419E-01 0.000E+00

     total cpu time spent up to now is       11.3 secs

     total energy              =     -42.57585689 Ry
     Harris-Foulkes estimate   =     -45.00912680 Ry
     estimated scf accuracy    <      19.66695750 Ry

     iteration # 64     ecut=    30.00 Ry     beta=0.70
     Davidson diagonalization with overlap
     ethr =  1.00E-02,  avg # of iterations = 14.0

     negative rho (up, down):  1.923E-01 0.000E+00

     total cpu time spent up to now is       11.4 secs

     total energy              =    -163.78137621 Ry
     Harris-Foulkes estimate   =    -719.72513462 Ry
     estimated scf accuracy    <      31.63156262 Ry

     iteration # 65     ecut=    30.00 Ry     beta=0.70
     Davidson diagonalization with overlap
     ethr =  1.00E-02,  avg # of iterations =  5.0

     negative rho (up, down):  2.890E-01 0.000E+00

     total cpu time spent up to now is       11.4 secs

     total energy              =      88.67996090 Ry
     Harris-Foulkes estimate   =   -5345.62486955 Ry
     estimated scf accuracy    <      26.46622628 Ry

     iteration # 66     ecut=    30.00 Ry     beta=0.70
     Davidson diagonalization with overlap
     ethr =  1.00E-02,  avg # of iterations =  9.0

     negative rho (up, down):  3.087E-01 0.000E+00

     total cpu time spent up to now is       11.5 secs

     total energy              =      69.13862210 Ry
     Harris-Foulkes estimate   =   -1646.45729965 Ry
     estimated scf accuracy    <      32.88805188 Ry

     iteration # 67     ecut=    30.00 Ry     beta=0.70
     Davidson diagonalization with overlap
     ethr =  1.00E-02,  avg # of iterations =  7.0

     negative rho (up, down):  3.606E-01 0.000E+00

     total cpu time spent up to now is       11.6 secs

     total energy              =      -4.16531118 Ry
     Harris-Foulkes estimate   =    -955.46246505 Ry
     estimated scf accuracy    <      41.41250225 Ry

     iteration # 68     ecut=    30.00 Ry     beta=0.70
     Davidson diagonalization with overlap
     ethr =  1.00E-02,  avg # of iterations = 14.0

     negative rho (up, down):  6.330E-01 0.000E+00

     total cpu time spent up to now is       11.6 secs

     total energy              =      -5.50404568 Ry
     Harris-Foulkes estimate   =   -3578.15164196 Ry
     estimated scf accuracy    <       8.91715311 Ry

     iteration # 69     ecut=    30.00 Ry     beta=0.70
     Davidson diagonalization with overlap
     ethr =  1.00E-02,  avg # of iterations =  7.0

     negative rho (up, down):  1.585E-01 0.000E+00

     total cpu time spent up to now is       11.7 secs

     total energy              =      85.29067772 Ry
     Harris-Foulkes estimate   =    -241.54138604 Ry
     estimated scf accuracy    <      36.11129823 Ry

     iteration # 70     ecut=    30.00 Ry     beta=0.70
     Davidson diagonalization with overlap
     ethr =  1.00E-02,  avg # of iterations =  8.0

     negative rho (up, down):  1.421E-01 0.000E+00

     total cpu time spent up to now is       11.8 secs

     total energy              =    -291.64700809 Ry
     Harris-Foulkes estimate   =    -260.53305246 Ry
     estimated scf accuracy    <      49.49985570 Ry

     iteration # 71     ecut=    30.00 Ry     beta=0.70
     Davidson diagonalization with overlap
     ethr =  1.00E-02,  avg # of iterations =  5.0

     negative rho (up, down):  2.955E-01 0.000E+00

     total cpu time spent up to now is       11.8 secs

     total energy              =      95.79944548 Ry
     Harris-Foulkes estimate   =    -868.92473476 Ry
     estimated scf accuracy    <      37.02755093 Ry

     iteration # 72     ecut=    30.00 Ry     beta=0.70
     Davidson diagonalization with overlap
     ethr =  1.00E-02,  avg # of iterations =  7.0

     negative rho (up, down):  5.381E-01 0.000E+00

     total cpu time spent up to now is       11.9 secs

     total energy              =     -49.74441729 Ry
     Harris-Foulkes estimate   =    -937.55863027 Ry
     estimated scf accuracy    <      44.65072429 Ry

     iteration # 73     ecut=    30.00 Ry     beta=0.70
     Davidson diagonalization with overlap
     ethr =  1.00E-02,  avg # of iterations =  5.0

     negative rho (up, down):  4.437E-01 0.000E+00

     total cpu time spent up to now is       11.9 secs

     total energy              =     477.23657532 Ry
     Harris-Foulkes estimate   =    -963.01941684 Ry
     estimated scf accuracy    <      39.70372380 Ry

     iteration # 74     ecut=    30.00 Ry     beta=0.70
     Davidson diagonalization with overlap
     ethr =  1.00E-02,  avg # of iterations =  7.0

     negative rho (up, down):  6.507E-01 0.000E+00

     total cpu time spent up to now is       12.0 secs

     total energy              =    -181.99938560 Ry
     Harris-Foulkes estimate   =    -924.52035198 Ry
     estimated scf accuracy    <      40.78271123 Ry

     iteration # 75     ecut=    30.00 Ry     beta=0.70
     Davidson diagonalization with overlap
     ethr =  1.00E-02,  avg # of iterations =  6.0

     negative rho (up, down):  8.673E-01 0.000E+00

     total cpu time spent up to now is       12.0 secs

     total energy              =  -10955.67305513 Ry
     Harris-Foulkes estimate   =   -4375.65947784 Ry
     estimated scf accuracy    <      39.60852748 Ry

     iteration # 76     ecut=    30.00 Ry     beta=0.70
     Davidson diagonalization with overlap
     ethr =  1.00E-02,  avg # of iterations =  8.0

     negative rho (up, down):  8.201E-01 0.000E+00

     total cpu time spent up to now is       12.1 secs

     total energy              =    -543.50652467 Ry
     Harris-Foulkes estimate   =  -62187.07463127 Ry
     estimated scf accuracy    <      38.37887728 Ry

     iteration # 77     ecut=    30.00 Ry     beta=0.70
     Davidson diagonalization with overlap
     ethr =  1.00E-02,  avg # of iterations =  7.0

     negative rho (up, down):  1.050E+00 0.000E+00

     total cpu time spent up to now is       12.1 secs

     total energy              =      74.28607216 Ry
     Harris-Foulkes estimate   =  -10826.54742536 Ry
     estimated scf accuracy    <      48.08080343 Ry

     iteration # 78     ecut=    30.00 Ry     beta=0.70
     Davidson diagonalization with overlap
     ethr =  1.00E-02,  avg # of iterations =  6.0

     negative rho (up, down):  1.193E+00 0.000E+00

     total cpu time spent up to now is       12.2 secs

     total energy              =     122.43679858 Ry
     Harris-Foulkes estimate   =   -1414.81872586 Ry
     estimated scf accuracy    <      35.23719029 Ry

     iteration # 79     ecut=    30.00 Ry     beta=0.70
     Davidson diagonalization with overlap
     ethr =  1.00E-02,  avg # of iterations = 12.0

     negative rho (up, down):  1.286E-01 0.000E+00

     total cpu time spent up to now is       12.2 secs

     total energy              =     118.52545665 Ry
     Harris-Foulkes estimate   =  -24872.03551748 Ry
     estimated scf accuracy    <      34.71878080 Ry

     iteration # 80     ecut=    30.00 Ry     beta=0.70
     Davidson diagonalization with overlap
     ethr =  1.00E-02,  avg # of iterations =  5.0

     negative rho (up, down):  5.361E-01 0.000E+00

     total cpu time spent up to now is       12.3 secs

     total energy              =    -272.86958719 Ry
     Harris-Foulkes estimate   =   -2769.41393823 Ry
     estimated scf accuracy    <      23.35830094 Ry

     iteration # 81     ecut=    30.00 Ry     beta=0.70
     Davidson diagonalization with overlap
     ethr =  1.00E-02,  avg # of iterations =  7.0

     negative rho (up, down):  4.271E-01 0.000E+00

     total cpu time spent up to now is       12.3 secs

     total energy              =     103.05568648 Ry
     Harris-Foulkes estimate   =   -2594.00766962 Ry
     estimated scf accuracy    <      22.39645944 Ry

     iteration # 82     ecut=    30.00 Ry     beta=0.70
     Davidson diagonalization with overlap
     ethr =  1.00E-02,  avg # of iterations =  6.0

     negative rho (up, down):  3.205E-01 0.000E+00

     total cpu time spent up to now is       12.4 secs

     total energy              =     -90.41551807 Ry
     Harris-Foulkes estimate   =    -576.72653299 Ry
     estimated scf accuracy    <      20.59715229 Ry

     iteration # 83     ecut=    30.00 Ry     beta=0.70
     Davidson diagonalization with overlap
     ethr =  1.00E-02,  avg # of iterations =  8.0

     negative rho (up, down):  4.389E-02 0.000E+00

     total cpu time spent up to now is       12.4 secs

     total energy              =      39.74284067 Ry
     Harris-Foulkes estimate   =   -1004.30548268 Ry
     estimated scf accuracy    <      33.40301372 Ry

     iteration # 84     ecut=    30.00 Ry     beta=0.70
     Davidson diagonalization with overlap
     ethr =  1.00E-02,  avg # of iterations = 10.0

     negative rho (up, down):  9.840E-04 0.000E+00

     total cpu time spent up to now is       12.5 secs

     total energy              =     -15.05168940 Ry
     Harris-Foulkes estimate   =    -224.19380967 Ry
     estimated scf accuracy    <      35.28077064 Ry

     iteration # 85     ecut=    30.00 Ry     beta=0.70
     Davidson diagonalization with overlap
     ethr =  1.00E-02,  avg # of iterations =  4.0

     negative rho (up, down):  1.658E-03 0.000E+00

     total cpu time spent up to now is       12.5 secs

     total energy              =     -26.40113348 Ry
     Harris-Foulkes estimate   =     -86.17934706 Ry
     estimated scf accuracy    <      26.90206609 Ry

     iteration # 86     ecut=    30.00 Ry     beta=0.70
     Davidson diagonalization with overlap
     ethr =  1.00E-02,  avg # of iterations =  4.0

     negative rho (up, down):  8.646E-03 0.000E+00

     total cpu time spent up to now is       12.6 secs

     total energy              =     -74.99836152 Ry
     Harris-Foulkes estimate   =     -71.73531623 Ry
     estimated scf accuracy    <      53.63395960 Ry

     iteration # 87     ecut=    30.00 Ry     beta=0.70
     Davidson diagonalization with overlap
     ethr =  1.00E-02,  avg # of iterations =  4.0

     negative rho (up, down):  7.514E-03 0.000E+00

     total cpu time spent up to now is       12.6 secs

     total energy              =     -50.93299760 Ry
     Harris-Foulkes estimate   =    -422.17634249 Ry
     estimated scf accuracy    <      33.22470730 Ry

     iteration # 88     ecut=    30.00 Ry     beta=0.70
     Davidson diagonalization with overlap
     ethr =  1.00E-02,  avg # of iterations =  4.0

     negative rho (up, down):  4.550E-02 0.000E+00

     total cpu time spent up to now is       12.7 secs

     total energy              =      13.15277041 Ry
     Harris-Foulkes estimate   =    -730.95478565 Ry
     estimated scf accuracy    <      21.03388774 Ry

     iteration # 89     ecut=    30.00 Ry     beta=0.70
     Davidson diagonalization with overlap
     ethr =  1.00E-02,  avg # of iterations =  5.0

     negative rho (up, down):  1.383E-01 0.000E+00

     total cpu time spent up to now is       12.7 secs

     total energy              =    -163.50560207 Ry
     Harris-Foulkes estimate   =    -127.69453388 Ry
     estimated scf accuracy    <      40.01088081 Ry

     iteration # 90     ecut=    30.00 Ry     beta=0.70
     Davidson diagonalization with overlap
     ethr =  1.00E-02,  avg # of iterations =  6.0

     negative rho (up, down):  3.055E-01 0.000E+00

     total cpu time spent up to now is       12.7 secs

     total energy              =       9.97167966 Ry
     Harris-Foulkes estimate   =    -791.77746869 Ry
     estimated scf accuracy    <      39.18619883 Ry

     iteration # 91     ecut=    30.00 Ry     beta=0.70
     Davidson diagonalization with overlap
     ethr =  1.00E-02,  avg # of iterations =  6.0

     negative rho (up, down):  6.592E-01 0.000E+00

     total cpu time spent up to now is       12.8 secs

     total energy              =     -49.67136989 Ry
     Harris-Foulkes estimate   =    -220.35150583 Ry
     estimated scf accuracy    <      70.55757622 Ry

     iteration # 92     ecut=    30.00 Ry     beta=0.70
     Davidson diagonalization with overlap
     ethr =  1.00E-02,  avg # of iterations =  7.0

     negative rho (up, down):  2.405E-01 0.000E+00

     total cpu time spent up to now is       12.9 secs

     total energy              =      82.33818587 Ry
     Harris-Foulkes estimate   =   -1189.78980059 Ry
     estimated scf accuracy    <      32.98067298 Ry

     iteration # 93     ecut=    30.00 Ry     beta=0.70
     Davidson diagonalization with overlap
     ethr =  1.00E-02,  avg # of iterations = 10.0

     negative rho (up, down):  2.123E-01 0.000E+00

     total cpu time spent up to now is       12.9 secs

     total energy              =      53.45911238 Ry
     Harris-Foulkes estimate   =    -663.18986210 Ry
     estimated scf accuracy    <      34.17213936 Ry

     iteration # 94     ecut=    30.00 Ry     beta=0.70
     Davidson diagonalization with overlap
     ethr =  1.00E-02,  avg # of iterations =  7.0

     negative rho (up, down):  3.040E-01 0.000E+00

     total cpu time spent up to now is       13.0 secs

     total energy              =     706.38153588 Ry
     Harris-Foulkes estimate   =    -297.68604914 Ry
     estimated scf accuracy    <      39.86741452 Ry

     iteration # 95     ecut=    30.00 Ry     beta=0.70
     Davidson diagonalization with overlap
     ethr =  1.00E-02,  avg # of iterations =  7.0

     negative rho (up, down):  6.737E-01 0.000E+00

     total cpu time spent up to now is       13.1 secs

     total energy              =    -108.46658861 Ry
     Harris-Foulkes estimate   =    -852.52223699 Ry
     estimated scf accuracy    <      55.29334032 Ry

     iteration # 96     ecut=    30.00 Ry     beta=0.70
     Davidson diagonalization with overlap
     ethr =  1.00E-02,  avg # of iterations =  8.0

     negative rho (up, down):  1.011E+00 0.000E+00

     total cpu time spent up to now is       13.1 secs

     total energy              =     -46.73297905 Ry
     Harris-Foulkes estimate   =   -1862.21422304 Ry
     estimated scf accuracy    <      49.02718271 Ry

     iteration # 97     ecut=    30.00 Ry     beta=0.70
     Davidson diagonalization with overlap
     ethr =  1.00E-02,  avg # of iterations =  7.0

     negative rho (up, down):  1.588E+00 0.000E+00

     total cpu time spent up to now is       13.2 secs

     total energy              =  -77115.77964195 Ry
     Harris-Foulkes estimate   =   -1742.28460939 Ry
     estimated scf accuracy    <      41.42915533 Ry

     iteration # 98     ecut=    30.00 Ry     beta=0.70
     Davidson diagonalization with overlap
     ethr =  1.00E-02,  avg # of iterations =  8.0

     negative rho (up, down):  1.529E+00 0.000E+00

     total cpu time spent up to now is       13.3 secs

     total energy              =     -29.85982060 Ry
     Harris-Foulkes estimate   = -131533.82370721 Ry
     estimated scf accuracy    <      30.52807134 Ry

     iteration # 99     ecut=    30.00 Ry     beta=0.70
     Davidson diagonalization with overlap
     ethr =  1.00E-02,  avg # of iterations =  9.0

     negative rho (up, down):  1.742E+00 0.000E+00

     total cpu time spent up to now is       13.3 secs

     total energy              =    -605.54991543 Ry
     Harris-Foulkes estimate   =   -1748.53338488 Ry
     estimated scf accuracy    <      40.90322728 Ry

     iteration #100     ecut=    30.00 Ry     beta=0.70
     Davidson diagonalization with overlap
     ethr =  1.00E-02,  avg # of iterations =  7.0

     negative rho (up, down):  8.488E-01 0.000E+00

     total cpu time spent up to now is       13.4 secs

     total energy              =     -69.64978397 Ry
     Harris-Foulkes estimate   =   -8308.82488276 Ry
     estimated scf accuracy    <      44.36700389 Ry

     End of self-consistent calculation

     convergence NOT achieved after 100 iterations: stopping

     Writing output data file pwscf.save
 
     init_run     :      0.10s CPU      0.11s WALL (       1 calls)
     electrons    :      9.98s CPU     12.41s WALL (       4 calls)
     update_pot   :      0.33s CPU      0.46s WALL (       3 calls)
     forces       :      0.07s CPU      0.08s WALL (       3 calls)

     Called by init_run:
     wfcinit      :      0.01s CPU      0.02s WALL (       1 calls)
     potinit      :      0.03s CPU      0.03s WALL (       1 calls)

     Called by electrons:
     c_bands      :      4.78s CPU      5.03s WALL (     287 calls)
     sum_band     :      0.83s CPU      0.90s WALL (     287 calls)
     v_of_rho     :      2.08s CPU      2.20s WALL (     291 calls)
     mix_rho      :      2.03s CPU      3.54s WALL (     287 calls)

     Called by c_bands:
     init_us_2    :      0.03s CPU      0.03s WALL (     575 calls)
     cegterg      :      4.72s CPU      4.88s WALL (     287 calls)

     Called by sum_band:

     Called by *egterg:
     h_psi        :      3.97s CPU      4.10s WALL (    1360 calls)
     g_psi        :      0.04s CPU      0.04s WALL (    1072 calls)
     cdiaghg      :      0.27s CPU      0.28s WALL (    1356 calls)

     Called by h_psi:
     h_psi:pot    :      3.95s CPU      4.08s WALL (    1360 calls)
     h_psi:calbec :      0.07s CPU      0.07s WALL (    1360 calls)
     vloc_psi     :      3.86s CPU      3.99s WALL (    1360 calls)
     add_vuspsi   :      0.01s CPU      0.01s WALL (    1360 calls)

     General routines
     calbec       :      0.08s CPU      0.09s WALL (    1374 calls)
     fft          :      1.45s CPU      1.54s WALL (    3207 calls)
     fftw         :      4.01s CPU      4.18s WALL (   18060 calls)
     davcio       :      0.32s CPU      1.22s WALL (    5397 calls)
 
     Parallel routines
     fft_scatter  :      2.20s CPU      2.39s WALL (   21267 calls)
 
     PWSCF        :    10.63s CPU        13.46s WALL

 
   This run was terminated on:   7:20: 7  14Feb2018            

=------------------------------------------------------------------------------=
   JOB DONE.
=------------------------------------------------------------------------------=
