
     Program PWSCF v.6.0 (svn rev. 13079) starts on 14Feb2018 at  7:21:33 

     This program is part of the open-source Quantum ESPRESSO suite
     for quantum simulation of materials; please cite
         "P. Giannozzi et al., J. Phys.:Condens. Matter 21 395502 (2009);
          URL http://www.quantum-espresso.org", 
     in publications or presentations arising from this work. More details at
     http://www.quantum-espresso.org/quote

     Parallel version (MPI), running on    28 processors
     R & G space division:  proc/nbgrp/npool/nimage =      28
     Reading input from inputs/MD-H2O-2/81.in

     Current dimensions of program PWSCF are:
     Max number of different atomic species (ntypx) = 10
     Max number of k-points (npk) =  40000
     Max angular momentum in pseudopotentials (lmaxx) =  3

     Subspace diagonalization in iterative solution of the eigenvalue problem:
     a serial algorithm will be used

 
     Parallelization info
     --------------------
     sticks:   dense  smooth     PW     G-vecs:    dense   smooth      PW
     Min         136     136     33                 6338     6338     787
     Max         137     137     34                 6341     6341     792
     Sum        3809    3809    949               177509   177509   22119
 


     bravais-lattice index     =            1
     lattice parameter (alat)  =      20.0000  a.u.
     unit-cell volume          =    8000.0000 (a.u.)^3
     number of atoms/cell      =            3
     number of atomic types    =            2
     number of electrons       =         8.00
     number of Kohn-Sham states=            8
     kinetic-energy cutoff     =      30.0000  Ry
     charge density cutoff     =     120.0000  Ry
     convergence threshold     =      1.0E-08
     mixing beta               =       0.7000
     number of iterations used =            8  plain     mixing
     Exchange-correlation      = BLYP ( 1  3  1  3 0 0)
     nstep                     =         5000


     celldm(1)=  20.000000  celldm(2)=   0.000000  celldm(3)=   0.000000
     celldm(4)=   0.000000  celldm(5)=   0.000000  celldm(6)=   0.000000

     crystal axes: (cart. coord. in units of alat)
               a(1) = (   1.000000   0.000000   0.000000 )  
               a(2) = (   0.000000   1.000000   0.000000 )  
               a(3) = (   0.000000   0.000000   1.000000 )  

     reciprocal axes: (cart. coord. in units 2 pi/alat)
               b(1) = (  1.000000  0.000000  0.000000 )  
               b(2) = (  0.000000  1.000000  0.000000 )  
               b(3) = (  0.000000  0.000000  1.000000 )  


     PseudoPot. # 1 for  H read from file:
     ./H.blyp-hgh.UPF
     MD5 check sum: c576e69559cde411e611be972c763230
     Pseudo is Norm-conserving, Zval =  1.0
     Generated in analytical, separable form
     Using radial grid of  929 points,  0 beta functions with: 

     PseudoPot. # 2 for  O read from file:
     ./O.blyp-hgh.UPF
     MD5 check sum: d0b7156309aa9befef28faac7bc56342
     Pseudo is Norm-conserving, Zval =  6.0
     Generated in analytical, separable form
     Using radial grid of 1095 points,  1 beta functions with: 
                l(1) =   0

     atomic species   valence    mass     pseudopotential
        H              1.00     1.01000      H( 1.00)
        O              6.00    16.00000      O( 1.00)

     No symmetry found



   Cartesian axes

     site n.     atom                  positions (alat units)
         1           H   tau(   1) = (  -0.0570798   0.3756418   0.8779347  )
         2           H   tau(   2) = (   0.9262916   0.4124450  -0.0655153  )
         3           O   tau(   3) = (   0.6231146   0.3023876   1.0586943  )

     number of k points=     1  Marzari-Vanderbilt smearing, width (Ry)=  0.0250
                       cart. coord. in units 2pi/alat
        k(    1) = (   0.0000000   0.0000000   0.0000000), wk =   2.0000000

     Dense  grid:   177509 G-vectors     FFT dimensions: (  72,  72,  72)

     Estimated max dynamical RAM per process >       6.09Mb

     Estimated total allocated dynamical RAM >     170.64Mb

     Initial potential from superposition of free atoms
     Check: negative starting charge=   -0.356071

     starting charge    7.99998, renormalised to    8.00000

     negative rho (up, down):  3.561E-01 0.000E+00
     Starting wfc are    6 randomized atomic wfcs +    2 random wfc

     total cpu time spent up to now is        0.2 secs

     per-process dynamical memory:    18.8 Mb

     Self-consistent Calculation

     iteration #  1     ecut=    30.00 Ry     beta=0.70
     Davidson diagonalization with overlap
     ethr =  1.00E-02,  avg # of iterations =  6.0

     negative rho (up, down):  9.400E-02 0.000E+00

     total cpu time spent up to now is        0.3 secs

     total energy              =     -31.62064789 Ry
     Harris-Foulkes estimate   =     -32.36510140 Ry
     estimated scf accuracy    <       0.76922014 Ry

     iteration #  2     ecut=    30.00 Ry     beta=0.70
     Davidson diagonalization with overlap
     ethr =  9.62E-03,  avg # of iterations =  2.0

     negative rho (up, down):  7.673E-02 0.000E+00

     total cpu time spent up to now is        0.3 secs

     total energy              =     -30.55677259 Ry
     Harris-Foulkes estimate   =     -32.01912672 Ry
     estimated scf accuracy    <       5.10260558 Ry

     iteration #  3     ecut=    30.00 Ry     beta=0.70
     Davidson diagonalization with overlap
     ethr =  9.62E-03,  avg # of iterations =  2.0

     negative rho (up, down):  2.411E-02 0.000E+00

     total cpu time spent up to now is        0.4 secs

     total energy              =     -31.97443631 Ry
     Harris-Foulkes estimate   =     -31.97856679 Ry
     estimated scf accuracy    <       0.18177329 Ry

     iteration #  4     ecut=    30.00 Ry     beta=0.70
     Davidson diagonalization with overlap
     ethr =  2.27E-03,  avg # of iterations =  1.0

     negative rho (up, down):  1.409E-02 0.000E+00

     total cpu time spent up to now is        0.4 secs

     total energy              =     -31.97140139 Ry
     Harris-Foulkes estimate   =     -31.98016741 Ry
     estimated scf accuracy    <       0.12737690 Ry

     iteration #  5     ecut=    30.00 Ry     beta=0.70
     Davidson diagonalization with overlap
     ethr =  1.59E-03,  avg # of iterations =  1.0

     negative rho (up, down):  2.439E-03 0.000E+00

     total cpu time spent up to now is        0.4 secs

     total energy              =     -31.96059004 Ry
     Harris-Foulkes estimate   =     -31.97468772 Ry
     estimated scf accuracy    <       0.08904260 Ry

     iteration #  6     ecut=    30.00 Ry     beta=0.70
     Davidson diagonalization with overlap
     ethr =  1.11E-03,  avg # of iterations =  1.0

     negative rho (up, down):  5.606E-04 0.000E+00

     total cpu time spent up to now is        0.4 secs

     total energy              =     -31.94435813 Ry
     Harris-Foulkes estimate   =     -31.96219634 Ry
     estimated scf accuracy    <       0.04431409 Ry

     iteration #  7     ecut=    30.00 Ry     beta=0.70
     Davidson diagonalization with overlap
     ethr =  5.54E-04,  avg # of iterations =  6.0

     negative rho (up, down):  2.054E-05 0.000E+00

     total cpu time spent up to now is        0.5 secs

     total energy              =     -31.93782491 Ry
     Harris-Foulkes estimate   =     -31.94559138 Ry
     estimated scf accuracy    <       0.01619469 Ry

     iteration #  8     ecut=    30.00 Ry     beta=0.70
     Davidson diagonalization with overlap
     ethr =  2.02E-04,  avg # of iterations =  1.0

     negative rho (up, down):  6.469E-06 0.000E+00

     total cpu time spent up to now is        0.5 secs

     total energy              =     -31.93526828 Ry
     Harris-Foulkes estimate   =     -31.93843379 Ry
     estimated scf accuracy    <       0.00467215 Ry

     iteration #  9     ecut=    30.00 Ry     beta=0.70
     Davidson diagonalization with overlap
     ethr =  5.84E-05,  avg # of iterations =  6.0

     negative rho (up, down):  2.249E-06 0.000E+00

     total cpu time spent up to now is        0.6 secs

     total energy              =     -31.93559657 Ry
     Harris-Foulkes estimate   =     -31.93576095 Ry
     estimated scf accuracy    <       0.00025375 Ry

     iteration # 10     ecut=    30.00 Ry     beta=0.70
     Davidson diagonalization with overlap
     ethr =  3.17E-06,  avg # of iterations =  9.0

     negative rho (up, down):  3.105E-07 0.000E+00

     total cpu time spent up to now is        0.6 secs

     total energy              =     -31.93561855 Ry
     Harris-Foulkes estimate   =     -31.93561902 Ry
     estimated scf accuracy    <       0.00001714 Ry

     iteration # 11     ecut=    30.00 Ry     beta=0.70
     Davidson diagonalization with overlap
     ethr =  2.14E-07,  avg # of iterations =  1.0

     negative rho (up, down):  5.021E-08 0.000E+00

     total cpu time spent up to now is        0.6 secs

     total energy              =     -31.93561882 Ry
     Harris-Foulkes estimate   =     -31.93561930 Ry
     estimated scf accuracy    <       0.00000927 Ry

     iteration # 12     ecut=    30.00 Ry     beta=0.70
     Davidson diagonalization with overlap
     ethr =  1.16E-07,  avg # of iterations =  2.0

     total cpu time spent up to now is        0.7 secs

     total energy              =     -31.93561945 Ry
     Harris-Foulkes estimate   =     -31.93562068 Ry
     estimated scf accuracy    <       0.00000003 Ry

     iteration # 13     ecut=    30.00 Ry     beta=0.70
     Davidson diagonalization with overlap
     ethr =  4.03E-10,  avg # of iterations =  2.0

     total cpu time spent up to now is        0.7 secs

     End of self-consistent calculation

          k = 0.0000 0.0000 0.0000 ( 22119 PWs)   bands (ev):

   -25.0837 -10.1755  -8.3867  -8.3865  -8.3852  -0.3221   0.4247   0.7358

     the Fermi energy is    -8.2631 ev

!    total energy              =     -31.93561988 Ry
     Harris-Foulkes estimate   =     -31.93561946 Ry
     estimated scf accuracy    <          4.7E-09 Ry

     convergence has been achieved in  13 iterations

     Forces acting on atoms (Ry/au):

     atom    1 type  1   force =     0.01216070   -0.02602420   -0.04117845
     atom    2 type  1   force =    -0.01150860    0.02708055    0.04012738
     atom    3 type  2   force =    -0.00065210   -0.00105635    0.00105106

     Total force =     0.070707     Total SCF correction =     0.000091

     Molecular Dynamics Calculation

     Starting temperature  =  1000.00 K

     temperature is controlled by Andersen thermostat
     Collision frequency = 1.0000/timestep
     mass H                =     1.01
     mass O                =    16.00
     Time step             =   100.00 a.u.,  4.8378 femto-seconds

     Entering Dynamics:    iteration =     1
                           time      =   0.0048 pico-seconds


     Andersen thermostat:    3 collisions

ATOMIC_POSITIONS (bohr)
H       -1.220833212   8.289069891  17.816538259
H       18.703848439   8.177991363  -0.897894461
O       12.456055624   6.003227406  21.131575976


     kinetic energy (Ekin) =     0.05976346 Ry
     temperature           =  3145.29745093 K 
     Ekin + Etot (const)   =   -31.87585642 Ry

     Linear momentum :   -0.0000000000    0.0000000000    0.0000000000

     Writing output data file pwscf.save
     Check: negative starting charge=   -0.356071
     NEW-OLD atomic charge density approx. for the potential
     Check: negative starting charge=   -0.356486

     negative rho (up, down):  1.437E-01 0.000E+00

     total cpu time spent up to now is        1.0 secs

     per-process dynamical memory:    20.4 Mb

     Self-consistent Calculation

     iteration #  1     ecut=    30.00 Ry     beta=0.70
     Davidson diagonalization with overlap
     c_bands:  1 eigenvalues not converged
     ethr =  1.00E-06,  avg # of iterations = 20.0

     negative rho (up, down):  3.634E-02 0.000E+00

     total cpu time spent up to now is        1.1 secs

     total energy              =     -31.89142597 Ry
     Harris-Foulkes estimate   =     -31.85165903 Ry
     estimated scf accuracy    <       0.03144014 Ry

     iteration #  2     ecut=    30.00 Ry     beta=0.70
     Davidson diagonalization with overlap
     ethr =  3.93E-04,  avg # of iterations =  2.0

     negative rho (up, down):  9.595E-03 0.000E+00

     total cpu time spent up to now is        1.2 secs

     total energy              =     -31.91836075 Ry
     Harris-Foulkes estimate   =     -31.89471496 Ry
     estimated scf accuracy    <       0.00286465 Ry

     iteration #  3     ecut=    30.00 Ry     beta=0.70
     Davidson diagonalization with overlap
     ethr =  3.58E-05,  avg # of iterations =  8.0

     negative rho (up, down):  4.982E-03 0.000E+00

     total cpu time spent up to now is        1.2 secs

     total energy              =     -31.92284092 Ry
     Harris-Foulkes estimate   =     -31.91963464 Ry
     estimated scf accuracy    <       0.00779318 Ry

     iteration #  4     ecut=    30.00 Ry     beta=0.70
     Davidson diagonalization with overlap
     ethr =  3.58E-05,  avg # of iterations = 11.0

     negative rho (up, down):  4.682E-05 0.000E+00

     total cpu time spent up to now is        1.3 secs

     total energy              =     -31.92668413 Ry
     Harris-Foulkes estimate   =     -31.92340600 Ry
     estimated scf accuracy    <       0.00004500 Ry

     iteration #  5     ecut=    30.00 Ry     beta=0.70
     Davidson diagonalization with overlap
     ethr =  5.63E-07,  avg # of iterations = 15.0

     negative rho (up, down):  1.329E-05 0.000E+00

     total cpu time spent up to now is        1.3 secs

     total energy              =     -31.92669514 Ry
     Harris-Foulkes estimate   =     -31.92669642 Ry
     estimated scf accuracy    <       0.00000139 Ry

     iteration #  6     ecut=    30.00 Ry     beta=0.70
     Davidson diagonalization with overlap
     ethr =  1.74E-08,  avg # of iterations =  2.0

     negative rho (up, down):  1.993E-06 0.000E+00

     total cpu time spent up to now is        1.3 secs

     total energy              =     -31.92669553 Ry
     Harris-Foulkes estimate   =     -31.92669541 Ry
     estimated scf accuracy    <       0.00000084 Ry

     iteration #  7     ecut=    30.00 Ry     beta=0.70
     Davidson diagonalization with overlap
     ethr =  1.05E-08,  avg # of iterations =  1.0

     total cpu time spent up to now is        1.4 secs

     total energy              =     -31.92669533 Ry
     Harris-Foulkes estimate   =     -31.92669569 Ry
     estimated scf accuracy    <       0.00000023 Ry

     iteration #  8     ecut=    30.00 Ry     beta=0.70
     Davidson diagonalization with overlap
     ethr =  2.92E-09,  avg # of iterations =  2.0

     total cpu time spent up to now is        1.4 secs

     End of self-consistent calculation

          k = 0.0000 0.0000 0.0000 ( 22119 PWs)   bands (ev):

   -25.0886 -10.4310  -8.3921  -8.3915  -8.3905  -0.3239   0.5253   0.7986

     the Fermi energy is    -8.2684 ev

!    total energy              =     -31.92669526 Ry
     Harris-Foulkes estimate   =     -31.92669539 Ry
     estimated scf accuracy    <          3.9E-09 Ry

     convergence has been achieved in   8 iterations

     Forces acting on atoms (Ry/au):

     atom    1 type  1   force =     0.00833482    0.01246334   -0.13783439
     atom    2 type  1   force =    -0.00780912   -0.01130217    0.13809806
     atom    3 type  2   force =    -0.00052570   -0.00116117   -0.00026367

     Total force =     0.196175     Total SCF correction =     0.000922

     Entering Dynamics:    iteration =     2
                           time      =   0.0097 pico-seconds


     Andersen thermostat:    3 collisions

ATOMIC_POSITIONS (bohr)
H       -1.136696995   8.477584241  16.424561899
H       18.938597604   7.841650174   0.432057360
O       12.435925985   6.012558976  21.135491276


     kinetic energy (Ekin) =     0.05084968 Ry
     temperature           =  2676.17304293 K 
     Ekin + Etot (const)   =   -31.87584558 Ry
     Message from routine dynamics:
     Total linear momentum <> 0

     Linear momentum :    0.7484486370    0.2401060860    0.2348349473

     Writing output data file pwscf.save

     first order wave-functions extrapolation
     Check: negative starting charge=   -0.356486
     first order charge density extrapolation
     Check: negative starting charge=   -0.349718

     negative rho (up, down):  1.829E-01 0.000E+00

     total cpu time spent up to now is        1.7 secs

     per-process dynamical memory:    20.4 Mb

     Self-consistent Calculation

     iteration #  1     ecut=    30.00 Ry     beta=0.70
     Davidson diagonalization with overlap
     ethr =  1.00E-06,  avg # of iterations = 12.0

     negative rho (up, down):  3.983E-02 0.000E+00

     total cpu time spent up to now is        1.9 secs

     total energy              =      -7.49159596 Ry
     Harris-Foulkes estimate   =     -56.59843827 Ry
     estimated scf accuracy    <       5.44005872 Ry

     iteration #  2     ecut=    30.00 Ry     beta=0.70
     Davidson diagonalization with overlap
     ethr =  1.00E-02,  avg # of iterations =  4.0

     negative rho (up, down):  2.486E-02 0.000E+00

     total cpu time spent up to now is        1.9 secs

     total energy              =     -31.17746482 Ry
     Harris-Foulkes estimate   =     -34.19919191 Ry
     estimated scf accuracy    <       6.06448001 Ry

     iteration #  3     ecut=    30.00 Ry     beta=0.70
     Davidson diagonalization with overlap
     ethr =  1.00E-02,  avg # of iterations =  2.0

     negative rho (up, down):  1.651E-04 0.000E+00

     total cpu time spent up to now is        1.9 secs

     total energy              =     -30.72739317 Ry
     Harris-Foulkes estimate   =     -34.03193326 Ry
     estimated scf accuracy    <      15.04437861 Ry

     iteration #  4     ecut=    30.00 Ry     beta=0.70
     Davidson diagonalization with overlap
     ethr =  1.00E-02,  avg # of iterations =  2.0

     negative rho (up, down):  2.410E-04 0.000E+00

     total cpu time spent up to now is        2.0 secs

     total energy              =     -32.04425876 Ry
     Harris-Foulkes estimate   =     -32.20521653 Ry
     estimated scf accuracy    <       1.79539120 Ry

     iteration #  5     ecut=    30.00 Ry     beta=0.70
     Davidson diagonalization with overlap
     ethr =  1.00E-02,  avg # of iterations =  1.0

     total cpu time spent up to now is        2.0 secs

     total energy              =     -31.26742389 Ry
     Harris-Foulkes estimate   =     -32.07311620 Ry
     estimated scf accuracy    <       1.70628450 Ry

     iteration #  6     ecut=    30.00 Ry     beta=0.70
     Davidson diagonalization with overlap
     ethr =  1.00E-02,  avg # of iterations =  2.0

     total cpu time spent up to now is        2.0 secs

     total energy              =     -31.80736326 Ry
     Harris-Foulkes estimate   =     -31.92985214 Ry
     estimated scf accuracy    <       4.42304517 Ry

     iteration #  7     ecut=    30.00 Ry     beta=0.70
     Davidson diagonalization with overlap
     ethr =  1.00E-02,  avg # of iterations =  1.0

     total cpu time spent up to now is        2.0 secs

     total energy              =     -32.04527687 Ry
     Harris-Foulkes estimate   =     -31.80793407 Ry
     estimated scf accuracy    <       4.53825047 Ry

     iteration #  8     ecut=    30.00 Ry     beta=0.70
     Davidson diagonalization with overlap
     ethr =  1.00E-02,  avg # of iterations =  1.0

     total cpu time spent up to now is        2.1 secs

     total energy              =     -31.68002542 Ry
     Harris-Foulkes estimate   =     -32.04072814 Ry
     estimated scf accuracy    <       4.70439695 Ry

     iteration #  9     ecut=    30.00 Ry     beta=0.70
     Davidson diagonalization with overlap
     ethr =  1.00E-02,  avg # of iterations =  1.0

     total cpu time spent up to now is        2.1 secs

     total energy              =     -31.63584702 Ry
     Harris-Foulkes estimate   =     -31.72238487 Ry
     estimated scf accuracy    <       0.87966198 Ry

     iteration # 10     ecut=    30.00 Ry     beta=0.70
     Davidson diagonalization with overlap
     ethr =  1.00E-02,  avg # of iterations =  1.0

     total cpu time spent up to now is        2.2 secs

     total energy              =     -31.70383399 Ry
     Harris-Foulkes estimate   =     -31.66438792 Ry
     estimated scf accuracy    <       0.57386305 Ry

     iteration # 11     ecut=    30.00 Ry     beta=0.70
     Davidson diagonalization with overlap
     ethr =  7.17E-03,  avg # of iterations =  1.0

     negative rho (up, down):  5.869E-01 0.000E+00

     total cpu time spent up to now is        2.2 secs

     total energy              =     -31.67878550 Ry
     Harris-Foulkes estimate   =     -31.70634036 Ry
     estimated scf accuracy    <       0.82026750 Ry

     iteration # 12     ecut=    30.00 Ry     beta=0.70
     Davidson diagonalization with overlap
     ethr =  7.17E-03,  avg # of iterations =  4.0

     negative rho (up, down):  5.913E-02 0.000E+00

     total cpu time spent up to now is        2.2 secs

     total energy              =     -32.59366982 Ry
     Harris-Foulkes estimate   =     -34.69088985 Ry
     estimated scf accuracy    <       7.37637133 Ry

     iteration # 13     ecut=    30.00 Ry     beta=0.70
     Davidson diagonalization with overlap
     ethr =  7.17E-03,  avg # of iterations =  2.0

     negative rho (up, down):  3.957E-03 0.000E+00

     total cpu time spent up to now is        2.3 secs

     total energy              =     -32.16186823 Ry
     Harris-Foulkes estimate   =     -32.61563165 Ry
     estimated scf accuracy    <       4.46466015 Ry

     iteration # 14     ecut=    30.00 Ry     beta=0.70
     Davidson diagonalization with overlap
     ethr =  7.17E-03,  avg # of iterations =  3.0

     total cpu time spent up to now is        2.3 secs

     total energy              =     -31.92918045 Ry
     Harris-Foulkes estimate   =     -32.16802269 Ry
     estimated scf accuracy    <       3.73178592 Ry

     iteration # 15     ecut=    30.00 Ry     beta=0.70
     Davidson diagonalization with overlap
     ethr =  7.17E-03,  avg # of iterations =  1.0

     negative rho (up, down):  6.770E-06 0.000E+00

     total cpu time spent up to now is        2.3 secs

     total energy              =     -31.39661001 Ry
     Harris-Foulkes estimate   =     -31.93018278 Ry
     estimated scf accuracy    <       3.36937429 Ry

     iteration # 16     ecut=    30.00 Ry     beta=0.70
     Davidson diagonalization with overlap
     ethr =  7.17E-03,  avg # of iterations =  1.0

     total cpu time spent up to now is        2.4 secs

     total energy              =     -31.54585377 Ry
     Harris-Foulkes estimate   =     -31.67714185 Ry
     estimated scf accuracy    <       0.52231959 Ry

     iteration # 17     ecut=    30.00 Ry     beta=0.70
     Davidson diagonalization with overlap
     ethr =  6.53E-03,  avg # of iterations =  1.0

     negative rho (up, down):  3.083E-03 0.000E+00

     total cpu time spent up to now is        2.4 secs

     total energy              =     -32.72263818 Ry
     Harris-Foulkes estimate   =     -31.98222797 Ry
     estimated scf accuracy    <       3.38088094 Ry

     iteration # 18     ecut=    30.00 Ry     beta=0.70
     Davidson diagonalization with overlap
     ethr =  6.53E-03,  avg # of iterations =  1.0

     negative rho (up, down):  2.718E-04 0.000E+00

     total cpu time spent up to now is        2.4 secs

     total energy              =     -30.31525458 Ry
     Harris-Foulkes estimate   =     -32.74509432 Ry
     estimated scf accuracy    <       4.52649317 Ry

     iteration # 19     ecut=    30.00 Ry     beta=0.70
     Davidson diagonalization with overlap
     ethr =  6.53E-03,  avg # of iterations =  3.0

     total cpu time spent up to now is        2.5 secs

     total energy              =     -31.84969086 Ry
     Harris-Foulkes estimate   =     -33.13542158 Ry
     estimated scf accuracy    <       6.71753690 Ry

     iteration # 20     ecut=    30.00 Ry     beta=0.70
     Davidson diagonalization with overlap
     ethr =  6.53E-03,  avg # of iterations =  2.0

     negative rho (up, down):  4.559E-07 0.000E+00

     total cpu time spent up to now is        2.5 secs

     total energy              =     -31.32528787 Ry
     Harris-Foulkes estimate   =     -31.90367896 Ry
     estimated scf accuracy    <       4.37852942 Ry

     iteration # 21     ecut=    30.00 Ry     beta=0.70
     Davidson diagonalization with overlap
     ethr =  6.53E-03,  avg # of iterations =  1.0

     negative rho (up, down):  2.382E-03 0.000E+00

     total cpu time spent up to now is        2.5 secs

     total energy              =     -31.59896546 Ry
     Harris-Foulkes estimate   =     -31.60056398 Ry
     estimated scf accuracy    <       0.02587991 Ry

     iteration # 22     ecut=    30.00 Ry     beta=0.70
     Davidson diagonalization with overlap
     ethr =  3.23E-04,  avg # of iterations =  4.0

     negative rho (up, down):  8.636E-05 0.000E+00

     total cpu time spent up to now is        2.6 secs

     total energy              =     -31.59570759 Ry
     Harris-Foulkes estimate   =     -31.60028625 Ry
     estimated scf accuracy    <       0.01683887 Ry

     iteration # 23     ecut=    30.00 Ry     beta=0.70
     Davidson diagonalization with overlap
     ethr =  2.10E-04,  avg # of iterations =  1.0

     negative rho (up, down):  4.893E-04 0.000E+00

     total cpu time spent up to now is        2.7 secs

     total energy              =     -31.60470738 Ry
     Harris-Foulkes estimate   =     -31.60563982 Ry
     estimated scf accuracy    <       0.02720680 Ry

     iteration # 24     ecut=    30.00 Ry     beta=0.70
     Davidson diagonalization with overlap
     ethr =  2.10E-04,  avg # of iterations =  1.0

     negative rho (up, down):  5.879E-04 0.000E+00

     total cpu time spent up to now is        2.7 secs

     total energy              =     -31.60791915 Ry
     Harris-Foulkes estimate   =     -31.60484859 Ry
     estimated scf accuracy    <       0.02815058 Ry

     iteration # 25     ecut=    30.00 Ry     beta=0.70
     Davidson diagonalization with overlap
     ethr =  2.10E-04,  avg # of iterations =  1.0

     negative rho (up, down):  1.851E-04 0.000E+00

     total cpu time spent up to now is        2.7 secs

     total energy              =     -31.61355896 Ry
     Harris-Foulkes estimate   =     -31.60758872 Ry
     estimated scf accuracy    <       0.02285689 Ry

     iteration # 26     ecut=    30.00 Ry     beta=0.70
     Davidson diagonalization with overlap
     ethr =  2.10E-04,  avg # of iterations =  1.0

     negative rho (up, down):  3.926E-04 0.000E+00

     total cpu time spent up to now is        2.8 secs

     total energy              =     -31.60713650 Ry
     Harris-Foulkes estimate   =     -31.61450916 Ry
     estimated scf accuracy    <       0.04520758 Ry

     iteration # 27     ecut=    30.00 Ry     beta=0.70
     Davidson diagonalization with overlap
     ethr =  2.10E-04,  avg # of iterations =  1.0

     negative rho (up, down):  1.912E-04 0.000E+00

     total cpu time spent up to now is        2.8 secs

     total energy              =     -31.60791620 Ry
     Harris-Foulkes estimate   =     -31.60822148 Ry
     estimated scf accuracy    <       0.02296396 Ry

     iteration # 28     ecut=    30.00 Ry     beta=0.70
     Davidson diagonalization with overlap
     ethr =  2.10E-04,  avg # of iterations =  1.0

     negative rho (up, down):  5.703E-05 0.000E+00

     total cpu time spent up to now is        2.8 secs

     total energy              =     -31.60537001 Ry
     Harris-Foulkes estimate   =     -31.60796072 Ry
     estimated scf accuracy    <       0.02213556 Ry

     iteration # 29     ecut=    30.00 Ry     beta=0.70
     Davidson diagonalization with overlap
     ethr =  2.10E-04,  avg # of iterations =  1.0

     negative rho (up, down):  3.201E-04 0.000E+00

     total cpu time spent up to now is        2.9 secs

     total energy              =     -31.60661162 Ry
     Harris-Foulkes estimate   =     -31.60538486 Ry
     estimated scf accuracy    <       0.02033530 Ry

     iteration # 30     ecut=    30.00 Ry     beta=0.70
     Davidson diagonalization with overlap
     ethr =  2.10E-04,  avg # of iterations =  1.0

     negative rho (up, down):  1.442E-04 0.000E+00

     total cpu time spent up to now is        2.9 secs

     total energy              =     -31.60431150 Ry
     Harris-Foulkes estimate   =     -31.60658523 Ry
     estimated scf accuracy    <       0.01982051 Ry

     iteration # 31     ecut=    30.00 Ry     beta=0.70
     Davidson diagonalization with overlap
     ethr =  2.10E-04,  avg # of iterations =  1.0

     total cpu time spent up to now is        3.0 secs

     total energy              =     -31.58780459 Ry
     Harris-Foulkes estimate   =     -31.60419044 Ry
     estimated scf accuracy    <       0.02378920 Ry

     iteration # 32     ecut=    30.00 Ry     beta=0.70
     Davidson diagonalization with overlap
     ethr =  2.10E-04,  avg # of iterations =  2.0

     negative rho (up, down):  5.176E-06 0.000E+00

     total cpu time spent up to now is        3.0 secs

     total energy              =     -31.48352843 Ry
     Harris-Foulkes estimate   =     -31.74234826 Ry
     estimated scf accuracy    <       3.04348548 Ry

     iteration # 33     ecut=    30.00 Ry     beta=0.70
     Davidson diagonalization with overlap
     ethr =  2.10E-04,  avg # of iterations =  2.0

     negative rho (up, down):  5.865E-07 0.000E+00

     total cpu time spent up to now is        3.0 secs

     total energy              =     -31.60320609 Ry
     Harris-Foulkes estimate   =     -31.60432255 Ry
     estimated scf accuracy    <       0.02285304 Ry

     iteration # 34     ecut=    30.00 Ry     beta=0.70
     Davidson diagonalization with overlap
     ethr =  2.10E-04,  avg # of iterations =  1.0

     negative rho (up, down):  9.078E-08 0.000E+00

     total cpu time spent up to now is        3.1 secs

     total energy              =     -31.60141204 Ry
     Harris-Foulkes estimate   =     -31.60313694 Ry
     estimated scf accuracy    <       0.02955972 Ry

     iteration # 35     ecut=    30.00 Ry     beta=0.70
     Davidson diagonalization with overlap
     ethr =  2.10E-04,  avg # of iterations =  1.0

     negative rho (up, down):  1.461E-07 0.000E+00

     total cpu time spent up to now is        3.1 secs

     total energy              =     -31.60116804 Ry
     Harris-Foulkes estimate   =     -31.60123580 Ry
     estimated scf accuracy    <       0.03846685 Ry

     iteration # 36     ecut=    30.00 Ry     beta=0.70
     Davidson diagonalization with overlap
     ethr =  2.10E-04,  avg # of iterations =  1.0

     negative rho (up, down):  8.196E-08 0.000E+00

     total cpu time spent up to now is        3.1 secs

     total energy              =     -31.59981996 Ry
     Harris-Foulkes estimate   =     -31.60116853 Ry
     estimated scf accuracy    <       0.03847965 Ry

     iteration # 37     ecut=    30.00 Ry     beta=0.70
     Davidson diagonalization with overlap
     ethr =  2.10E-04,  avg # of iterations =  1.0

     negative rho (up, down):  3.508E-08 0.000E+00

     total cpu time spent up to now is        3.2 secs

     total energy              =     -31.60022052 Ry
     Harris-Foulkes estimate   =     -31.59984487 Ry
     estimated scf accuracy    <       0.03158410 Ry

     iteration # 38     ecut=    30.00 Ry     beta=0.70
     Davidson diagonalization with overlap
     ethr =  2.10E-04,  avg # of iterations =  1.0

     negative rho (up, down):  4.062E-08 0.000E+00

     total cpu time spent up to now is        3.2 secs

     total energy              =     -31.60005193 Ry
     Harris-Foulkes estimate   =     -31.60023109 Ry
     estimated scf accuracy    <       0.03530901 Ry

     iteration # 39     ecut=    30.00 Ry     beta=0.70
     Davidson diagonalization with overlap
     ethr =  2.10E-04,  avg # of iterations =  1.0

     total cpu time spent up to now is        3.2 secs

     total energy              =     -31.60180624 Ry
     Harris-Foulkes estimate   =     -31.60005353 Ry
     estimated scf accuracy    <       0.03384326 Ry

     iteration # 40     ecut=    30.00 Ry     beta=0.70
     Davidson diagonalization with overlap
     ethr =  2.10E-04,  avg # of iterations =  1.0

     total cpu time spent up to now is        3.3 secs

     total energy              =     -31.60459665 Ry
     Harris-Foulkes estimate   =     -31.60186900 Ry
     estimated scf accuracy    <       0.03675306 Ry

     iteration # 41     ecut=    30.00 Ry     beta=0.70
     Davidson diagonalization with overlap
     ethr =  2.10E-04,  avg # of iterations =  1.0

     negative rho (up, down):  2.599E-07 0.000E+00

     total cpu time spent up to now is        3.3 secs

     total energy              =     -31.59725772 Ry
     Harris-Foulkes estimate   =     -31.60427142 Ry
     estimated scf accuracy    <       0.02355659 Ry

     iteration # 42     ecut=    30.00 Ry     beta=0.70
     Davidson diagonalization with overlap
     ethr =  2.10E-04,  avg # of iterations =  1.0

     negative rho (up, down):  2.577E-08 0.000E+00

     total cpu time spent up to now is        3.3 secs

     total energy              =     -31.61301347 Ry
     Harris-Foulkes estimate   =     -31.60063398 Ry
     estimated scf accuracy    <       0.12476955 Ry

     iteration # 43     ecut=    30.00 Ry     beta=0.70
     Davidson diagonalization with overlap
     ethr =  2.10E-04,  avg # of iterations =  1.0

     total cpu time spent up to now is        3.4 secs

     total energy              =     -31.56470350 Ry
     Harris-Foulkes estimate   =     -31.63098984 Ry
     estimated scf accuracy    <       1.85075363 Ry

     iteration # 44     ecut=    30.00 Ry     beta=0.70
     Davidson diagonalization with overlap
     ethr =  2.10E-04,  avg # of iterations =  1.0

     total cpu time spent up to now is        3.4 secs

     total energy              =     -31.59909099 Ry
     Harris-Foulkes estimate   =     -31.59852557 Ry
     estimated scf accuracy    <       0.00189473 Ry

     iteration # 45     ecut=    30.00 Ry     beta=0.70
     Davidson diagonalization with overlap
     ethr =  2.37E-05,  avg # of iterations =  1.0

     total cpu time spent up to now is        3.4 secs

     total energy              =     -31.59646691 Ry
     Harris-Foulkes estimate   =     -31.60009964 Ry
     estimated scf accuracy    <       0.03420949 Ry

     iteration # 46     ecut=    30.00 Ry     beta=0.70
     Davidson diagonalization with overlap
     ethr =  2.37E-05,  avg # of iterations =  1.0

     total cpu time spent up to now is        3.5 secs

     total energy              =     -31.59954990 Ry
     Harris-Foulkes estimate   =     -31.59891413 Ry
     estimated scf accuracy    <       0.02175491 Ry

     iteration # 47     ecut=    30.00 Ry     beta=0.70
     Davidson diagonalization with overlap
     ethr =  2.37E-05,  avg # of iterations =  1.0

     total cpu time spent up to now is        3.5 secs

     total energy              =     -31.59951728 Ry
     Harris-Foulkes estimate   =     -31.59980520 Ry
     estimated scf accuracy    <       0.07318738 Ry

     iteration # 48     ecut=    30.00 Ry     beta=0.70
     Davidson diagonalization with overlap
     ethr =  2.37E-05,  avg # of iterations =  1.0

     total cpu time spent up to now is        3.5 secs

     total energy              =     -31.59923423 Ry
     Harris-Foulkes estimate   =     -31.59953401 Ry
     estimated scf accuracy    <       0.05716211 Ry

     iteration # 49     ecut=    30.00 Ry     beta=0.70
     Davidson diagonalization with overlap
     ethr =  2.37E-05,  avg # of iterations =  1.0

     total cpu time spent up to now is        3.6 secs

     total energy              =     -31.59761889 Ry
     Harris-Foulkes estimate   =     -31.59925652 Ry
     estimated scf accuracy    <       0.04122228 Ry

     iteration # 50     ecut=    30.00 Ry     beta=0.70
     Davidson diagonalization with overlap
     ethr =  2.37E-05,  avg # of iterations =  1.0

     total cpu time spent up to now is        3.6 secs

     total energy              =     -31.59848787 Ry
     Harris-Foulkes estimate   =     -31.59848460 Ry
     estimated scf accuracy    <       0.00001916 Ry

     iteration # 51     ecut=    30.00 Ry     beta=0.70
     Davidson diagonalization with overlap
     ethr =  2.39E-07,  avg # of iterations =  1.0

     total cpu time spent up to now is        3.6 secs

     total energy              =     -31.59848663 Ry
     Harris-Foulkes estimate   =     -31.59848853 Ry
     estimated scf accuracy    <       0.00004271 Ry

     iteration # 52     ecut=    30.00 Ry     beta=0.70
     Davidson diagonalization with overlap
     ethr =  2.39E-07,  avg # of iterations =  1.0

     total cpu time spent up to now is        3.7 secs

     total energy              =     -31.59848807 Ry
     Harris-Foulkes estimate   =     -31.59848798 Ry
     estimated scf accuracy    <       0.00000145 Ry

     iteration # 53     ecut=    30.00 Ry     beta=0.70
     Davidson diagonalization with overlap
     ethr =  1.81E-08,  avg # of iterations =  1.0

     total cpu time spent up to now is        3.7 secs

     total energy              =     -31.59848797 Ry
     Harris-Foulkes estimate   =     -31.59848824 Ry
     estimated scf accuracy    <       0.00000111 Ry

     iteration # 54     ecut=    30.00 Ry     beta=0.70
     Davidson diagonalization with overlap
     ethr =  1.39E-08,  avg # of iterations =  1.0

     total cpu time spent up to now is        3.7 secs

     total energy              =     -31.59848800 Ry
     Harris-Foulkes estimate   =     -31.59848863 Ry
     estimated scf accuracy    <       0.00001891 Ry

     iteration # 55     ecut=    30.00 Ry     beta=0.70
     Davidson diagonalization with overlap
     ethr =  1.39E-08,  avg # of iterations =  1.0

     total cpu time spent up to now is        3.8 secs

     total energy              =     -31.59848799 Ry
     Harris-Foulkes estimate   =     -31.59848814 Ry
     estimated scf accuracy    <       0.00000345 Ry

     iteration # 56     ecut=    30.00 Ry     beta=0.70
     Davidson diagonalization with overlap
     ethr =  1.39E-08,  avg # of iterations =  1.0

     total cpu time spent up to now is        3.8 secs

     total energy              =     -31.59848794 Ry
     Harris-Foulkes estimate   =     -31.59848800 Ry
     estimated scf accuracy    <       0.00000225 Ry

     iteration # 57     ecut=    30.00 Ry     beta=0.70
     Davidson diagonalization with overlap
     ethr =  1.39E-08,  avg # of iterations =  1.0

     total cpu time spent up to now is        3.8 secs

     total energy              =     -31.59848791 Ry
     Harris-Foulkes estimate   =     -31.59848795 Ry
     estimated scf accuracy    <       0.00000067 Ry

     iteration # 58     ecut=    30.00 Ry     beta=0.70
     Davidson diagonalization with overlap
     ethr =  8.37E-09,  avg # of iterations =  1.0

     total cpu time spent up to now is        3.9 secs

     total energy              =     -31.59848792 Ry
     Harris-Foulkes estimate   =     -31.59848792 Ry
     estimated scf accuracy    <       0.00000002 Ry

     iteration # 59     ecut=    30.00 Ry     beta=0.70
     Davidson diagonalization with overlap
     ethr =  2.82E-10,  avg # of iterations =  1.0

     total cpu time spent up to now is        3.9 secs

     End of self-consistent calculation

          k = 0.0000 0.0000 0.0000 ( 22119 PWs)   bands (ev):

   -24.1296  -7.7251  -7.5011  -7.5009  -7.4586  -5.6363  -0.2284   0.5728

     the Fermi energy is    -7.3697 ev

!    total energy              =     -31.59848792 Ry
     Harris-Foulkes estimate   =     -31.59848792 Ry
     estimated scf accuracy    <          2.1E-10 Ry

     convergence has been achieved in  59 iterations

     Forces acting on atoms (Ry/au):

     atom    1 type  1   force =     0.00145934   -0.01226525    0.07883604
     atom    2 type  1   force =    -0.00599736    0.01152409   -0.07825758
     atom    3 type  2   force =     0.00453802    0.00074116   -0.00057846

     Total force =     0.112615     Total SCF correction =     0.000003

     Entering Dynamics:    iteration =     3
                           time      =   0.0145 pico-seconds


     Andersen thermostat:    3 collisions

ATOMIC_POSITIONS (bohr)
H       -1.304670479   8.674990035  17.358661174
H       18.939584538   8.224248327  -0.241554563
O       12.446467011   5.975946227  21.119048011


     kinetic energy (Ekin) =     0.02828041 Ry
     temperature           =  1488.37265742 K 
     Ekin + Etot (const)   =   -31.57020751 Ry
     Message from routine dynamics:
     Total linear momentum <> 0

     Linear momentum :    0.4373726621   -0.1462468577    0.1871155517

     Writing output data file pwscf.save

     second order wave-functions extrapolation
     Check: negative starting charge=   -0.349718
     second order charge density extrapolation
     Check: negative starting charge=   -0.353925

     negative rho (up, down):  6.988E-02 0.000E+00

     total cpu time spent up to now is        4.2 secs

     per-process dynamical memory:    20.4 Mb

     Self-consistent Calculation

     iteration #  1     ecut=    30.00 Ry     beta=0.70
     Davidson diagonalization with overlap
     c_bands:  1 eigenvalues not converged
     ethr =  1.00E-06,  avg # of iterations = 20.0

     negative rho (up, down):  1.751E-02 0.000E+00

     total cpu time spent up to now is        4.3 secs

     total energy              =     -31.76735186 Ry
     Harris-Foulkes estimate   =     -31.74158974 Ry
     estimated scf accuracy    <       0.02432800 Ry

     iteration #  2     ecut=    30.00 Ry     beta=0.70
     Davidson diagonalization with overlap
     ethr =  3.04E-04,  avg # of iterations =  3.0

     negative rho (up, down):  1.061E-02 0.000E+00

     total cpu time spent up to now is        4.4 secs

     total energy              =     -31.79098237 Ry
     Harris-Foulkes estimate   =     -31.79590824 Ry
     estimated scf accuracy    <       0.02388896 Ry

     iteration #  3     ecut=    30.00 Ry     beta=0.70
     Davidson diagonalization with overlap
     ethr =  2.99E-04,  avg # of iterations =  2.0

     negative rho (up, down):  6.321E-03 0.000E+00

     total cpu time spent up to now is        4.4 secs

     total energy              =     -31.79574714 Ry
     Harris-Foulkes estimate   =     -31.79314781 Ry
     estimated scf accuracy    <       0.00424614 Ry

     iteration #  4     ecut=    30.00 Ry     beta=0.70
     Davidson diagonalization with overlap
     ethr =  5.31E-05,  avg # of iterations = 10.0

     negative rho (up, down):  4.398E-03 0.000E+00

     total cpu time spent up to now is        4.5 secs

     total energy              =     -31.79454971 Ry
     Harris-Foulkes estimate   =     -31.79563390 Ry
     estimated scf accuracy    <       0.00824178 Ry

     iteration #  5     ecut=    30.00 Ry     beta=0.70
     Davidson diagonalization with overlap
     ethr =  5.31E-05,  avg # of iterations =  3.0

     negative rho (up, down):  1.383E-03 0.000E+00

     total cpu time spent up to now is        4.5 secs

     total energy              =     -31.78541208 Ry
     Harris-Foulkes estimate   =     -31.79518873 Ry
     estimated scf accuracy    <       0.05250995 Ry

     iteration #  6     ecut=    30.00 Ry     beta=0.70
     Davidson diagonalization with overlap
     ethr =  5.31E-05,  avg # of iterations =  4.0

     negative rho (up, down):  2.377E-05 0.000E+00

     total cpu time spent up to now is        4.5 secs

     total energy              =     -31.80118758 Ry
     Harris-Foulkes estimate   =     -31.80152759 Ry
     estimated scf accuracy    <       0.00319664 Ry

     iteration #  7     ecut=    30.00 Ry     beta=0.70
     Davidson diagonalization with overlap
     ethr =  4.00E-05,  avg # of iterations =  3.0

     total cpu time spent up to now is        4.6 secs

     total energy              =     -31.80071072 Ry
     Harris-Foulkes estimate   =     -31.80115216 Ry
     estimated scf accuracy    <       0.00387698 Ry

     iteration #  8     ecut=    30.00 Ry     beta=0.70
     Davidson diagonalization with overlap
     ethr =  4.00E-05,  avg # of iterations =  1.0

     negative rho (up, down):  1.072E-07 0.000E+00

     total cpu time spent up to now is        4.6 secs

     total energy              =     -31.80041509 Ry
     Harris-Foulkes estimate   =     -31.80064373 Ry
     estimated scf accuracy    <       0.00626097 Ry

     iteration #  9     ecut=    30.00 Ry     beta=0.70
     Davidson diagonalization with overlap
     ethr =  4.00E-05,  avg # of iterations =  1.0

     negative rho (up, down):  6.075E-07 0.000E+00

     total cpu time spent up to now is        4.6 secs

     total energy              =     -31.80106693 Ry
     Harris-Foulkes estimate   =     -31.80039825 Ry
     estimated scf accuracy    <       0.00804838 Ry

     iteration # 10     ecut=    30.00 Ry     beta=0.70
     Davidson diagonalization with overlap
     ethr =  4.00E-05,  avg # of iterations =  1.0

     negative rho (up, down):  8.879E-08 0.000E+00

     total cpu time spent up to now is        4.7 secs

     total energy              =     -31.80255171 Ry
     Harris-Foulkes estimate   =     -31.80096056 Ry
     estimated scf accuracy    <       0.00448270 Ry

     iteration # 11     ecut=    30.00 Ry     beta=0.70
     Davidson diagonalization with overlap
     ethr =  4.00E-05,  avg # of iterations =  1.0

     negative rho (up, down):  1.034E-08 0.000E+00

     total cpu time spent up to now is        4.7 secs

     total energy              =     -31.80294608 Ry
     Harris-Foulkes estimate   =     -31.80224141 Ry
     estimated scf accuracy    <       0.00373507 Ry

     iteration # 12     ecut=    30.00 Ry     beta=0.70
     Davidson diagonalization with overlap
     ethr =  4.00E-05,  avg # of iterations =  1.0

     total cpu time spent up to now is        4.7 secs

     total energy              =     -31.80292724 Ry
     Harris-Foulkes estimate   =     -31.80295974 Ry
     estimated scf accuracy    <       0.00491542 Ry

     iteration # 13     ecut=    30.00 Ry     beta=0.70
     Davidson diagonalization with overlap
     ethr =  4.00E-05,  avg # of iterations =  1.0

     total cpu time spent up to now is        4.8 secs

     total energy              =     -31.80275679 Ry
     Harris-Foulkes estimate   =     -31.80292741 Ry
     estimated scf accuracy    <       0.00486668 Ry

     iteration # 14     ecut=    30.00 Ry     beta=0.70
     Davidson diagonalization with overlap
     ethr =  4.00E-05,  avg # of iterations =  1.0

     total cpu time spent up to now is        4.8 secs

     total energy              =     -31.80180835 Ry
     Harris-Foulkes estimate   =     -31.80275765 Ry
     estimated scf accuracy    <       0.00457538 Ry

     iteration # 15     ecut=    30.00 Ry     beta=0.70
     Davidson diagonalization with overlap
     ethr =  4.00E-05,  avg # of iterations =  1.0

     total cpu time spent up to now is        4.8 secs

     total energy              =     -31.80095339 Ry
     Harris-Foulkes estimate   =     -31.80182811 Ry
     estimated scf accuracy    <       0.00329010 Ry

     iteration # 16     ecut=    30.00 Ry     beta=0.70
     Davidson diagonalization with overlap
     ethr =  4.00E-05,  avg # of iterations =  1.0

     total cpu time spent up to now is        4.9 secs

     total energy              =     -31.79965614 Ry
     Harris-Foulkes estimate   =     -31.80081932 Ry
     estimated scf accuracy    <       0.00519632 Ry

     iteration # 17     ecut=    30.00 Ry     beta=0.70
     Davidson diagonalization with overlap
     ethr =  4.00E-05,  avg # of iterations =  1.0

     total cpu time spent up to now is        4.9 secs

     total energy              =     -31.80548430 Ry
     Harris-Foulkes estimate   =     -31.79899991 Ry
     estimated scf accuracy    <       0.01899555 Ry

     iteration # 18     ecut=    30.00 Ry     beta=0.70
     Davidson diagonalization with overlap
     ethr =  4.00E-05,  avg # of iterations =  1.0

     total cpu time spent up to now is        4.9 secs

     total energy              =     -31.80993274 Ry
     Harris-Foulkes estimate   =     -31.80236141 Ry
     estimated scf accuracy    <       0.00386225 Ry

     iteration # 19     ecut=    30.00 Ry     beta=0.70
     Davidson diagonalization with overlap
     ethr =  4.00E-05,  avg # of iterations =  3.0

     total cpu time spent up to now is        5.0 secs

     total energy              =     -31.80671896 Ry
     Harris-Foulkes estimate   =     -31.81091344 Ry
     estimated scf accuracy    <       0.01828362 Ry

     iteration # 20     ecut=    30.00 Ry     beta=0.70
     Davidson diagonalization with overlap
     ethr =  4.00E-05,  avg # of iterations =  1.0

     total cpu time spent up to now is        5.0 secs

     total energy              =     -31.80617168 Ry
     Harris-Foulkes estimate   =     -31.80684689 Ry
     estimated scf accuracy    <       0.01160517 Ry

     iteration # 21     ecut=    30.00 Ry     beta=0.70
     Davidson diagonalization with overlap
     ethr =  4.00E-05,  avg # of iterations =  1.0

     total cpu time spent up to now is        5.0 secs

     total energy              =     -31.80420926 Ry
     Harris-Foulkes estimate   =     -31.80618093 Ry
     estimated scf accuracy    <       0.01045654 Ry

     iteration # 22     ecut=    30.00 Ry     beta=0.70
     Davidson diagonalization with overlap
     ethr =  4.00E-05,  avg # of iterations =  1.0

     total cpu time spent up to now is        5.1 secs

     total energy              =     -31.80503589 Ry
     Harris-Foulkes estimate   =     -31.80426491 Ry
     estimated scf accuracy    <       0.00720779 Ry

     iteration # 23     ecut=    30.00 Ry     beta=0.70
     Davidson diagonalization with overlap
     ethr =  4.00E-05,  avg # of iterations =  1.0

     total cpu time spent up to now is        5.1 secs

     total energy              =     -31.80561856 Ry
     Harris-Foulkes estimate   =     -31.80504564 Ry
     estimated scf accuracy    <       0.00843421 Ry

     iteration # 24     ecut=    30.00 Ry     beta=0.70
     Davidson diagonalization with overlap
     ethr =  4.00E-05,  avg # of iterations =  1.0

     total cpu time spent up to now is        5.1 secs

     total energy              =     -31.80656947 Ry
     Harris-Foulkes estimate   =     -31.80562496 Ry
     estimated scf accuracy    <       0.00945990 Ry

     iteration # 25     ecut=    30.00 Ry     beta=0.70
     Davidson diagonalization with overlap
     ethr =  4.00E-05,  avg # of iterations =  1.0

     total cpu time spent up to now is        5.2 secs

     total energy              =     -31.80969339 Ry
     Harris-Foulkes estimate   =     -31.80658031 Ry
     estimated scf accuracy    <       0.01104761 Ry

     iteration # 26     ecut=    30.00 Ry     beta=0.70
     Davidson diagonalization with overlap
     ethr =  4.00E-05,  avg # of iterations =  1.0

     negative rho (up, down):  3.713E-08 0.000E+00

     total cpu time spent up to now is        5.2 secs

     total energy              =     -31.79738802 Ry
     Harris-Foulkes estimate   =     -31.80978325 Ry
     estimated scf accuracy    <       0.01635407 Ry

     iteration # 27     ecut=    30.00 Ry     beta=0.70
     Davidson diagonalization with overlap
     ethr =  4.00E-05,  avg # of iterations =  4.0

     total cpu time spent up to now is        5.3 secs

     total energy              =     -31.78581977 Ry
     Harris-Foulkes estimate   =     -31.79834257 Ry
     estimated scf accuracy    <       0.06387032 Ry

     iteration # 28     ecut=    30.00 Ry     beta=0.70
     Davidson diagonalization with overlap
     ethr =  4.00E-05,  avg # of iterations =  2.0

     total cpu time spent up to now is        5.3 secs

     total energy              =     -31.80049462 Ry
     Harris-Foulkes estimate   =     -31.80137020 Ry
     estimated scf accuracy    <       0.00332887 Ry

     iteration # 29     ecut=    30.00 Ry     beta=0.70
     Davidson diagonalization with overlap
     ethr =  4.00E-05,  avg # of iterations =  1.0

     total cpu time spent up to now is        5.3 secs

     total energy              =     -31.79891031 Ry
     Harris-Foulkes estimate   =     -31.80015635 Ry
     estimated scf accuracy    <       0.01011197 Ry

     iteration # 30     ecut=    30.00 Ry     beta=0.70
     Davidson diagonalization with overlap
     ethr =  4.00E-05,  avg # of iterations =  1.0

     negative rho (up, down):  2.381E-08 0.000E+00

     total cpu time spent up to now is        5.4 secs

     total energy              =     -31.79112265 Ry
     Harris-Foulkes estimate   =     -31.79853862 Ry
     estimated scf accuracy    <       0.01973650 Ry

     iteration # 31     ecut=    30.00 Ry     beta=0.70
     Davidson diagonalization with overlap
     ethr =  4.00E-05,  avg # of iterations =  2.0

     total cpu time spent up to now is        5.4 secs

     total energy              =     -31.74272450 Ry
     Harris-Foulkes estimate   =     -31.83224603 Ry
     estimated scf accuracy    <       2.29044464 Ry

     iteration # 32     ecut=    30.00 Ry     beta=0.70
     Davidson diagonalization with overlap
     ethr =  4.00E-05,  avg # of iterations =  2.0

     negative rho (up, down):  4.905E-08 0.000E+00

     total cpu time spent up to now is        5.5 secs

     total energy              =     -31.78907306 Ry
     Harris-Foulkes estimate   =     -31.79845684 Ry
     estimated scf accuracy    <       0.01955502 Ry

     iteration # 33     ecut=    30.00 Ry     beta=0.70
     Davidson diagonalization with overlap
     ethr =  4.00E-05,  avg # of iterations =  2.0

     total cpu time spent up to now is        5.5 secs

     total energy              =     -31.80863044 Ry
     Harris-Foulkes estimate   =     -31.86798272 Ry
     estimated scf accuracy    <       3.34992028 Ry

     iteration # 34     ecut=    30.00 Ry     beta=0.70
     Davidson diagonalization with overlap
     ethr =  4.00E-05,  avg # of iterations =  1.0

     total cpu time spent up to now is        5.5 secs

     total energy              =     -31.80541155 Ry
     Harris-Foulkes estimate   =     -31.81652658 Ry
     estimated scf accuracy    <       1.38131120 Ry

     iteration # 35     ecut=    30.00 Ry     beta=0.70
     Davidson diagonalization with overlap
     ethr =  4.00E-05,  avg # of iterations =  1.0

     total cpu time spent up to now is        5.6 secs

     total energy              =     -31.77256130 Ry
     Harris-Foulkes estimate   =     -31.80696860 Ry
     estimated scf accuracy    <       0.69778894 Ry

     iteration # 36     ecut=    30.00 Ry     beta=0.70
     Davidson diagonalization with overlap
     ethr =  4.00E-05,  avg # of iterations =  1.0

     total cpu time spent up to now is        5.6 secs

     total energy              =     -31.79888939 Ry
     Harris-Foulkes estimate   =     -31.79888055 Ry
     estimated scf accuracy    <       0.01927936 Ry

     iteration # 37     ecut=    30.00 Ry     beta=0.70
     Davidson diagonalization with overlap
     ethr =  4.00E-05,  avg # of iterations =  1.0

     total cpu time spent up to now is        5.6 secs

     total energy              =     -31.79836771 Ry
     Harris-Foulkes estimate   =     -31.79889389 Ry
     estimated scf accuracy    <       0.01927607 Ry

     iteration # 38     ecut=    30.00 Ry     beta=0.70
     Davidson diagonalization with overlap
     ethr =  4.00E-05,  avg # of iterations =  1.0

     total cpu time spent up to now is        5.7 secs

     total energy              =     -31.79730870 Ry
     Harris-Foulkes estimate   =     -31.79835938 Ry
     estimated scf accuracy    <       0.01921368 Ry

     iteration # 39     ecut=    30.00 Ry     beta=0.70
     Davidson diagonalization with overlap
     ethr =  4.00E-05,  avg # of iterations =  1.0

     total cpu time spent up to now is        5.7 secs

     total energy              =     -31.79736810 Ry
     Harris-Foulkes estimate   =     -31.79745524 Ry
     estimated scf accuracy    <       0.00673138 Ry

     iteration # 40     ecut=    30.00 Ry     beta=0.70
     Davidson diagonalization with overlap
     ethr =  4.00E-05,  avg # of iterations =  1.0

     total cpu time spent up to now is        5.7 secs

     total energy              =     -31.79729296 Ry
     Harris-Foulkes estimate   =     -31.79737576 Ry
     estimated scf accuracy    <       0.00451340 Ry

     iteration # 41     ecut=    30.00 Ry     beta=0.70
     Davidson diagonalization with overlap
     ethr =  4.00E-05,  avg # of iterations =  1.0

     total cpu time spent up to now is        5.8 secs

     total energy              =     -31.79728017 Ry
     Harris-Foulkes estimate   =     -31.79730447 Ry
     estimated scf accuracy    <       0.00226946 Ry

     iteration # 42     ecut=    30.00 Ry     beta=0.70
     Davidson diagonalization with overlap
     ethr =  2.84E-05,  avg # of iterations =  1.0

     total cpu time spent up to now is        5.8 secs

     total energy              =     -31.79736859 Ry
     Harris-Foulkes estimate   =     -31.79728234 Ry
     estimated scf accuracy    <       0.00151309 Ry

     iteration # 43     ecut=    30.00 Ry     beta=0.70
     Davidson diagonalization with overlap
     ethr =  1.89E-05,  avg # of iterations =  1.0

     total cpu time spent up to now is        5.8 secs

     total energy              =     -31.79818595 Ry
     Harris-Foulkes estimate   =     -31.79740672 Ry
     estimated scf accuracy    <       0.00540075 Ry

     iteration # 44     ecut=    30.00 Ry     beta=0.70
     Davidson diagonalization with overlap
     ethr =  1.89E-05,  avg # of iterations =  1.0

     total cpu time spent up to now is        5.9 secs

     total energy              =     -31.79863038 Ry
     Harris-Foulkes estimate   =     -31.79862149 Ry
     estimated scf accuracy    <       0.01975529 Ry

     iteration # 45     ecut=    30.00 Ry     beta=0.70
     Davidson diagonalization with overlap
     ethr =  1.89E-05,  avg # of iterations =  1.0

     total cpu time spent up to now is        5.9 secs

     total energy              =     -31.79851895 Ry
     Harris-Foulkes estimate   =     -31.79863084 Ry
     estimated scf accuracy    <       0.01977685 Ry

     iteration # 46     ecut=    30.00 Ry     beta=0.70
     Davidson diagonalization with overlap
     ethr =  1.89E-05,  avg # of iterations =  1.0

     total cpu time spent up to now is        5.9 secs

     total energy              =     -31.79885315 Ry
     Harris-Foulkes estimate   =     -31.79851887 Ry
     estimated scf accuracy    <       0.01970610 Ry

     iteration # 47     ecut=    30.00 Ry     beta=0.70
     Davidson diagonalization with overlap
     ethr =  1.89E-05,  avg # of iterations =  1.0

     total cpu time spent up to now is        6.0 secs

     total energy              =     -31.79838169 Ry
     Harris-Foulkes estimate   =     -31.79885168 Ry
     estimated scf accuracy    <       0.01948846 Ry

     iteration # 48     ecut=    30.00 Ry     beta=0.70
     Davidson diagonalization with overlap
     ethr =  1.89E-05,  avg # of iterations =  1.0

     total cpu time spent up to now is        6.0 secs

     total energy              =     -31.79809739 Ry
     Harris-Foulkes estimate   =     -31.79837651 Ry
     estimated scf accuracy    <       0.01930393 Ry

     iteration # 49     ecut=    30.00 Ry     beta=0.70
     Davidson diagonalization with overlap
     ethr =  1.89E-05,  avg # of iterations =  1.0

     total cpu time spent up to now is        6.0 secs

     total energy              =     -31.79747134 Ry
     Harris-Foulkes estimate   =     -31.79810236 Ry
     estimated scf accuracy    <       0.01754002 Ry

     iteration # 50     ecut=    30.00 Ry     beta=0.70
     Davidson diagonalization with overlap
     ethr =  1.89E-05,  avg # of iterations =  1.0

     total cpu time spent up to now is        6.1 secs

     total energy              =     -31.79704869 Ry
     Harris-Foulkes estimate   =     -31.79754353 Ry
     estimated scf accuracy    <       0.00891050 Ry

     iteration # 51     ecut=    30.00 Ry     beta=0.70
     Davidson diagonalization with overlap
     ethr =  1.89E-05,  avg # of iterations =  1.0

     total cpu time spent up to now is        6.1 secs

     total energy              =     -31.79719401 Ry
     Harris-Foulkes estimate   =     -31.79724558 Ry
     estimated scf accuracy    <       0.00011602 Ry

     iteration # 52     ecut=    30.00 Ry     beta=0.70
     Davidson diagonalization with overlap
     ethr =  1.45E-06,  avg # of iterations =  1.0

     total cpu time spent up to now is        6.1 secs

     total energy              =     -31.79674601 Ry
     Harris-Foulkes estimate   =     -31.79753194 Ry
     estimated scf accuracy    <       0.01468251 Ry

     iteration # 53     ecut=    30.00 Ry     beta=0.70
     Davidson diagonalization with overlap
     ethr =  1.45E-06,  avg # of iterations =  1.0

     total cpu time spent up to now is        6.2 secs

     total energy              =     -31.79722597 Ry
     Harris-Foulkes estimate   =     -31.79726563 Ry
     estimated scf accuracy    <       0.00091081 Ry

     iteration # 54     ecut=    30.00 Ry     beta=0.70
     Davidson diagonalization with overlap
     ethr =  1.45E-06,  avg # of iterations =  1.0

     total cpu time spent up to now is        6.2 secs

     total energy              =     -31.79724121 Ry
     Harris-Foulkes estimate   =     -31.79724208 Ry
     estimated scf accuracy    <       0.00002415 Ry

     iteration # 55     ecut=    30.00 Ry     beta=0.70
     Davidson diagonalization with overlap
     ethr =  3.02E-07,  avg # of iterations =  1.0

     total cpu time spent up to now is        6.2 secs

     total energy              =     -31.79724151 Ry
     Harris-Foulkes estimate   =     -31.79724161 Ry
     estimated scf accuracy    <       0.00000080 Ry

     iteration # 56     ecut=    30.00 Ry     beta=0.70
     Davidson diagonalization with overlap
     ethr =  9.95E-09,  avg # of iterations =  1.0

     total cpu time spent up to now is        6.3 secs

     total energy              =     -31.79724158 Ry
     Harris-Foulkes estimate   =     -31.79724155 Ry
     estimated scf accuracy    <       0.00000010 Ry

     iteration # 57     ecut=    30.00 Ry     beta=0.70
     Davidson diagonalization with overlap
     ethr =  1.23E-09,  avg # of iterations =  1.0

     total cpu time spent up to now is        6.3 secs

     total energy              =     -31.79724157 Ry
     Harris-Foulkes estimate   =     -31.79724158 Ry
     estimated scf accuracy    <       0.00000019 Ry

     iteration # 58     ecut=    30.00 Ry     beta=0.70
     Davidson diagonalization with overlap
     ethr =  1.23E-09,  avg # of iterations =  1.0

     total cpu time spent up to now is        6.3 secs

     total energy              =     -31.79724157 Ry
     Harris-Foulkes estimate   =     -31.79724157 Ry
     estimated scf accuracy    <       0.00000010 Ry

     iteration # 59     ecut=    30.00 Ry     beta=0.70
     Davidson diagonalization with overlap
     ethr =  1.19E-09,  avg # of iterations =  1.0

     total cpu time spent up to now is        6.4 secs

     total energy              =     -31.79724155 Ry
     Harris-Foulkes estimate   =     -31.79724157 Ry
     estimated scf accuracy    <       0.00000005 Ry

     iteration # 60     ecut=    30.00 Ry     beta=0.70
     Davidson diagonalization with overlap
     ethr =  5.93E-10,  avg # of iterations =  1.0

     total cpu time spent up to now is        6.4 secs

     End of self-consistent calculation

          k = 0.0000 0.0000 0.0000 ( 22119 PWs)   bands (ev):

   -24.9017  -8.4521  -8.2149  -8.2144  -8.1873  -2.3046  -0.2890   0.6409

     the Fermi energy is    -8.0893 ev

!    total energy              =     -31.79724155 Ry
     Harris-Foulkes estimate   =     -31.79724155 Ry
     estimated scf accuracy    <          6.3E-10 Ry

     convergence has been achieved in  60 iterations

     Forces acting on atoms (Ry/au):

     atom    1 type  1   force =     0.01631075   -0.03108511    0.16442714
     atom    2 type  1   force =    -0.01865649    0.03011432   -0.16370985
     atom    3 type  2   force =     0.00234574    0.00097079   -0.00071729

     Total force =     0.237342     Total SCF correction =     0.000005

     Entering Dynamics:    iteration =     4
                           time      =   0.0194 pico-seconds


     Andersen thermostat:    3 collisions

ATOMIC_POSITIONS (bohr)
H       -0.999021601   8.036764435  18.672257769
H       18.884632812   8.431493244  -2.202950928
O       12.430641753   6.003151882  21.159940372


     kinetic energy (Ekin) =     0.07945965 Ry
     temperature           =  4181.89046825 K 
     Ekin + Etot (const)   =   -31.71778190 Ry
     Message from routine dynamics:
     Total linear momentum <> 0

     Linear momentum :    0.2548188156   -0.4724181886   -0.1897108506

     Writing output data file pwscf.save

     second order wave-functions extrapolation
     Check: negative starting charge=   -0.353925
     second order charge density extrapolation
     Check: negative starting charge=   -0.358236

     negative rho (up, down):  1.341E-01 0.000E+00

     total cpu time spent up to now is        6.7 secs

     per-process dynamical memory:    20.4 Mb

     Self-consistent Calculation

     iteration #  1     ecut=    30.00 Ry     beta=0.70
     Davidson diagonalization with overlap
     c_bands:  2 eigenvalues not converged
     ethr =  1.00E-06,  avg # of iterations = 20.0

     negative rho (up, down):  2.836E-02 0.000E+00

     total cpu time spent up to now is        6.8 secs

     total energy              =     -31.77444242 Ry
     Harris-Foulkes estimate   =     -31.74407701 Ry
     estimated scf accuracy    <       0.04929656 Ry

     iteration #  2     ecut=    30.00 Ry     beta=0.70
     Davidson diagonalization with overlap
     ethr =  6.16E-04,  avg # of iterations =  2.0

     negative rho (up, down):  8.523E-03 0.000E+00

     total cpu time spent up to now is        6.9 secs

     total energy              =     -31.78838760 Ry
     Harris-Foulkes estimate   =     -31.77493454 Ry
     estimated scf accuracy    <       0.01106584 Ry

     iteration #  3     ecut=    30.00 Ry     beta=0.70
     Davidson diagonalization with overlap
     ethr =  1.38E-04,  avg # of iterations =  4.0

     negative rho (up, down):  2.873E-03 0.000E+00

     total cpu time spent up to now is        6.9 secs

     total energy              =     -31.79467594 Ry
     Harris-Foulkes estimate   =     -31.79159267 Ry
     estimated scf accuracy    <       0.01328546 Ry

     iteration #  4     ecut=    30.00 Ry     beta=0.70
     Davidson diagonalization with overlap
     ethr =  1.38E-04,  avg # of iterations =  9.0

     negative rho (up, down):  9.114E-04 0.000E+00

     total cpu time spent up to now is        7.0 secs

     total energy              =     -31.79708522 Ry
     Harris-Foulkes estimate   =     -31.79614825 Ry
     estimated scf accuracy    <       0.00160344 Ry

     iteration #  5     ecut=    30.00 Ry     beta=0.70
     Davidson diagonalization with overlap
     ethr =  2.00E-05,  avg # of iterations =  9.0

     negative rho (up, down):  5.818E-05 0.000E+00

     total cpu time spent up to now is        7.0 secs

     total energy              =     -31.79726925 Ry
     Harris-Foulkes estimate   =     -31.79723858 Ry
     estimated scf accuracy    <       0.00002514 Ry

     iteration #  6     ecut=    30.00 Ry     beta=0.70
     Davidson diagonalization with overlap
     ethr =  3.14E-07,  avg # of iterations = 10.0

     negative rho (up, down):  1.997E-06 0.000E+00

     total cpu time spent up to now is        7.0 secs

     total energy              =     -31.79727326 Ry
     Harris-Foulkes estimate   =     -31.79727378 Ry
     estimated scf accuracy    <       0.00000332 Ry

     iteration #  7     ecut=    30.00 Ry     beta=0.70
     Davidson diagonalization with overlap
     ethr =  4.15E-08,  avg # of iterations =  1.0

     total cpu time spent up to now is        7.1 secs

     total energy              =     -31.79727190 Ry
     Harris-Foulkes estimate   =     -31.79727433 Ry
     estimated scf accuracy    <       0.00000476 Ry

     iteration #  8     ecut=    30.00 Ry     beta=0.70
     Davidson diagonalization with overlap
     ethr =  4.15E-08,  avg # of iterations =  1.0

     total cpu time spent up to now is        7.1 secs

     total energy              =     -31.79727150 Ry
     Harris-Foulkes estimate   =     -31.79727226 Ry
     estimated scf accuracy    <       0.00000002 Ry

     iteration #  9     ecut=    30.00 Ry     beta=0.70
     Davidson diagonalization with overlap
     ethr =  2.11E-10,  avg # of iterations =  2.0

     total cpu time spent up to now is        7.1 secs

     End of self-consistent calculation

          k = 0.0000 0.0000 0.0000 ( 22119 PWs)   bands (ev):

   -25.0987 -11.4637  -8.4023  -8.4019  -8.4015  -0.3372   0.6861   0.9176

     the Fermi energy is    -8.2788 ev

!    total energy              =     -31.79727141 Ry
     Harris-Foulkes estimate   =     -31.79727151 Ry
     estimated scf accuracy    <          3.3E-09 Ry

     convergence has been achieved in   9 iterations

     Forces acting on atoms (Ry/au):

     atom    1 type  1   force =     0.09443765   -0.31895609    0.70778527
     atom    2 type  1   force =    -0.09367368    0.31956514   -0.70824284
     atom    3 type  2   force =    -0.00076398   -0.00060904    0.00045757

     Total force =     1.106398     Total SCF correction =     0.000202

     Entering Dynamics:    iteration =     5
                           time      =   0.0242 pico-seconds


     Andersen thermostat:    3 collisions

ATOMIC_POSITIONS (bohr)
H        0.098573135   4.516879103  26.375069347
H       18.323078212  11.910763156  -9.882573462
O       12.396804219   6.005715731  21.158476564


     kinetic energy (Ekin) =     1.66798624 Ry
     temperature           = 87784.62806942 K 
     Ekin + Etot (const)   =   -30.12928517 Ry
     Message from routine dynamics:
     Total linear momentum <> 0

     Linear momentum :   -0.2027056583   -0.2484062762   -0.3652022770

     Writing output data file pwscf.save

     second order wave-functions extrapolation
     Check: negative starting charge=   -0.358236
     second order charge density extrapolation
     Check: negative starting charge=   -0.350784

     negative rho (up, down):  1.736E+00 0.000E+00

     total cpu time spent up to now is        7.5 secs

     per-process dynamical memory:    20.4 Mb

     Self-consistent Calculation

     iteration #  1     ecut=    30.00 Ry     beta=0.70
     Davidson diagonalization with overlap
     ethr =  1.00E-06,  avg # of iterations = 11.0

     negative rho (up, down):  2.386E-01 0.000E+00

     total cpu time spent up to now is        7.6 secs

     total energy              =     136.90023243 Ry
     Harris-Foulkes estimate   =    -267.84557533 Ry
     estimated scf accuracy    <      58.80951500 Ry

     iteration #  2     ecut=    30.00 Ry     beta=0.70
     Davidson diagonalization with overlap
     ethr =  1.00E-02,  avg # of iterations = 10.0

     negative rho (up, down):  5.300E-02 0.000E+00

     total cpu time spent up to now is        7.7 secs

     total energy              =     136.55181074 Ry
     Harris-Foulkes estimate   =    -394.37266966 Ry
     estimated scf accuracy    <      28.52315479 Ry

     iteration #  3     ecut=    30.00 Ry     beta=0.70
     Davidson diagonalization with overlap
     ethr =  1.00E-02,  avg # of iterations = 10.0

     negative rho (up, down):  7.314E-02 0.000E+00

     total cpu time spent up to now is        7.8 secs

     total energy              =     -51.95977987 Ry
     Harris-Foulkes estimate   =     -81.43086449 Ry
     estimated scf accuracy    <      67.60227639 Ry

     iteration #  4     ecut=    30.00 Ry     beta=0.70
     Davidson diagonalization with overlap
     ethr =  1.00E-02,  avg # of iterations =  3.0

     negative rho (up, down):  1.474E-01 0.000E+00

     total cpu time spent up to now is        7.8 secs

     total energy              =     -32.24953593 Ry
     Harris-Foulkes estimate   =     -52.47346666 Ry
     estimated scf accuracy    <      30.63288661 Ry

     iteration #  5     ecut=    30.00 Ry     beta=0.70
     Davidson diagonalization with overlap
     ethr =  1.00E-02,  avg # of iterations = 15.0

     negative rho (up, down):  1.694E-01 0.000E+00

     total cpu time spent up to now is        7.9 secs

     total energy              =       9.24833794 Ry
     Harris-Foulkes estimate   =    -109.87005157 Ry
     estimated scf accuracy    <      31.32991446 Ry

     iteration #  6     ecut=    30.00 Ry     beta=0.70
     Davidson diagonalization with overlap
     ethr =  1.00E-02,  avg # of iterations = 12.0

     negative rho (up, down):  1.814E-01 0.000E+00

     total cpu time spent up to now is        7.9 secs

     total energy              =      47.73663266 Ry
     Harris-Foulkes estimate   =    -158.99526076 Ry
     estimated scf accuracy    <      48.64785515 Ry

     iteration #  7     ecut=    30.00 Ry     beta=0.70
     Davidson diagonalization with overlap
     ethr =  1.00E-02,  avg # of iterations =  8.0

     negative rho (up, down):  1.088E-01 0.000E+00

     total cpu time spent up to now is        8.0 secs

     total energy              =     -13.72368546 Ry
     Harris-Foulkes estimate   =     -40.40477259 Ry
     estimated scf accuracy    <      18.19144228 Ry

     iteration #  8     ecut=    30.00 Ry     beta=0.70
     Davidson diagonalization with overlap
     ethr =  1.00E-02,  avg # of iterations =  5.0

     negative rho (up, down):  7.561E-02 0.000E+00

     total cpu time spent up to now is        8.0 secs

     total energy              =     -48.66311094 Ry
     Harris-Foulkes estimate   =     -82.00933311 Ry
     estimated scf accuracy    <      18.55169093 Ry

     iteration #  9     ecut=    30.00 Ry     beta=0.70
     Davidson diagonalization with overlap
     ethr =  1.00E-02,  avg # of iterations =  6.0

     negative rho (up, down):  7.546E-02 0.000E+00

     total cpu time spent up to now is        8.1 secs

     total energy              =       2.81823007 Ry
     Harris-Foulkes estimate   =    -409.94478732 Ry
     estimated scf accuracy    <       5.96788327 Ry

     iteration # 10     ecut=    30.00 Ry     beta=0.70
     Davidson diagonalization with overlap
     ethr =  1.00E-02,  avg # of iterations =  4.0

     negative rho (up, down):  3.423E-01 0.000E+00

     total cpu time spent up to now is        8.1 secs

     total energy              =    -320.42782305 Ry
     Harris-Foulkes estimate   =    -154.86013033 Ry
     estimated scf accuracy    <       7.89111176 Ry

     iteration # 11     ecut=    30.00 Ry     beta=0.70
     Davidson diagonalization with overlap
     ethr =  1.00E-02,  avg # of iterations = 11.0

     negative rho (up, down):  1.246E-03 0.000E+00

     total cpu time spent up to now is        8.2 secs

     total energy              =      96.17849594 Ry
     Harris-Foulkes estimate   =   -2140.29045730 Ry
     estimated scf accuracy    <      55.06324661 Ry

     iteration # 12     ecut=    30.00 Ry     beta=0.70
     Davidson diagonalization with overlap
     ethr =  1.00E-02,  avg # of iterations = 11.0

     negative rho (up, down):  2.057E-04 0.000E+00

     total cpu time spent up to now is        8.2 secs

     total energy              =     -34.24654179 Ry
     Harris-Foulkes estimate   =     -43.24421171 Ry
     estimated scf accuracy    <      19.14420869 Ry

     iteration # 13     ecut=    30.00 Ry     beta=0.70
     Davidson diagonalization with overlap
     ethr =  1.00E-02,  avg # of iterations =  3.0

     negative rho (up, down):  4.657E-03 0.000E+00

     total cpu time spent up to now is        8.3 secs

     total energy              =     -31.81525113 Ry
     Harris-Foulkes estimate   =     -34.55263558 Ry
     estimated scf accuracy    <       7.24386861 Ry

     iteration # 14     ecut=    30.00 Ry     beta=0.70
     Davidson diagonalization with overlap
     ethr =  1.00E-02,  avg # of iterations =  3.0

     negative rho (up, down):  7.186E-03 0.000E+00

     total cpu time spent up to now is        8.3 secs

     total energy              =     -34.35146505 Ry
     Harris-Foulkes estimate   =     -34.17698090 Ry
     estimated scf accuracy    <       8.16495752 Ry

     iteration # 15     ecut=    30.00 Ry     beta=0.70
     Davidson diagonalization with overlap
     ethr =  1.00E-02,  avg # of iterations =  4.0

     negative rho (up, down):  2.510E-02 0.000E+00

     total cpu time spent up to now is        8.4 secs

     total energy              =      -5.24485609 Ry
     Harris-Foulkes estimate   =    -533.31145303 Ry
     estimated scf accuracy    <      17.40238133 Ry

     iteration # 16     ecut=    30.00 Ry     beta=0.70
     Davidson diagonalization with overlap
     ethr =  1.00E-02,  avg # of iterations =  5.0

     negative rho (up, down):  4.563E-02 0.000E+00

     total cpu time spent up to now is        8.4 secs

     total energy              =      29.88097585 Ry
     Harris-Foulkes estimate   =    -260.43731984 Ry
     estimated scf accuracy    <      18.36870634 Ry

     iteration # 17     ecut=    30.00 Ry     beta=0.70
     Davidson diagonalization with overlap
     ethr =  1.00E-02,  avg # of iterations =  8.0

     negative rho (up, down):  3.083E-03 0.000E+00

     total cpu time spent up to now is        8.4 secs

     total energy              =      -5.88918509 Ry
     Harris-Foulkes estimate   =     -42.62278671 Ry
     estimated scf accuracy    <      17.99810000 Ry

     iteration # 18     ecut=    30.00 Ry     beta=0.70
     Davidson diagonalization with overlap
     ethr =  1.00E-02,  avg # of iterations =  7.0

     negative rho (up, down):  2.719E-02 0.000E+00

     total cpu time spent up to now is        8.5 secs

     total energy              =    -311.65305674 Ry
     Harris-Foulkes estimate   =     -42.12071756 Ry
     estimated scf accuracy    <      17.12807500 Ry

     iteration # 19     ecut=    30.00 Ry     beta=0.70
     Davidson diagonalization with overlap
     ethr =  1.00E-02,  avg # of iterations =  7.0

     negative rho (up, down):  8.860E-02 0.000E+00

     total cpu time spent up to now is        8.5 secs

     total energy              =       9.21363994 Ry
     Harris-Foulkes estimate   =    -723.24767910 Ry
     estimated scf accuracy    <      29.01663273 Ry

     iteration # 20     ecut=    30.00 Ry     beta=0.70
     Davidson diagonalization with overlap
     ethr =  1.00E-02,  avg # of iterations =  7.0

     negative rho (up, down):  1.245E-01 0.000E+00

     total cpu time spent up to now is        8.6 secs

     total energy              =   -2037.34074406 Ry
     Harris-Foulkes estimate   =    -100.10434570 Ry
     estimated scf accuracy    <      28.08167450 Ry

     iteration # 21     ecut=    30.00 Ry     beta=0.70
     Davidson diagonalization with overlap
     ethr =  1.00E-02,  avg # of iterations =  5.0

     negative rho (up, down):  1.238E-01 0.000E+00

     total cpu time spent up to now is        8.6 secs

     total energy              =      39.53094248 Ry
     Harris-Foulkes estimate   =   -5402.39200589 Ry
     estimated scf accuracy    <      36.30598303 Ry

[...]
     Harris-Foulkes estimate   =    -171.10988699 Ry
     estimated scf accuracy    <      19.93907485 Ry

     iteration # 59     ecut=    30.00 Ry     beta=0.70
     Davidson diagonalization with overlap
     ethr =  1.00E-02,  avg # of iterations =  6.0

     negative rho (up, down):  8.874E-02 0.000E+00

     total cpu time spent up to now is       10.6 secs

     total energy              =     -15.61195639 Ry
     Harris-Foulkes estimate   =     -47.13490418 Ry
     estimated scf accuracy    <       9.27387934 Ry

     iteration # 60     ecut=    30.00 Ry     beta=0.70
     Davidson diagonalization with overlap
     ethr =  1.00E-02,  avg # of iterations = 14.0

     negative rho (up, down):  5.268E-02 0.000E+00

     total cpu time spent up to now is       10.7 secs

     total energy              =      -4.80516967 Ry
     Harris-Foulkes estimate   =     -41.29346395 Ry
     estimated scf accuracy    <       5.73626582 Ry

     iteration # 61     ecut=    30.00 Ry     beta=0.70
     Davidson diagonalization with overlap
     ethr =  1.00E-02,  avg # of iterations =  9.0

     negative rho (up, down):  8.943E-02 0.000E+00

     total cpu time spent up to now is       10.7 secs

     total energy              =      42.04133500 Ry
     Harris-Foulkes estimate   =    -172.41026740 Ry
     estimated scf accuracy    <      51.30912559 Ry

     iteration # 62     ecut=    30.00 Ry     beta=0.70
     Davidson diagonalization with overlap
     ethr =  1.00E-02,  avg # of iterations =  9.0

     negative rho (up, down):  4.404E-02 0.000E+00

     total cpu time spent up to now is       10.8 secs

     total energy              =     -13.86462645 Ry
     Harris-Foulkes estimate   =    -168.74301865 Ry
     estimated scf accuracy    <      38.30172555 Ry

     iteration # 63     ecut=    30.00 Ry     beta=0.70
     Davidson diagonalization with overlap
     ethr =  1.00E-02,  avg # of iterations =  5.0

     negative rho (up, down):  5.332E-02 0.000E+00

     total cpu time spent up to now is       10.8 secs

     total energy              =    -180.86364207 Ry
     Harris-Foulkes estimate   =    -592.12192331 Ry
     estimated scf accuracy    <      39.08474428 Ry

     iteration # 64     ecut=    30.00 Ry     beta=0.70
     Davidson diagonalization with overlap
     ethr =  1.00E-02,  avg # of iterations =  4.0

     negative rho (up, down):  4.487E-02 0.000E+00

     total cpu time spent up to now is       10.8 secs

     total energy              =      60.81865239 Ry
     Harris-Foulkes estimate   =    -516.59078775 Ry
     estimated scf accuracy    <      35.31797759 Ry

     iteration # 65     ecut=    30.00 Ry     beta=0.70
     Davidson diagonalization with overlap
     ethr =  1.00E-02,  avg # of iterations =  6.0

     negative rho (up, down):  3.453E-01 0.000E+00

     total cpu time spent up to now is       10.9 secs

     total energy              =     -25.71896668 Ry
     Harris-Foulkes estimate   =     -41.01185871 Ry
     estimated scf accuracy    <       6.76262604 Ry

     iteration # 66     ecut=    30.00 Ry     beta=0.70
     Davidson diagonalization with overlap
     ethr =  1.00E-02,  avg # of iterations =  9.0

     negative rho (up, down):  4.313E-01 0.000E+00

     total cpu time spent up to now is       10.9 secs

     total energy              =   -1510.34314864 Ry
     Harris-Foulkes estimate   =    -300.96934184 Ry
     estimated scf accuracy    <      54.68944993 Ry

     iteration # 67     ecut=    30.00 Ry     beta=0.70
     Davidson diagonalization with overlap
     ethr =  1.00E-02,  avg # of iterations = 12.0

     negative rho (up, down):  3.467E-01 0.000E+00

     total cpu time spent up to now is       11.0 secs

     total energy              =      43.61915820 Ry
     Harris-Foulkes estimate   =   -2347.56662034 Ry
     estimated scf accuracy    <      62.21666041 Ry

     iteration # 68     ecut=    30.00 Ry     beta=0.70
     Davidson diagonalization with overlap
     ethr =  1.00E-02,  avg # of iterations = 11.0

     negative rho (up, down):  5.185E-01 0.000E+00

     total cpu time spent up to now is       11.1 secs

     total energy              =     164.46869178 Ry
     Harris-Foulkes estimate   =   -2627.04100401 Ry
     estimated scf accuracy    <      60.88285945 Ry

     iteration # 69     ecut=    30.00 Ry     beta=0.70
     Davidson diagonalization with overlap
     ethr =  1.00E-02,  avg # of iterations = 13.0

     negative rho (up, down):  7.624E-01 0.000E+00

     total cpu time spent up to now is       11.1 secs

     total energy              =    -168.17557311 Ry
     Harris-Foulkes estimate   =    -760.55655772 Ry
     estimated scf accuracy    <      27.28395048 Ry

     iteration # 70     ecut=    30.00 Ry     beta=0.70
     Davidson diagonalization with overlap
     ethr =  1.00E-02,  avg # of iterations =  5.0

     negative rho (up, down):  9.863E-01 0.000E+00

     total cpu time spent up to now is       11.2 secs

     total energy              =   -7390.54267110 Ry
     Harris-Foulkes estimate   =   -8344.49679843 Ry
     estimated scf accuracy    <      27.93356859 Ry

     iteration # 71     ecut=    30.00 Ry     beta=0.70
     Davidson diagonalization with overlap
     ethr =  1.00E-02,  avg # of iterations =  6.0

     negative rho (up, down):  7.148E-01 0.000E+00

     total cpu time spent up to now is       11.2 secs

     total energy              =      37.90009286 Ry
     Harris-Foulkes estimate   =  -21208.17789446 Ry
     estimated scf accuracy    <      50.56293277 Ry

     iteration # 72     ecut=    30.00 Ry     beta=0.70
     Davidson diagonalization with overlap
     ethr =  1.00E-02,  avg # of iterations =  8.0

     negative rho (up, down):  9.796E-01 0.000E+00

     total cpu time spent up to now is       11.3 secs

     total energy              =    -142.14112548 Ry
     Harris-Foulkes estimate   =   -4762.44322714 Ry
     estimated scf accuracy    <      66.07173596 Ry

     iteration # 73     ecut=    30.00 Ry     beta=0.70
     Davidson diagonalization with overlap
     ethr =  1.00E-02,  avg # of iterations =  9.0

     negative rho (up, down):  7.576E-01 0.000E+00

     total cpu time spent up to now is       11.4 secs

     total energy              =   23545.22490563 Ry
     Harris-Foulkes estimate   =   -2538.81381902 Ry
     estimated scf accuracy    <      50.28099879 Ry

     iteration # 74     ecut=    30.00 Ry     beta=0.70
     Davidson diagonalization with overlap
     ethr =  1.00E-02,  avg # of iterations =  7.0

     negative rho (up, down):  1.066E+00 0.000E+00

     total cpu time spent up to now is       11.5 secs

     total energy              =    -611.08056210 Ry
     Harris-Foulkes estimate   =   -7035.64457477 Ry
     estimated scf accuracy    <      44.34937856 Ry

     iteration # 75     ecut=    30.00 Ry     beta=0.70
     Davidson diagonalization with overlap
     ethr =  1.00E-02,  avg # of iterations =  9.0

     negative rho (up, down):  1.578E+00 0.000E+00

     total cpu time spent up to now is       11.5 secs

     total energy              =    -489.30083598 Ry
     Harris-Foulkes estimate   =   -2600.48461958 Ry
     estimated scf accuracy    <      28.09717194 Ry

     iteration # 76     ecut=    30.00 Ry     beta=0.70
     Davidson diagonalization with overlap
     ethr =  1.00E-02,  avg # of iterations =  9.0

     negative rho (up, down):  1.937E+00 0.000E+00

     total cpu time spent up to now is       11.6 secs

     total energy              =   67684.54587499 Ry
     Harris-Foulkes estimate   =   -5833.19609647 Ry
     estimated scf accuracy    <      38.89241602 Ry

     iteration # 77     ecut=    30.00 Ry     beta=0.70
     Davidson diagonalization with overlap
     ethr =  1.00E-02,  avg # of iterations =  8.0

     negative rho (up, down):  1.529E+00 0.000E+00

     total cpu time spent up to now is       11.7 secs

     total energy              =     506.57372605 Ry
     Harris-Foulkes estimate   =    -956.95280913 Ry
     estimated scf accuracy    <      28.51256477 Ry

     iteration # 78     ecut=    30.00 Ry     beta=0.70
     Davidson diagonalization with overlap
     ethr =  1.00E-02,  avg # of iterations =  8.0

     negative rho (up, down):  1.282E+00 0.000E+00

     total cpu time spent up to now is       11.7 secs

     total energy              =     -31.68239042 Ry
     Harris-Foulkes estimate   =    -877.52331454 Ry
     estimated scf accuracy    <      24.98872548 Ry

     iteration # 79     ecut=    30.00 Ry     beta=0.70
     Davidson diagonalization with overlap
     ethr =  1.00E-02,  avg # of iterations =  8.0

     negative rho (up, down):  7.655E-01 0.000E+00

     total cpu time spent up to now is       11.8 secs

     total energy              =    -108.87135201 Ry
     Harris-Foulkes estimate   =   -1179.71696007 Ry
     estimated scf accuracy    <      19.46391956 Ry

     iteration # 80     ecut=    30.00 Ry     beta=0.70
     Davidson diagonalization with overlap
     ethr =  1.00E-02,  avg # of iterations =  7.0

     negative rho (up, down):  3.771E-01 0.000E+00

     total cpu time spent up to now is       11.8 secs

     total energy              =     127.41806254 Ry
     Harris-Foulkes estimate   =  -10710.04342833 Ry
     estimated scf accuracy    <      21.71610421 Ry

     iteration # 81     ecut=    30.00 Ry     beta=0.70
     Davidson diagonalization with overlap
     ethr =  1.00E-02,  avg # of iterations =  6.0

     negative rho (up, down):  3.584E-01 0.000E+00

     total cpu time spent up to now is       11.9 secs

     total energy              =    -811.51826635 Ry
     Harris-Foulkes estimate   =   -2194.91985312 Ry
     estimated scf accuracy    <      23.29226362 Ry

     iteration # 82     ecut=    30.00 Ry     beta=0.70
     Davidson diagonalization with overlap
     ethr =  1.00E-02,  avg # of iterations =  9.0

     negative rho (up, down):  3.288E-01 0.000E+00

     total cpu time spent up to now is       11.9 secs

     total energy              =    -217.85895917 Ry
     Harris-Foulkes estimate   =  -15547.30125561 Ry
     estimated scf accuracy    <      20.66741724 Ry

     iteration # 83     ecut=    30.00 Ry     beta=0.70
     Davidson diagonalization with overlap
     ethr =  1.00E-02,  avg # of iterations =  6.0

     negative rho (up, down):  3.034E-01 0.000E+00

     total cpu time spent up to now is       12.0 secs

     total energy              =     -39.45420817 Ry
     Harris-Foulkes estimate   =  -10295.65441644 Ry
     estimated scf accuracy    <      18.86479280 Ry

     iteration # 84     ecut=    30.00 Ry     beta=0.70
     Davidson diagonalization with overlap
     ethr =  1.00E-02,  avg # of iterations =  6.0

     negative rho (up, down):  1.695E-01 0.000E+00

     total cpu time spent up to now is       12.0 secs

     total energy              =    -407.51381171 Ry
     Harris-Foulkes estimate   =   -4584.14173337 Ry
     estimated scf accuracy    <      32.01585687 Ry

     iteration # 85     ecut=    30.00 Ry     beta=0.70
     Davidson diagonalization with overlap
     ethr =  1.00E-02,  avg # of iterations = 12.0

     negative rho (up, down):  4.623E-03 0.000E+00

     total cpu time spent up to now is       12.1 secs

     total energy              =     145.78534937 Ry
     Harris-Foulkes estimate   =   -1671.16470586 Ry
     estimated scf accuracy    <      27.14637865 Ry

     iteration # 86     ecut=    30.00 Ry     beta=0.70
     Davidson diagonalization with overlap
     ethr =  1.00E-02,  avg # of iterations =  8.0

     negative rho (up, down):  7.082E-03 0.000E+00

     total cpu time spent up to now is       12.2 secs

     total energy              =     -78.12695025 Ry
     Harris-Foulkes estimate   =     -89.99848830 Ry
     estimated scf accuracy    <      79.07327018 Ry

     iteration # 87     ecut=    30.00 Ry     beta=0.70
     Davidson diagonalization with overlap
     ethr =  1.00E-02,  avg # of iterations =  4.0

     negative rho (up, down):  3.706E-04 0.000E+00

     total cpu time spent up to now is       12.2 secs

     total energy              =     -21.38289751 Ry
     Harris-Foulkes estimate   =    -260.58525806 Ry
     estimated scf accuracy    <      35.63707208 Ry

     iteration # 88     ecut=    30.00 Ry     beta=0.70
     Davidson diagonalization with overlap
     ethr =  1.00E-02,  avg # of iterations =  6.0

     negative rho (up, down):  2.700E-01 0.000E+00

     total cpu time spent up to now is       12.2 secs

     total energy              =     -55.27964428 Ry
     Harris-Foulkes estimate   =     -80.26614228 Ry
     estimated scf accuracy    <      65.33815778 Ry

     iteration # 89     ecut=    30.00 Ry     beta=0.70
     Davidson diagonalization with overlap
     ethr =  1.00E-02,  avg # of iterations =  8.0

     negative rho (up, down):  3.172E-01 0.000E+00

     total cpu time spent up to now is       12.3 secs

     total energy              =      80.96510321 Ry
     Harris-Foulkes estimate   =    -897.12559769 Ry
     estimated scf accuracy    <      31.21619765 Ry

     iteration # 90     ecut=    30.00 Ry     beta=0.70
     Davidson diagonalization with overlap
     ethr =  1.00E-02,  avg # of iterations = 11.0

     negative rho (up, down):  5.886E-01 0.000E+00

     total cpu time spent up to now is       12.4 secs

     total energy              =      49.79662080 Ry
     Harris-Foulkes estimate   =   -1717.32462573 Ry
     estimated scf accuracy    <      21.92427785 Ry

     iteration # 91     ecut=    30.00 Ry     beta=0.70
     Davidson diagonalization with overlap
     ethr =  1.00E-02,  avg # of iterations = 12.0

     negative rho (up, down):  4.940E-01 0.000E+00

     total cpu time spent up to now is       12.4 secs

     total energy              =      99.77082251 Ry
     Harris-Foulkes estimate   =   -4294.36247337 Ry
     estimated scf accuracy    <      28.16253213 Ry

     iteration # 92     ecut=    30.00 Ry     beta=0.70
     Davidson diagonalization with overlap
     ethr =  1.00E-02,  avg # of iterations =  7.0

     negative rho (up, down):  4.756E-01 0.000E+00

     total cpu time spent up to now is       12.5 secs

     total energy              =     -70.93749363 Ry
     Harris-Foulkes estimate   =   -2646.03617369 Ry
     estimated scf accuracy    <      51.74026701 Ry

     iteration # 93     ecut=    30.00 Ry     beta=0.70
     Davidson diagonalization with overlap
     ethr =  1.00E-02,  avg # of iterations = 10.0

     negative rho (up, down):  7.525E-01 0.000E+00

     total cpu time spent up to now is       12.5 secs

     total energy              =    -432.82415628 Ry
     Harris-Foulkes estimate   =   -1515.20023015 Ry
     estimated scf accuracy    <      43.11906863 Ry

     iteration # 94     ecut=    30.00 Ry     beta=0.70
     Davidson diagonalization with overlap
     ethr =  1.00E-02,  avg # of iterations = 11.0

     negative rho (up, down):  3.722E-01 0.000E+00

     total cpu time spent up to now is       12.6 secs

     total energy              =     133.11917437 Ry
     Harris-Foulkes estimate   =  -14646.88364494 Ry
     estimated scf accuracy    <      45.00912495 Ry

     iteration # 95     ecut=    30.00 Ry     beta=0.70
     Davidson diagonalization with overlap
     ethr =  1.00E-02,  avg # of iterations =  7.0

     negative rho (up, down):  4.304E-01 0.000E+00

     total cpu time spent up to now is       12.7 secs

     total energy              =      87.59092836 Ry
     Harris-Foulkes estimate   =    -405.12484713 Ry
     estimated scf accuracy    <      31.93840157 Ry

     iteration # 96     ecut=    30.00 Ry     beta=0.70
     Davidson diagonalization with overlap
     ethr =  1.00E-02,  avg # of iterations =  8.0

     negative rho (up, down):  6.858E-01 0.000E+00

     total cpu time spent up to now is       12.7 secs

     total energy              =    -118.09783112 Ry
     Harris-Foulkes estimate   =   -2079.82604055 Ry
     estimated scf accuracy    <      30.57634981 Ry

     iteration # 97     ecut=    30.00 Ry     beta=0.70
     Davidson diagonalization with overlap
     ethr =  1.00E-02,  avg # of iterations =  7.0

     negative rho (up, down):  5.986E-01 0.000E+00

     total cpu time spent up to now is       12.8 secs

     total energy              =      92.84865899 Ry
     Harris-Foulkes estimate   =   -7655.37400845 Ry
     estimated scf accuracy    <      41.63988574 Ry

     iteration # 98     ecut=    30.00 Ry     beta=0.70
     Davidson diagonalization with overlap
     ethr =  1.00E-02,  avg # of iterations = 13.0

     negative rho (up, down):  6.451E-01 0.000E+00

     total cpu time spent up to now is       12.8 secs

     total energy              =      49.40358530 Ry
     Harris-Foulkes estimate   =    -773.12896819 Ry
     estimated scf accuracy    <      28.33576568 Ry

     iteration # 99     ecut=    30.00 Ry     beta=0.70
     Davidson diagonalization with overlap
     ethr =  1.00E-02,  avg # of iterations =  8.0

     negative rho (up, down):  9.745E-01 0.000E+00

     total cpu time spent up to now is       12.9 secs

     total energy              =    -468.50119072 Ry
     Harris-Foulkes estimate   =   -3812.86484016 Ry
     estimated scf accuracy    <      49.35782973 Ry

     iteration #100     ecut=    30.00 Ry     beta=0.70
     Davidson diagonalization with overlap
     ethr =  1.00E-02,  avg # of iterations = 10.0

     negative rho (up, down):  1.430E+00 0.000E+00

     total cpu time spent up to now is       13.0 secs

     total energy              =       8.65107449 Ry
     Harris-Foulkes estimate   =   -1396.59955552 Ry
     estimated scf accuracy    <      28.21008518 Ry

     End of self-consistent calculation

     convergence NOT achieved after 100 iterations: stopping

     Writing output data file pwscf.save
 
     init_run     :      0.09s CPU      0.11s WALL (       1 calls)
     electrons    :      9.07s CPU     11.39s WALL (       6 calls)
     update_pot   :      0.58s CPU      0.91s WALL (       5 calls)
     forces       :      0.13s CPU      0.13s WALL (       5 calls)

     Called by init_run:
     wfcinit      :      0.01s CPU      0.02s WALL (       1 calls)
     potinit      :      0.02s CPU      0.03s WALL (       1 calls)

     Called by electrons:
     c_bands      :      4.56s CPU      4.83s WALL (     249 calls)
     sum_band     :      0.74s CPU      0.78s WALL (     249 calls)
     v_of_rho     :      1.81s CPU      1.91s WALL (     255 calls)
     mix_rho      :      1.68s CPU      2.95s WALL (     249 calls)

     Called by c_bands:
     init_us_2    :      0.02s CPU      0.03s WALL (     499 calls)
     cegterg      :      4.51s CPU      4.70s WALL (     249 calls)

     Called by sum_band:

     Called by *egterg:
     h_psi        :      3.76s CPU      3.92s WALL (    1388 calls)
     g_psi        :      0.04s CPU      0.04s WALL (    1138 calls)
     cdiaghg      :      0.28s CPU      0.30s WALL (    1382 calls)

     Called by h_psi:
     h_psi:pot    :      3.73s CPU      3.90s WALL (    1388 calls)
     h_psi:calbec :      0.06s CPU      0.07s WALL (    1388 calls)
     vloc_psi     :      3.66s CPU      3.81s WALL (    1388 calls)
     add_vuspsi   :      0.01s CPU      0.01s WALL (    1388 calls)

     General routines
     calbec       :      0.08s CPU      0.11s WALL (    1412 calls)
     fft          :      1.12s CPU      1.18s WALL (    2815 calls)
     fftw         :      3.77s CPU      3.94s WALL (   16632 calls)
     davcio       :      0.27s CPU      1.05s WALL (    4461 calls)
 
     Parallel routines
     fft_scatter  :      1.79s CPU      1.95s WALL (   19447 calls)
 
     PWSCF        :    10.07s CPU        13.14s WALL

 
   This run was terminated on:   7:21:46  14Feb2018            

=------------------------------------------------------------------------------=
   JOB DONE.
=------------------------------------------------------------------------------=
