
     Program PWSCF v.6.0 (svn rev. 13079) starts on 14Feb2018 at  7:24:36 

     This program is part of the open-source Quantum ESPRESSO suite
     for quantum simulation of materials; please cite
         "P. Giannozzi et al., J. Phys.:Condens. Matter 21 395502 (2009);
          URL http://www.quantum-espresso.org", 
     in publications or presentations arising from this work. More details at
     http://www.quantum-espresso.org/quote

     Parallel version (MPI), running on    28 processors
     R & G space division:  proc/nbgrp/npool/nimage =      28
     Reading input from inputs/MD-H2O-2/93.in

     Current dimensions of program PWSCF are:
     Max number of different atomic species (ntypx) = 10
     Max number of k-points (npk) =  40000
     Max angular momentum in pseudopotentials (lmaxx) =  3

     Subspace diagonalization in iterative solution of the eigenvalue problem:
     a serial algorithm will be used

 
     Parallelization info
     --------------------
     sticks:   dense  smooth     PW     G-vecs:    dense   smooth      PW
     Min         136     136     33                 6338     6338     787
     Max         137     137     34                 6341     6341     792
     Sum        3809    3809    949               177509   177509   22119
 


     bravais-lattice index     =            1
     lattice parameter (alat)  =      20.0000  a.u.
     unit-cell volume          =    8000.0000 (a.u.)^3
     number of atoms/cell      =            3
     number of atomic types    =            2
     number of electrons       =         8.00
     number of Kohn-Sham states=            8
     kinetic-energy cutoff     =      30.0000  Ry
     charge density cutoff     =     120.0000  Ry
     convergence threshold     =      1.0E-08
     mixing beta               =       0.7000
     number of iterations used =            8  plain     mixing
     Exchange-correlation      = BLYP ( 1  3  1  3 0 0)
     nstep                     =         5000


     celldm(1)=  20.000000  celldm(2)=   0.000000  celldm(3)=   0.000000
     celldm(4)=   0.000000  celldm(5)=   0.000000  celldm(6)=   0.000000

     crystal axes: (cart. coord. in units of alat)
               a(1) = (   1.000000   0.000000   0.000000 )  
               a(2) = (   0.000000   1.000000   0.000000 )  
               a(3) = (   0.000000   0.000000   1.000000 )  

     reciprocal axes: (cart. coord. in units 2 pi/alat)
               b(1) = (  1.000000  0.000000  0.000000 )  
               b(2) = (  0.000000  1.000000  0.000000 )  
               b(3) = (  0.000000  0.000000  1.000000 )  


     PseudoPot. # 1 for  H read from file:
     ./H.blyp-hgh.UPF
     MD5 check sum: c576e69559cde411e611be972c763230
     Pseudo is Norm-conserving, Zval =  1.0
     Generated in analytical, separable form
     Using radial grid of  929 points,  0 beta functions with: 

     PseudoPot. # 2 for  O read from file:
     ./O.blyp-hgh.UPF
     MD5 check sum: d0b7156309aa9befef28faac7bc56342
     Pseudo is Norm-conserving, Zval =  6.0
     Generated in analytical, separable form
     Using radial grid of 1095 points,  1 beta functions with: 
                l(1) =   0

     atomic species   valence    mass     pseudopotential
        H              1.00     1.01000      H( 1.00)
        O              6.00    16.00000      O( 1.00)

     No symmetry found



   Cartesian axes

     site n.     atom                  positions (alat units)
         1           H   tau(   1) = (   0.5352374   0.8683304   0.7232818  )
         2           H   tau(   2) = (   0.8526504   0.2790096   0.9222413  )
         3           O   tau(   3) = (   0.4727146   0.8218974   0.7851766  )

     number of k points=     1  Marzari-Vanderbilt smearing, width (Ry)=  0.0250
                       cart. coord. in units 2pi/alat
        k(    1) = (   0.0000000   0.0000000   0.0000000), wk =   2.0000000

     Dense  grid:   177509 G-vectors     FFT dimensions: (  72,  72,  72)

     Estimated max dynamical RAM per process >       6.09Mb

     Estimated total allocated dynamical RAM >     170.64Mb

     Initial potential from superposition of free atoms
     Check: negative starting charge=   -0.349750

     starting charge    7.99998, renormalised to    8.00000

     negative rho (up, down):  3.498E-01 0.000E+00
     Starting wfc are    6 randomized atomic wfcs +    2 random wfc

     total cpu time spent up to now is        0.3 secs

     per-process dynamical memory:    18.8 Mb

     Self-consistent Calculation

     iteration #  1     ecut=    30.00 Ry     beta=0.70
     Davidson diagonalization with overlap
     ethr =  1.00E-02,  avg # of iterations =  6.0

     negative rho (up, down):  9.160E-02 0.000E+00

     total cpu time spent up to now is        0.3 secs

     total energy              =     -30.32809613 Ry
     Harris-Foulkes estimate   =     -32.23423256 Ry
     estimated scf accuracy    <       2.19572153 Ry

     iteration #  2     ecut=    30.00 Ry     beta=0.70
     Davidson diagonalization with overlap
     ethr =  1.00E-02,  avg # of iterations =  3.0

     negative rho (up, down):  6.658E-02 0.000E+00

     total cpu time spent up to now is        0.4 secs

     total energy              =     -32.30510612 Ry
     Harris-Foulkes estimate   =     -34.61722614 Ry
     estimated scf accuracy    <       5.61828360 Ry

     iteration #  3     ecut=    30.00 Ry     beta=0.70
     Davidson diagonalization with overlap
     ethr =  1.00E-02,  avg # of iterations =  2.0

     negative rho (up, down):  6.388E-02 0.000E+00

     total cpu time spent up to now is        0.4 secs

     total energy              =     -32.44842274 Ry
     Harris-Foulkes estimate   =     -32.54051810 Ry
     estimated scf accuracy    <       1.83143019 Ry

     iteration #  4     ecut=    30.00 Ry     beta=0.70
     Davidson diagonalization with overlap
     ethr =  1.00E-02,  avg # of iterations =  1.0

     negative rho (up, down):  1.156E-02 0.000E+00

     total cpu time spent up to now is        0.4 secs

     total energy              =     -31.29007453 Ry
     Harris-Foulkes estimate   =     -32.44875401 Ry
     estimated scf accuracy    <       1.70459760 Ry

     iteration #  5     ecut=    30.00 Ry     beta=0.70
     Davidson diagonalization with overlap
     ethr =  1.00E-02,  avg # of iterations =  4.0

     negative rho (up, down):  2.571E-02 0.000E+00

     total cpu time spent up to now is        0.5 secs

     total energy              =     -33.44993885 Ry
     Harris-Foulkes estimate   =     -33.26283455 Ry
     estimated scf accuracy    <       8.65383812 Ry

     iteration #  6     ecut=    30.00 Ry     beta=0.70
     Davidson diagonalization with overlap
     ethr =  1.00E-02,  avg # of iterations =  1.0

     negative rho (up, down):  2.127E-02 0.000E+00

     total cpu time spent up to now is        0.5 secs

     total energy              =     -33.34535807 Ry
     Harris-Foulkes estimate   =     -33.45684851 Ry
     estimated scf accuracy    <       9.53330668 Ry

     iteration #  7     ecut=    30.00 Ry     beta=0.70
     Davidson diagonalization with overlap
     ethr =  1.00E-02,  avg # of iterations =  1.0

     negative rho (up, down):  2.155E-02 0.000E+00

     total cpu time spent up to now is        0.5 secs

     total energy              =     -33.34474980 Ry
     Harris-Foulkes estimate   =     -33.34638226 Ry
     estimated scf accuracy    <       9.26799700 Ry

     iteration #  8     ecut=    30.00 Ry     beta=0.70
     Davidson diagonalization with overlap
     ethr =  1.00E-02,  avg # of iterations =  1.0

     negative rho (up, down):  2.303E-02 0.000E+00

     total cpu time spent up to now is        0.5 secs

     total energy              =     -33.26891555 Ry
     Harris-Foulkes estimate   =     -33.34507249 Ry
     estimated scf accuracy    <       9.25894536 Ry

     iteration #  9     ecut=    30.00 Ry     beta=0.70
     Davidson diagonalization with overlap
     ethr =  1.00E-02,  avg # of iterations =  1.0

     negative rho (up, down):  3.915E-02 0.000E+00

     total cpu time spent up to now is        0.6 secs

     total energy              =     -32.35490275 Ry
     Harris-Foulkes estimate   =     -33.27054598 Ry
     estimated scf accuracy    <       8.60349422 Ry

     iteration # 10     ecut=    30.00 Ry     beta=0.70
     Davidson diagonalization with overlap
     ethr =  1.00E-02,  avg # of iterations =  1.0

     negative rho (up, down):  3.260E-02 0.000E+00

     total cpu time spent up to now is        0.6 secs

     total energy              =     -32.74300541 Ry
     Harris-Foulkes estimate   =     -32.66135871 Ry
     estimated scf accuracy    <       2.48151823 Ry

     iteration # 11     ecut=    30.00 Ry     beta=0.70
     Davidson diagonalization with overlap
     ethr =  1.00E-02,  avg # of iterations =  1.0

     negative rho (up, down):  3.625E-02 0.000E+00

     total cpu time spent up to now is        0.6 secs

     total energy              =     -32.16492613 Ry
     Harris-Foulkes estimate   =     -32.74523540 Ry
     estimated scf accuracy    <       2.61407072 Ry

     iteration # 12     ecut=    30.00 Ry     beta=0.70
     Davidson diagonalization with overlap
     ethr =  1.00E-02,  avg # of iterations =  1.0

     negative rho (up, down):  1.751E-01 0.000E+00

     total cpu time spent up to now is        0.7 secs

     total energy              =     -31.71495056 Ry
     Harris-Foulkes estimate   =     -32.18606469 Ry
     estimated scf accuracy    <       1.60577671 Ry

     iteration # 13     ecut=    30.00 Ry     beta=0.70
     Davidson diagonalization with overlap
     ethr =  1.00E-02,  avg # of iterations =  1.0

     negative rho (up, down):  2.130E-01 0.000E+00

     total cpu time spent up to now is        0.7 secs

     total energy              =     -31.88177334 Ry
     Harris-Foulkes estimate   =     -32.08048910 Ry
     estimated scf accuracy    <       1.10213705 Ry

     iteration # 14     ecut=    30.00 Ry     beta=0.70
     Davidson diagonalization with overlap
     ethr =  1.00E-02,  avg # of iterations =  1.0

     negative rho (up, down):  2.216E-01 0.000E+00

     total cpu time spent up to now is        0.7 secs

     total energy              =     -31.91456753 Ry
     Harris-Foulkes estimate   =     -31.93657594 Ry
     estimated scf accuracy    <       0.96787117 Ry

     iteration # 15     ecut=    30.00 Ry     beta=0.70
     Davidson diagonalization with overlap
     ethr =  1.00E-02,  avg # of iterations =  1.0

     negative rho (up, down):  7.792E-02 0.000E+00

     total cpu time spent up to now is        0.8 secs

     total energy              =     -31.93986376 Ry
     Harris-Foulkes estimate   =     -31.92517365 Ry
     estimated scf accuracy    <       0.01411912 Ry

     iteration # 16     ecut=    30.00 Ry     beta=0.70
     Davidson diagonalization with overlap
     ethr =  1.76E-04,  avg # of iterations =  7.0

     negative rho (up, down):  6.688E-06 0.000E+00

     total cpu time spent up to now is        0.8 secs

     total energy              =     -31.85765602 Ry
     Harris-Foulkes estimate   =     -31.97394935 Ry
     estimated scf accuracy    <       1.59213419 Ry

     iteration # 17     ecut=    30.00 Ry     beta=0.70
     Davidson diagonalization with overlap
     ethr =  1.76E-04,  avg # of iterations =  3.0

     total cpu time spent up to now is        0.9 secs

     total energy              =     -31.90088323 Ry
     Harris-Foulkes estimate   =     -31.98274951 Ry
     estimated scf accuracy    <       0.94470627 Ry

     iteration # 18     ecut=    30.00 Ry     beta=0.70
     Davidson diagonalization with overlap
     ethr =  1.76E-04,  avg # of iterations =  1.0

     negative rho (up, down):  1.105E-04 0.000E+00

     total cpu time spent up to now is        0.9 secs

     total energy              =     -31.97254041 Ry
     Harris-Foulkes estimate   =     -31.96592402 Ry
     estimated scf accuracy    <       1.32762439 Ry

     iteration # 19     ecut=    30.00 Ry     beta=0.70
     Davidson diagonalization with overlap
     ethr =  1.76E-04,  avg # of iterations =  1.0

     negative rho (up, down):  1.344E-04 0.000E+00

     total cpu time spent up to now is        0.9 secs

     total energy              =     -31.93602489 Ry
     Harris-Foulkes estimate   =     -31.97288317 Ry
     estimated scf accuracy    <       1.54068207 Ry

     iteration # 20     ecut=    30.00 Ry     beta=0.70
     Davidson diagonalization with overlap
     ethr =  1.76E-04,  avg # of iterations =  1.0

     negative rho (up, down):  9.360E-04 0.000E+00

     total cpu time spent up to now is        0.9 secs

     total energy              =     -31.95090209 Ry
     Harris-Foulkes estimate   =     -31.94733402 Ry
     estimated scf accuracy    <       0.10135178 Ry

     iteration # 21     ecut=    30.00 Ry     beta=0.70
     Davidson diagonalization with overlap
     ethr =  1.76E-04,  avg # of iterations =  1.0

     negative rho (up, down):  5.250E-04 0.000E+00

     total cpu time spent up to now is        1.0 secs

     total energy              =     -31.92356606 Ry
     Harris-Foulkes estimate   =     -31.95334747 Ry
     estimated scf accuracy    <       0.57059841 Ry

     iteration # 22     ecut=    30.00 Ry     beta=0.70
     Davidson diagonalization with overlap
     ethr =  1.76E-04,  avg # of iterations =  1.0

     negative rho (up, down):  1.006E-03 0.000E+00

     total cpu time spent up to now is        1.0 secs

     total energy              =     -31.94066231 Ry
     Harris-Foulkes estimate   =     -31.95367189 Ry
     estimated scf accuracy    <       0.43982537 Ry

     iteration # 23     ecut=    30.00 Ry     beta=0.70
     Davidson diagonalization with overlap
     ethr =  1.76E-04,  avg # of iterations =  1.0

     negative rho (up, down):  2.103E-04 0.000E+00

     total cpu time spent up to now is        1.0 secs

     total energy              =     -31.94580367 Ry
     Harris-Foulkes estimate   =     -31.94613213 Ry
     estimated scf accuracy    <       0.00213160 Ry

     iteration # 24     ecut=    30.00 Ry     beta=0.70
     Davidson diagonalization with overlap
     ethr =  2.66E-05,  avg # of iterations =  8.0

     negative rho (up, down):  1.417E-05 0.000E+00

     total cpu time spent up to now is        1.1 secs

     total energy              =     -31.94534792 Ry
     Harris-Foulkes estimate   =     -31.94686570 Ry
     estimated scf accuracy    <       0.06143490 Ry

     iteration # 25     ecut=    30.00 Ry     beta=0.70
     Davidson diagonalization with overlap
     ethr =  2.66E-05,  avg # of iterations =  1.0

     negative rho (up, down):  1.928E-06 0.000E+00

     total cpu time spent up to now is        1.1 secs

     total energy              =     -31.94609932 Ry
     Harris-Foulkes estimate   =     -31.94609839 Ry
     estimated scf accuracy    <       0.00000687 Ry

     iteration # 26     ecut=    30.00 Ry     beta=0.70
     Davidson diagonalization with overlap
     ethr =  8.59E-08,  avg # of iterations =  5.0

     negative rho (up, down):  1.137E-07 0.000E+00

     total cpu time spent up to now is        1.2 secs

     total energy              =     -31.94609500 Ry
     Harris-Foulkes estimate   =     -31.94610340 Ry
     estimated scf accuracy    <       0.00031744 Ry

     iteration # 27     ecut=    30.00 Ry     beta=0.70
     Davidson diagonalization with overlap
     ethr =  8.59E-08,  avg # of iterations =  1.0

     total cpu time spent up to now is        1.2 secs

     total energy              =     -31.94609895 Ry
     Harris-Foulkes estimate   =     -31.94609896 Ry
     estimated scf accuracy    <       0.00000006 Ry

     iteration # 28     ecut=    30.00 Ry     beta=0.70
     Davidson diagonalization with overlap
     ethr =  7.72E-10,  avg # of iterations =  2.0

     total cpu time spent up to now is        1.2 secs

     total energy              =     -31.94609881 Ry
     Harris-Foulkes estimate   =     -31.94609917 Ry
     estimated scf accuracy    <       0.00001534 Ry

     iteration # 29     ecut=    30.00 Ry     beta=0.70
     Davidson diagonalization with overlap
     ethr =  7.72E-10,  avg # of iterations =  1.0

     total cpu time spent up to now is        1.3 secs

     total energy              =     -31.94609900 Ry
     Harris-Foulkes estimate   =     -31.94609898 Ry
     estimated scf accuracy    <       0.00000004 Ry

     iteration # 30     ecut=    30.00 Ry     beta=0.70
     Davidson diagonalization with overlap
     ethr =  5.30E-10,  avg # of iterations =  1.0

     total cpu time spent up to now is        1.3 secs

     total energy              =     -31.94609900 Ry
     Harris-Foulkes estimate   =     -31.94609900 Ry
     estimated scf accuracy    <       0.00000010 Ry

     iteration # 31     ecut=    30.00 Ry     beta=0.70
     Davidson diagonalization with overlap
     ethr =  5.30E-10,  avg # of iterations =  1.0

     total cpu time spent up to now is        1.3 secs

     total energy              =     -31.94609902 Ry
     Harris-Foulkes estimate   =     -31.94609900 Ry
     estimated scf accuracy    <       0.00000005 Ry

     iteration # 32     ecut=    30.00 Ry     beta=0.70
     Davidson diagonalization with overlap
     ethr =  5.30E-10,  avg # of iterations =  1.0

     total cpu time spent up to now is        1.3 secs

     End of self-consistent calculation

          k = 0.0000 0.0000 0.0000 ( 22119 PWs)   bands (ev):

   -24.7849 -10.6331  -7.0447  -7.0442  -6.9050  -0.7011   0.3415   0.8240

     the Fermi energy is    -6.8740 ev

!    total energy              =     -31.94609903 Ry
     Harris-Foulkes estimate   =     -31.94609902 Ry
     estimated scf accuracy    <          6.1E-11 Ry

     convergence has been achieved in  32 iterations

     Forces acting on atoms (Ry/au):

     atom    1 type  1   force =     0.01043889    0.00669482   -0.01076692
     atom    2 type  1   force =    -0.00015671   -0.00031355   -0.00005233
     atom    3 type  2   force =    -0.01028217   -0.00638127    0.01081924

     Total force =     0.023094     Total SCF correction =     0.000013

     Molecular Dynamics Calculation

     Starting temperature  =  1000.00 K

     temperature is controlled by Andersen thermostat
     Collision frequency = 1.0000/timestep
     mass H                =     1.01
     mass O                =    16.00
     Time step             =   100.00 a.u.,  4.8378 femto-seconds

     Entering Dynamics:    iteration =     1
                           time      =   0.0048 pico-seconds


     Andersen thermostat:    3 collisions

ATOMIC_POSITIONS (bohr)
H       10.993004730  17.679511957  14.209026802
H       17.058687205   5.807502981  18.255644659
O        9.435737231  16.403845995  15.731672402


     kinetic energy (Ekin) =     0.01319564 Ry
     temperature           =   694.47456190 K 
     Ekin + Etot (const)   =   -31.93290339 Ry

     Linear momentum :   -0.0000000000    0.0000000000   -0.0000000000

     Writing output data file pwscf.save
     Check: negative starting charge=   -0.349750
     NEW-OLD atomic charge density approx. for the potential
     Check: negative starting charge=   -0.347203

     negative rho (up, down):  9.378E-02 0.000E+00

     total cpu time spent up to now is        1.6 secs

     per-process dynamical memory:    20.4 Mb

     Self-consistent Calculation

     iteration #  1     ecut=    30.00 Ry     beta=0.70
     Davidson diagonalization with overlap
     ethr =  1.00E-06,  avg # of iterations = 18.0

     negative rho (up, down):  2.252E-02 0.000E+00

     total cpu time spent up to now is        1.7 secs

     total energy              =     -30.54079366 Ry
     Harris-Foulkes estimate   =     -31.83920680 Ry
     estimated scf accuracy    <       1.66374425 Ry

     iteration #  2     ecut=    30.00 Ry     beta=0.70
     Davidson diagonalization with overlap
     ethr =  1.00E-02,  avg # of iterations =  3.0

     negative rho (up, down):  1.680E-02 0.000E+00

     total cpu time spent up to now is        1.8 secs

     total energy              =     -32.24252055 Ry
     Harris-Foulkes estimate   =     -34.43449904 Ry
     estimated scf accuracy    <       5.72178668 Ry

     iteration #  3     ecut=    30.00 Ry     beta=0.70
     Davidson diagonalization with overlap
     ethr =  1.00E-02,  avg # of iterations =  2.0

     negative rho (up, down):  1.425E-02 0.000E+00

     total cpu time spent up to now is        1.8 secs

     total energy              =     -32.19739449 Ry
     Harris-Foulkes estimate   =     -32.50554441 Ry
     estimated scf accuracy    <       1.81583621 Ry

     iteration #  4     ecut=    30.00 Ry     beta=0.70
     Davidson diagonalization with overlap
     ethr =  1.00E-02,  avg # of iterations =  1.0

     negative rho (up, down):  1.123E-02 0.000E+00

     total cpu time spent up to now is        1.8 secs

     total energy              =     -31.87144226 Ry
     Harris-Foulkes estimate   =     -32.19894070 Ry
     estimated scf accuracy    <       1.42347757 Ry

     iteration #  5     ecut=    30.00 Ry     beta=0.70
     Davidson diagonalization with overlap
     ethr =  1.00E-02,  avg # of iterations =  3.0

     negative rho (up, down):  6.927E-03 0.000E+00

     total cpu time spent up to now is        1.9 secs

     total energy              =     -31.77596822 Ry
     Harris-Foulkes estimate   =     -31.87131679 Ry
     estimated scf accuracy    <       0.54659751 Ry

     iteration #  6     ecut=    30.00 Ry     beta=0.70
     Davidson diagonalization with overlap
     ethr =  6.83E-03,  avg # of iterations =  1.0

     negative rho (up, down):  1.386E-04 0.000E+00

     total cpu time spent up to now is        1.9 secs

     total energy              =     -31.96934286 Ry
     Harris-Foulkes estimate   =     -31.99359863 Ry
     estimated scf accuracy    <       1.33373365 Ry

     iteration #  7     ecut=    30.00 Ry     beta=0.70
     Davidson diagonalization with overlap
     ethr =  6.83E-03,  avg # of iterations =  1.0

     negative rho (up, down):  6.536E-05 0.000E+00

     total cpu time spent up to now is        1.9 secs

     total energy              =     -31.91665233 Ry
     Harris-Foulkes estimate   =     -31.97059163 Ry
     estimated scf accuracy    <       1.30578740 Ry

     iteration #  8     ecut=    30.00 Ry     beta=0.70
     Davidson diagonalization with overlap
     ethr =  6.83E-03,  avg # of iterations =  1.0

     negative rho (up, down):  6.477E-05 0.000E+00

     total cpu time spent up to now is        2.0 secs

     total energy              =     -31.79693592 Ry
     Harris-Foulkes estimate   =     -31.91521057 Ry
     estimated scf accuracy    <       1.56416467 Ry

     iteration #  9     ecut=    30.00 Ry     beta=0.70
     Davidson diagonalization with overlap
     ethr =  6.83E-03,  avg # of iterations =  1.0

     negative rho (up, down):  1.903E-06 0.000E+00

     total cpu time spent up to now is        2.0 secs

     total energy              =     -31.88124786 Ry
     Harris-Foulkes estimate   =     -31.90517634 Ry
     estimated scf accuracy    <       0.92956374 Ry

     iteration # 10     ecut=    30.00 Ry     beta=0.70
     Davidson diagonalization with overlap
     ethr =  6.83E-03,  avg # of iterations =  1.0

     negative rho (up, down):  1.377E-07 0.000E+00

     total cpu time spent up to now is        2.0 secs

     total energy              =     -31.86504953 Ry
     Harris-Foulkes estimate   =     -31.88328859 Ry
     estimated scf accuracy    <       0.50351242 Ry

     iteration # 11     ecut=    30.00 Ry     beta=0.70
     Davidson diagonalization with overlap
     ethr =  6.29E-03,  avg # of iterations =  1.0

     negative rho (up, down):  1.426E-07 0.000E+00

     total cpu time spent up to now is        2.1 secs

     total energy              =     -31.87436410 Ry
     Harris-Foulkes estimate   =     -31.87453268 Ry
     estimated scf accuracy    <       0.01517627 Ry

     iteration # 12     ecut=    30.00 Ry     beta=0.70
     Davidson diagonalization with overlap
     ethr =  1.90E-04,  avg # of iterations =  3.0

     total cpu time spent up to now is        2.1 secs

     total energy              =     -31.87455817 Ry
     Harris-Foulkes estimate   =     -31.87440317 Ry
     estimated scf accuracy    <       0.00467039 Ry

     iteration # 13     ecut=    30.00 Ry     beta=0.70
     Davidson diagonalization with overlap
     ethr =  5.84E-05,  avg # of iterations =  1.0

     negative rho (up, down):  2.985E-08 0.000E+00

     total cpu time spent up to now is        2.1 secs

     total energy              =     -31.87449881 Ry
     Harris-Foulkes estimate   =     -31.87466118 Ry
     estimated scf accuracy    <       0.02553213 Ry

     iteration # 14     ecut=    30.00 Ry     beta=0.70
     Davidson diagonalization with overlap
     ethr =  5.84E-05,  avg # of iterations =  1.0

     negative rho (up, down):  5.837E-07 0.000E+00

     total cpu time spent up to now is        2.2 secs

     total energy              =     -31.87463083 Ry
     Harris-Foulkes estimate   =     -31.87452025 Ry
     estimated scf accuracy    <       0.01413420 Ry

     iteration # 15     ecut=    30.00 Ry     beta=0.70
     Davidson diagonalization with overlap
     ethr =  5.84E-05,  avg # of iterations =  1.0

     negative rho (up, down):  2.479E-07 0.000E+00

     total cpu time spent up to now is        2.2 secs

     total energy              =     -31.87444041 Ry
     Harris-Foulkes estimate   =     -31.87464818 Ry
     estimated scf accuracy    <       0.02442346 Ry

     iteration # 16     ecut=    30.00 Ry     beta=0.70
     Davidson diagonalization with overlap
     ethr =  5.84E-05,  avg # of iterations =  1.0

     total cpu time spent up to now is        2.2 secs

     total energy              =     -31.87416016 Ry
     Harris-Foulkes estimate   =     -31.87447609 Ry
     estimated scf accuracy    <       0.01047687 Ry

     iteration # 17     ecut=    30.00 Ry     beta=0.70
     Davidson diagonalization with overlap
     ethr =  5.84E-05,  avg # of iterations =  1.0

     total cpu time spent up to now is        2.3 secs

     total energy              =     -31.87434629 Ry
     Harris-Foulkes estimate   =     -31.87435181 Ry
     estimated scf accuracy    <       0.00045864 Ry

     iteration # 18     ecut=    30.00 Ry     beta=0.70
     Davidson diagonalization with overlap
     ethr =  5.73E-06,  avg # of iterations =  7.0

     total cpu time spent up to now is        2.3 secs

     total energy              =     -31.87434451 Ry
     Harris-Foulkes estimate   =     -31.87434764 Ry
     estimated scf accuracy    <       0.00012737 Ry

     iteration # 19     ecut=    30.00 Ry     beta=0.70
     Davidson diagonalization with overlap
     ethr =  1.59E-06,  avg # of iterations =  7.0

     total cpu time spent up to now is        2.3 secs

     total energy              =     -31.87434621 Ry
     Harris-Foulkes estimate   =     -31.87434613 Ry
     estimated scf accuracy    <       0.00000004 Ry

     iteration # 20     ecut=    30.00 Ry     beta=0.70
     Davidson diagonalization with overlap
     ethr =  5.01E-10,  avg # of iterations =  1.0

     total cpu time spent up to now is        2.4 secs

     total energy              =     -31.87434664 Ry
     Harris-Foulkes estimate   =     -31.87434621 Ry
     estimated scf accuracy    <       0.00000008 Ry

     iteration # 21     ecut=    30.00 Ry     beta=0.70
     Davidson diagonalization with overlap
     ethr =  5.01E-10,  avg # of iterations =  2.0

     total cpu time spent up to now is        2.4 secs

     total energy              =     -31.87434667 Ry
     Harris-Foulkes estimate   =     -31.87434665 Ry
     estimated scf accuracy    <       0.00000005 Ry

     iteration # 22     ecut=    30.00 Ry     beta=0.70
     Davidson diagonalization with overlap
     ethr =  5.01E-10,  avg # of iterations =  1.0

     total cpu time spent up to now is        2.4 secs

     total energy              =     -31.87434669 Ry
     Harris-Foulkes estimate   =     -31.87434667 Ry
     estimated scf accuracy    <       0.00000002 Ry

     iteration # 23     ecut=    30.00 Ry     beta=0.70
     Davidson diagonalization with overlap
     ethr =  2.29E-10,  avg # of iterations =  1.0

     total cpu time spent up to now is        2.5 secs

     End of self-consistent calculation

          k = 0.0000 0.0000 0.0000 ( 22119 PWs)   bands (ev):

   -23.9357  -9.7680  -6.9557  -6.9553  -6.8195  -1.9756   0.0302   0.8151

     the Fermi energy is    -6.7863 ev

!    total energy              =     -31.87434669 Ry
     Harris-Foulkes estimate   =     -31.87434669 Ry
     estimated scf accuracy    <          1.9E-11 Ry

     convergence has been achieved in  23 iterations

     Forces acting on atoms (Ry/au):

     atom    1 type  1   force =    -0.12008055   -0.09817201    0.11749128
     atom    2 type  1   force =    -0.00000344   -0.00015650    0.00034967
     atom    3 type  2   force =     0.12008399    0.09832851   -0.11784094

     Total force =     0.275384     Total SCF correction =     0.000076

     Entering Dynamics:    iteration =     2
                           time      =   0.0097 pico-seconds


     Andersen thermostat:    3 collisions

ATOMIC_POSITIONS (bohr)
H        9.740987122  16.789222331  15.630461566
H       17.121906288   5.651952254  18.435684267
O        9.510780138  16.469864667  15.630579332


     kinetic energy (Ekin) =     0.06060260 Ry
     temperature           =  3189.46069986 K 
     Ekin + Etot (const)   =   -31.81374409 Ry
     Message from routine dynamics:
     Total linear momentum <> 0

     Linear momentum :   -0.0482643422    0.4839037204    0.0463385468

     Writing output data file pwscf.save

     first order wave-functions extrapolation
     Check: negative starting charge=   -0.347203
     first order charge density extrapolation
     Check: negative starting charge=   -0.358818

     negative rho (up, down):  5.200E-01 0.000E+00

     total cpu time spent up to now is        2.8 secs

     per-process dynamical memory:    20.4 Mb

     Self-consistent Calculation

     iteration #  1     ecut=    30.00 Ry     beta=0.70
     Davidson diagonalization with overlap
     ethr =  1.00E-06,  avg # of iterations = 13.0

     negative rho (up, down):  1.035E-01 0.000E+00

     total cpu time spent up to now is        2.9 secs

     total energy              =      52.57973451 Ry
     Harris-Foulkes estimate   =     -90.41830989 Ry
     estimated scf accuracy    <      19.31699243 Ry

     iteration #  2     ecut=    30.00 Ry     beta=0.70
     Davidson diagonalization with overlap
     ethr =  1.00E-02,  avg # of iterations =  4.0

     negative rho (up, down):  6.361E-02 0.000E+00

     total cpu time spent up to now is        2.9 secs

     total energy              =     -16.25289649 Ry
     Harris-Foulkes estimate   =     -24.36793277 Ry
     estimated scf accuracy    <      15.24201265 Ry

     iteration #  3     ecut=    30.00 Ry     beta=0.70
     Davidson diagonalization with overlap
     ethr =  1.00E-02,  avg # of iterations =  3.0

     negative rho (up, down):  5.176E-02 0.000E+00

     total cpu time spent up to now is        3.0 secs

     total energy              =     -15.76751030 Ry
     Harris-Foulkes estimate   =     -17.65811929 Ry
     estimated scf accuracy    <       6.55241801 Ry

     iteration #  4     ecut=    30.00 Ry     beta=0.70
     Davidson diagonalization with overlap
     ethr =  1.00E-02,  avg # of iterations =  1.0

     negative rho (up, down):  2.935E-02 0.000E+00

     total cpu time spent up to now is        3.0 secs

     total energy              =     -14.68587638 Ry
     Harris-Foulkes estimate   =     -16.46666932 Ry
     estimated scf accuracy    <       4.51799052 Ry

     iteration #  5     ecut=    30.00 Ry     beta=0.70
     Davidson diagonalization with overlap
     ethr =  1.00E-02,  avg # of iterations =  1.0

     negative rho (up, down):  2.408E-02 0.000E+00

     total cpu time spent up to now is        3.0 secs

     total energy              =     -14.51497957 Ry
     Harris-Foulkes estimate   =     -14.73853879 Ry
     estimated scf accuracy    <       1.50588747 Ry

     iteration #  6     ecut=    30.00 Ry     beta=0.70
     Davidson diagonalization with overlap
     ethr =  1.00E-02,  avg # of iterations =  1.0

     negative rho (up, down):  2.435E-02 0.000E+00

     total cpu time spent up to now is        3.0 secs

     total energy              =     -14.63680478 Ry
     Harris-Foulkes estimate   =     -14.55789924 Ry
     estimated scf accuracy    <       1.90911522 Ry

     iteration #  7     ecut=    30.00 Ry     beta=0.70
     Davidson diagonalization with overlap
     ethr =  1.00E-02,  avg # of iterations =  1.0

     negative rho (up, down):  2.097E-02 0.000E+00

     total cpu time spent up to now is        3.1 secs

     total energy              =     -14.37069084 Ry
     Harris-Foulkes estimate   =     -14.64717981 Ry
     estimated scf accuracy    <       2.24628651 Ry

     iteration #  8     ecut=    30.00 Ry     beta=0.70
     Davidson diagonalization with overlap
     ethr =  1.00E-02,  avg # of iterations =  1.0

     negative rho (up, down):  7.289E-03 0.000E+00

     total cpu time spent up to now is        3.1 secs

     total energy              =     -14.31614702 Ry
     Harris-Foulkes estimate   =     -14.48665494 Ry
     estimated scf accuracy    <       1.52402041 Ry

     iteration #  9     ecut=    30.00 Ry     beta=0.70
     Davidson diagonalization with overlap
     ethr =  1.00E-02,  avg # of iterations =  1.0

     negative rho (up, down):  1.172E-03 0.000E+00

     total cpu time spent up to now is        3.1 secs

     total energy              =     -14.47553784 Ry
     Harris-Foulkes estimate   =     -14.32380846 Ry
     estimated scf accuracy    <       1.14629202 Ry

     iteration # 10     ecut=    30.00 Ry     beta=0.70
     Davidson diagonalization with overlap
     ethr =  1.00E-02,  avg # of iterations =  1.0

     negative rho (up, down):  7.564E-07 0.000E+00

     total cpu time spent up to now is        3.2 secs

     total energy              =     -14.68007586 Ry
     Harris-Foulkes estimate   =     -14.47789286 Ry
     estimated scf accuracy    <       1.24484527 Ry

     iteration # 11     ecut=    30.00 Ry     beta=0.70
     Davidson diagonalization with overlap
     ethr =  1.00E-02,  avg # of iterations =  1.0

     negative rho (up, down):  5.085E-08 0.000E+00

     total cpu time spent up to now is        3.2 secs

     total energy              =     -14.50229199 Ry
     Harris-Foulkes estimate   =     -14.68913164 Ry
     estimated scf accuracy    <       1.49156296 Ry

     iteration # 12     ecut=    30.00 Ry     beta=0.70
     Davidson diagonalization with overlap
     ethr =  1.00E-02,  avg # of iterations =  1.0

     negative rho (up, down):  4.884E-08 0.000E+00

     total cpu time spent up to now is        3.2 secs

     total energy              =     -14.44150980 Ry
     Harris-Foulkes estimate   =     -14.49578311 Ry
     estimated scf accuracy    <       1.22421763 Ry

     iteration # 13     ecut=    30.00 Ry     beta=0.70
     Davidson diagonalization with overlap
     ethr =  1.00E-02,  avg # of iterations =  1.0

     negative rho (up, down):  2.866E-08 0.000E+00

     total cpu time spent up to now is        3.3 secs

     total energy              =     -14.52227909 Ry
     Harris-Foulkes estimate   =     -14.44175493 Ry
     estimated scf accuracy    <       1.14909070 Ry

     iteration # 14     ecut=    30.00 Ry     beta=0.70
     Davidson diagonalization with overlap
     ethr =  1.00E-02,  avg # of iterations =  1.0

     negative rho (up, down):  2.550E-06 0.000E+00

     total cpu time spent up to now is        3.3 secs

     total energy              =     -14.72417544 Ry
     Harris-Foulkes estimate   =     -14.53065624 Ry
     estimated scf accuracy    <       1.26139339 Ry

     iteration # 15     ecut=    30.00 Ry     beta=0.70
     Davidson diagonalization with overlap
     ethr =  1.00E-02,  avg # of iterations =  1.0

     negative rho (up, down):  9.527E-04 0.000E+00

     total cpu time spent up to now is        3.3 secs

     total energy              =     -15.35296564 Ry
     Harris-Foulkes estimate   =     -14.72548364 Ry
     estimated scf accuracy    <       1.53699053 Ry

     iteration # 16     ecut=    30.00 Ry     beta=0.70
     Davidson diagonalization with overlap
     ethr =  1.00E-02,  avg # of iterations =  1.0

     negative rho (up, down):  2.701E-03 0.000E+00

     total cpu time spent up to now is        3.4 secs

     total energy              =     -13.47970602 Ry
     Harris-Foulkes estimate   =     -15.36107285 Ry
     estimated scf accuracy    <       2.39986154 Ry

     iteration # 17     ecut=    30.00 Ry     beta=0.70
     Davidson diagonalization with overlap
     ethr =  1.00E-02,  avg # of iterations =  3.0

     negative rho (up, down):  1.869E-05 0.000E+00

     total cpu time spent up to now is        3.4 secs

     total energy              =     -15.94357439 Ry
     Harris-Foulkes estimate   =     -15.84930683 Ry
     estimated scf accuracy    <      12.25617568 Ry

     iteration # 18     ecut=    30.00 Ry     beta=0.70
     Davidson diagonalization with overlap
     ethr =  1.00E-02,  avg # of iterations =  1.0

     negative rho (up, down):  4.539E-04 0.000E+00

     total cpu time spent up to now is        3.4 secs

     total energy              =     -15.93673575 Ry
     Harris-Foulkes estimate   =     -15.95073911 Ry
     estimated scf accuracy    <      12.20606614 Ry

     iteration # 19     ecut=    30.00 Ry     beta=0.70
     Davidson diagonalization with overlap
     ethr =  1.00E-02,  avg # of iterations =  3.0

     negative rho (up, down):  4.280E-03 0.000E+00

     total cpu time spent up to now is        3.5 secs

     total energy              =     -15.93213324 Ry
     Harris-Foulkes estimate   =     -15.94542872 Ry
     estimated scf accuracy    <      12.31454562 Ry

     iteration # 20     ecut=    30.00 Ry     beta=0.70
     Davidson diagonalization with overlap
     ethr =  1.00E-02,  avg # of iterations =  1.0

     negative rho (up, down):  2.983E-02 0.000E+00

     total cpu time spent up to now is        3.5 secs

     total energy              =     -15.97766345 Ry
     Harris-Foulkes estimate   =     -15.93664198 Ry
     estimated scf accuracy    <      12.35562948 Ry

     iteration # 21     ecut=    30.00 Ry     beta=0.70
     Davidson diagonalization with overlap
     ethr =  1.00E-02,  avg # of iterations =  1.0

     negative rho (up, down):  3.259E-02 0.000E+00

     total cpu time spent up to now is        3.5 secs

     total energy              =     -16.06453767 Ry
     Harris-Foulkes estimate   =     -15.98218374 Ry
     estimated scf accuracy    <      11.94456629 Ry

     iteration # 22     ecut=    30.00 Ry     beta=0.70
     Davidson diagonalization with overlap
     ethr =  1.00E-02,  avg # of iterations =  1.0

     negative rho (up, down):  6.466E-02 0.000E+00

     total cpu time spent up to now is        3.6 secs

     total energy              =     -16.37888537 Ry
     Harris-Foulkes estimate   =     -16.06900693 Ry
     estimated scf accuracy    <      12.15574387 Ry

     iteration # 23     ecut=    30.00 Ry     beta=0.70
     Davidson diagonalization with overlap
     ethr =  1.00E-02,  avg # of iterations =  1.0

     negative rho (up, down):  3.229E-02 0.000E+00

     total cpu time spent up to now is        3.6 secs

     total energy              =     -15.98907839 Ry
     Harris-Foulkes estimate   =     -16.41729147 Ry
     estimated scf accuracy    <      18.03911421 Ry

     iteration # 24     ecut=    30.00 Ry     beta=0.70
     Davidson diagonalization with overlap
     ethr =  1.00E-02,  avg # of iterations =  1.0

     negative rho (up, down):  9.108E-02 0.000E+00

     total cpu time spent up to now is        3.7 secs

     total energy              =     -12.02453567 Ry
     Harris-Foulkes estimate   =     -16.03658840 Ry
     estimated scf accuracy    <      11.87184618 Ry

     iteration # 25     ecut=    30.00 Ry     beta=0.70
     Davidson diagonalization with overlap
     ethr =  1.00E-02,  avg # of iterations =  2.0

     negative rho (up, down):  7.822E-02 0.000E+00

     total cpu time spent up to now is        3.7 secs

     total energy              =     -14.18591589 Ry
     Harris-Foulkes estimate   =     -14.52982039 Ry
     estimated scf accuracy    <       1.31020326 Ry

     iteration # 26     ecut=    30.00 Ry     beta=0.70
     Davidson diagonalization with overlap
     ethr =  1.00E-02,  avg # of iterations =  1.0

     negative rho (up, down):  5.322E-02 0.000E+00

     total cpu time spent up to now is        3.7 secs

     total energy              =     -14.03553085 Ry
     Harris-Foulkes estimate   =     -14.18400603 Ry
     estimated scf accuracy    <       0.69654398 Ry

     iteration # 27     ecut=    30.00 Ry     beta=0.70
     Davidson diagonalization with overlap
     ethr =  8.71E-03,  avg # of iterations =  1.0

     negative rho (up, down):  3.659E-03 0.000E+00

     total cpu time spent up to now is        3.8 secs

     total energy              =     -14.40911372 Ry
     Harris-Foulkes estimate   =     -14.37658578 Ry
     estimated scf accuracy    <       1.87377170 Ry

     iteration # 28     ecut=    30.00 Ry     beta=0.70
     Davidson diagonalization with overlap
     ethr =  8.71E-03,  avg # of iterations =  1.0

     total cpu time spent up to now is        3.8 secs

     total energy              =     -14.58249454 Ry
     Harris-Foulkes estimate   =     -14.40954782 Ry
     estimated scf accuracy    <       1.91870154 Ry

     iteration # 29     ecut=    30.00 Ry     beta=0.70
     Davidson diagonalization with overlap
     ethr =  8.71E-03,  avg # of iterations =  1.0

     negative rho (up, down):  3.974E-03 0.000E+00

     total cpu time spent up to now is        3.8 secs

     total energy              =     -14.52062738 Ry
     Harris-Foulkes estimate   =     -14.58440601 Ry
     estimated scf accuracy    <       2.18675688 Ry

     iteration # 30     ecut=    30.00 Ry     beta=0.70
     Davidson diagonalization with overlap
     ethr =  8.71E-03,  avg # of iterations =  1.0

     negative rho (up, down):  9.703E-03 0.000E+00

     total cpu time spent up to now is        3.9 secs

     total energy              =     -14.53736735 Ry
     Harris-Foulkes estimate   =     -14.52109842 Ry
     estimated scf accuracy    <       2.09254988 Ry

     iteration # 31     ecut=    30.00 Ry     beta=0.70
     Davidson diagonalization with overlap
     ethr =  8.71E-03,  avg # of iterations =  1.0

     negative rho (up, down):  2.277E-02 0.000E+00

     total cpu time spent up to now is        3.9 secs

     total energy              =     -14.51247341 Ry
     Harris-Foulkes estimate   =     -14.53766118 Ry
     estimated scf accuracy    <       2.11672072 Ry

     iteration # 32     ecut=    30.00 Ry     beta=0.70
     Davidson diagonalization with overlap
     ethr =  8.71E-03,  avg # of iterations =  1.0

     negative rho (up, down):  1.805E-03 0.000E+00

     total cpu time spent up to now is        3.9 secs

     total energy              =     -14.67292111 Ry
     Harris-Foulkes estimate   =     -14.51262077 Ry
     estimated scf accuracy    <       2.07843479 Ry

     iteration # 33     ecut=    30.00 Ry     beta=0.70
     Davidson diagonalization with overlap
     ethr =  8.71E-03,  avg # of iterations =  1.0

     negative rho (up, down):  8.799E-03 0.000E+00

     total cpu time spent up to now is        4.0 secs

     total energy              =     -14.84995488 Ry
     Harris-Foulkes estimate   =     -14.67409444 Ry
     estimated scf accuracy    <       2.34788332 Ry

     iteration # 34     ecut=    30.00 Ry     beta=0.70
     Davidson diagonalization with overlap
     ethr =  8.71E-03,  avg # of iterations =  1.0

     negative rho (up, down):  2.479E-02 0.000E+00

     total cpu time spent up to now is        4.0 secs

     total energy              =     -14.75086835 Ry
     Harris-Foulkes estimate   =     -14.85223019 Ry
     estimated scf accuracy    <       2.63623438 Ry

     iteration # 35     ecut=    30.00 Ry     beta=0.70
     Davidson diagonalization with overlap
     ethr =  8.71E-03,  avg # of iterations =  1.0

     negative rho (up, down):  7.678E-02 0.000E+00

     total cpu time spent up to now is        4.0 secs

     total energy              =     -12.84257689 Ry
     Harris-Foulkes estimate   =     -14.75151301 Ry
     estimated scf accuracy    <       2.46202398 Ry

     iteration # 36     ecut=    30.00 Ry     beta=0.70
     Davidson diagonalization with overlap
     ethr =  8.71E-03,  avg # of iterations =  4.0

     negative rho (up, down):  4.448E-03 0.000E+00

     total cpu time spent up to now is        4.1 secs

     total energy              =     -14.57813144 Ry
     Harris-Foulkes estimate   =     -16.36240196 Ry
     estimated scf accuracy    <       3.77875787 Ry

     iteration # 37     ecut=    30.00 Ry     beta=0.70
     Davidson diagonalization with overlap
     ethr =  8.71E-03,  avg # of iterations =  3.0

     negative rho (up, down):  2.310E-03 0.000E+00

     total cpu time spent up to now is        4.1 secs

     total energy              =     -14.32220853 Ry
     Harris-Foulkes estimate   =     -14.63023001 Ry
     estimated scf accuracy    <       1.40700724 Ry

     iteration # 38     ecut=    30.00 Ry     beta=0.70
     Davidson diagonalization with overlap
     ethr =  8.71E-03,  avg # of iterations =  1.0

     negative rho (up, down):  1.279E-03 0.000E+00

     total cpu time spent up to now is        4.1 secs

     total energy              =     -14.22577431 Ry
     Harris-Foulkes estimate   =     -14.31901255 Ry
     estimated scf accuracy    <       0.96185764 Ry

     iteration # 39     ecut=    30.00 Ry     beta=0.70
     Davidson diagonalization with overlap
     ethr =  8.71E-03,  avg # of iterations =  1.0

     negative rho (up, down):  1.083E-03 0.000E+00

     total cpu time spent up to now is        4.2 secs

     total energy              =     -14.09537208 Ry
     Harris-Foulkes estimate   =     -14.22622980 Ry
     estimated scf accuracy    <       0.82843253 Ry

     iteration # 40     ecut=    30.00 Ry     beta=0.70
     Davidson diagonalization with overlap
     ethr =  8.71E-03,  avg # of iterations =  1.0

     negative rho (up, down):  1.477E-03 0.000E+00

     total cpu time spent up to now is        4.2 secs

     total energy              =     -14.25190576 Ry
     Harris-Foulkes estimate   =     -14.27373620 Ry
     estimated scf accuracy    <       1.63982017 Ry

     iteration # 41     ecut=    30.00 Ry     beta=0.70
     Davidson diagonalization with overlap
     ethr =  8.71E-03,  avg # of iterations =  1.0

     negative rho (up, down):  1.103E-03 0.000E+00

     total cpu time spent up to now is        4.2 secs

     total energy              =     -14.27922901 Ry
     Harris-Foulkes estimate   =     -14.25206134 Ry
     estimated scf accuracy    <       1.66905422 Ry

     iteration # 42     ecut=    30.00 Ry     beta=0.70
     Davidson diagonalization with overlap
     ethr =  8.71E-03,  avg # of iterations =  1.0

     negative rho (up, down):  1.073E-04 0.000E+00

     total cpu time spent up to now is        4.3 secs

     total energy              =     -14.25554213 Ry
     Harris-Foulkes estimate   =     -14.27896020 Ry
     estimated scf accuracy    <       1.65596712 Ry

     iteration # 43     ecut=    30.00 Ry     beta=0.70
     Davidson diagonalization with overlap
     ethr =  8.71E-03,  avg # of iterations =  1.0

     negative rho (up, down):  4.840E-06 0.000E+00

     total cpu time spent up to now is        4.3 secs

     total energy              =     -14.04705663 Ry
     Harris-Foulkes estimate   =     -14.25549479 Ry
     estimated scf accuracy    <       1.66256229 Ry

     iteration # 44     ecut=    30.00 Ry     beta=0.70
     Davidson diagonalization with overlap
     ethr =  8.71E-03,  avg # of iterations =  1.0

     negative rho (up, down):  1.914E-05 0.000E+00

     total cpu time spent up to now is        4.3 secs

     total energy              =     -14.21668631 Ry
     Harris-Foulkes estimate   =     -14.25519224 Ry
     estimated scf accuracy    <       0.87010718 Ry

     iteration # 45     ecut=    30.00 Ry     beta=0.70
     Davidson diagonalization with overlap
     ethr =  8.71E-03,  avg # of iterations =  1.0

     negative rho (up, down):  2.688E-05 0.000E+00

     total cpu time spent up to now is        4.4 secs

     total energy              =     -14.16929548 Ry
     Harris-Foulkes estimate   =     -14.21679035 Ry
     estimated scf accuracy    <       0.81444758 Ry

     iteration # 46     ecut=    30.00 Ry     beta=0.70
     Davidson diagonalization with overlap
     ethr =  8.71E-03,  avg # of iterations =  1.0

     negative rho (up, down):  4.112E-05 0.000E+00

     total cpu time spent up to now is        4.4 secs

     total energy              =     -14.17732763 Ry
     Harris-Foulkes estimate   =     -14.18049745 Ry
     estimated scf accuracy    <       0.00527871 Ry

     iteration # 47     ecut=    30.00 Ry     beta=0.70
     Davidson diagonalization with overlap
     ethr =  6.60E-05,  avg # of iterations =  8.0

     negative rho (up, down):  4.500E-06 0.000E+00

     total cpu time spent up to now is        4.5 secs

     total energy              =     -14.17683355 Ry
     Harris-Foulkes estimate   =     -14.23413441 Ry
     estimated scf accuracy    <       1.86900232 Ry

     iteration # 48     ecut=    30.00 Ry     beta=0.70
     Davidson diagonalization with overlap
     ethr =  6.60E-05,  avg # of iterations =  1.0

     negative rho (up, down):  1.835E-08 0.000E+00

     total cpu time spent up to now is        4.5 secs

     total energy              =     -14.17268954 Ry
     Harris-Foulkes estimate   =     -14.18399880 Ry
     estimated scf accuracy    <       0.31167036 Ry

     iteration # 49     ecut=    30.00 Ry     beta=0.70
     Davidson diagonalization with overlap
     ethr =  6.60E-05,  avg # of iterations =  1.0

     negative rho (up, down):  2.351E-08 0.000E+00

     total cpu time spent up to now is        4.6 secs

     total energy              =     -14.17471090 Ry
     Harris-Foulkes estimate   =     -14.18157244 Ry
     estimated scf accuracy    <       0.08174775 Ry

     iteration # 50     ecut=    30.00 Ry     beta=0.70
     Davidson diagonalization with overlap
     ethr =  6.60E-05,  avg # of iterations =  1.0

     total cpu time spent up to now is        4.6 secs

     total energy              =     -14.19216192 Ry
     Harris-Foulkes estimate   =     -14.18683968 Ry
     estimated scf accuracy    <       0.54952390 Ry

     iteration # 51     ecut=    30.00 Ry     beta=0.70
     Davidson diagonalization with overlap
     ethr =  6.60E-05,  avg # of iterations =  1.0

     total cpu time spent up to now is        4.6 secs

     total energy              =     -14.16848306 Ry
     Harris-Foulkes estimate   =     -14.19320012 Ry
     estimated scf accuracy    <       1.05261788 Ry

     iteration # 52     ecut=    30.00 Ry     beta=0.70
     Davidson diagonalization with overlap
     ethr =  6.60E-05,  avg # of iterations =  1.0

     total cpu time spent up to now is        4.7 secs

     total energy              =     -14.18045526 Ry
     Harris-Foulkes estimate   =     -14.18045760 Ry
     estimated scf accuracy    <       0.00006245 Ry

     iteration # 53     ecut=    30.00 Ry     beta=0.70
     Davidson diagonalization with overlap
     ethr =  7.81E-07,  avg # of iterations =  4.0

     total cpu time spent up to now is        4.7 secs

     total energy              =     -14.18046275 Ry
     Harris-Foulkes estimate   =     -14.18045649 Ry
     estimated scf accuracy    <       0.00001858 Ry

     iteration # 54     ecut=    30.00 Ry     beta=0.70
     Davidson diagonalization with overlap
     ethr =  2.32E-07,  avg # of iterations =  2.0

     total cpu time spent up to now is        4.7 secs

     total energy              =     -14.18323563 Ry
     Harris-Foulkes estimate   =     -14.18322675 Ry
     estimated scf accuracy    <       0.18837279 Ry

     iteration # 55     ecut=    30.00 Ry     beta=0.70
     Davidson diagonalization with overlap
     ethr =  2.32E-07,  avg # of iterations =  1.0

     total cpu time spent up to now is        4.8 secs

     total energy              =     -14.18312761 Ry
     Harris-Foulkes estimate   =     -14.18323580 Ry
     estimated scf accuracy    <       0.18904197 Ry

     iteration # 56     ecut=    30.00 Ry     beta=0.70
     Davidson diagonalization with overlap
     ethr =  2.32E-07,  avg # of iterations =  1.0

     total cpu time spent up to now is        4.8 secs

     total energy              =     -14.17842900 Ry
     Harris-Foulkes estimate   =     -14.18312867 Ry
     estimated scf accuracy    <       0.18255198 Ry

     iteration # 57     ecut=    30.00 Ry     beta=0.70
     Davidson diagonalization with overlap
     ethr =  2.32E-07,  avg # of iterations =  2.0

     total cpu time spent up to now is        4.8 secs

     total energy              =     -14.18036629 Ry
     Harris-Foulkes estimate   =     -14.18047366 Ry
     estimated scf accuracy    <       0.00114782 Ry

     iteration # 58     ecut=    30.00 Ry     beta=0.70
     Davidson diagonalization with overlap
     ethr =  2.32E-07,  avg # of iterations =  2.0

     total cpu time spent up to now is        4.9 secs

     total energy              =     -14.18065046 Ry
     Harris-Foulkes estimate   =     -14.18062718 Ry
     estimated scf accuracy    <       0.01305565 Ry

     iteration # 59     ecut=    30.00 Ry     beta=0.70
     Davidson diagonalization with overlap
     ethr =  2.32E-07,  avg # of iterations =  1.0

     total cpu time spent up to now is        4.9 secs

     total energy              =     -14.18059024 Ry
     Harris-Foulkes estimate   =     -14.18065124 Ry
     estimated scf accuracy    <       0.01496644 Ry

     iteration # 60     ecut=    30.00 Ry     beta=0.70
     Davidson diagonalization with overlap
     ethr =  2.32E-07,  avg # of iterations =  1.0

     total cpu time spent up to now is        4.9 secs

     total energy              =     -14.18029814 Ry
     Harris-Foulkes estimate   =     -14.18059455 Ry
     estimated scf accuracy    <       0.01081279 Ry

     iteration # 61     ecut=    30.00 Ry     beta=0.70
     Davidson diagonalization with overlap
     ethr =  2.32E-07,  avg # of iterations =  2.0

     total cpu time spent up to now is        5.0 secs

     total energy              =     -14.18045304 Ry
     Harris-Foulkes estimate   =     -14.18045502 Ry
     estimated scf accuracy    <       0.00009344 Ry

     iteration # 62     ecut=    30.00 Ry     beta=0.70
     Davidson diagonalization with overlap
     ethr =  2.32E-07,  avg # of iterations =  1.0

     total cpu time spent up to now is        5.0 secs

     total energy              =     -14.18045439 Ry
     Harris-Foulkes estimate   =     -14.18045428 Ry
     estimated scf accuracy    <       0.00000011 Ry

     iteration # 63     ecut=    30.00 Ry     beta=0.70
     Davidson diagonalization with overlap
     ethr =  1.34E-09,  avg # of iterations =  1.0

     total cpu time spent up to now is        5.0 secs

     total energy              =     -14.18045443 Ry
     Harris-Foulkes estimate   =     -14.18045439 Ry
     estimated scf accuracy    <       0.00000005 Ry

     iteration # 64     ecut=    30.00 Ry     beta=0.70
     Davidson diagonalization with overlap
     ethr =  5.96E-10,  avg # of iterations =  1.0

     total cpu time spent up to now is        5.1 secs

     total energy              =     -14.18045443 Ry
     Harris-Foulkes estimate   =     -14.18045443 Ry
     estimated scf accuracy    <       0.00000003 Ry

     iteration # 65     ecut=    30.00 Ry     beta=0.70
     Davidson diagonalization with overlap
     ethr =  3.63E-10,  avg # of iterations =  1.0

     total cpu time spent up to now is        5.1 secs

     End of self-consistent calculation

          k = 0.0000 0.0000 0.0000 ( 22119 PWs)   bands (ev):

   -29.5096 -10.2496  -7.9754  -7.9750  -7.8000  -0.2959   0.5758   0.6958

     the Fermi energy is    -7.7927 ev

!    total energy              =     -14.18045443 Ry
     Harris-Foulkes estimate   =     -14.18045443 Ry
     estimated scf accuracy    <          1.6E-09 Ry

     convergence has been achieved in  65 iterations

     Forces acting on atoms (Ry/au):

     atom    1 type  1   force =    44.98792958   62.40980414   -0.02421741
     atom    2 type  1   force =    -0.00090758   -0.00112077   -0.00068787
     atom    3 type  2   force =   -44.98702201  -62.40868336    0.02490528

     Total force =   108.800618     Total SCF correction =     0.000006

     Entering Dynamics:    iteration =     3
                           time      =   0.0145 pico-seconds


     Andersen thermostat:    3 collisions

ATOMIC_POSITIONS (bohr)
H      498.665061971 694.462240106  15.455836229
H       17.255404449   5.712334391  18.767162173
O      -21.360979158 -26.312056202  15.620678013


     kinetic energy (Ekin) =  8540.70537918 Ry
     temperature           = ************** K 
     Ekin + Etot (const)   =  8526.52492476 Ry
     Message from routine dynamics:
     Total linear momentum <> 0

     Linear momentum :    0.3047675616   -0.3500624036   -0.1369358232

     Writing output data file pwscf.save

     second order wave-functions extrapolation
     Check: negative starting charge=   -0.358818
     second order charge density extrapolation
     Check: negative starting charge=   -0.347666

     negative rho (up, down):  3.039E+02 0.000E+00

     total cpu time spent up to now is        5.5 secs

     per-process dynamical memory:    20.4 Mb

     Self-consistent Calculation

     iteration #  1     ecut=    30.00 Ry     beta=0.70
     Davidson diagonalization with overlap
     c_bands:  4 eigenvalues not converged
     ethr =  1.00E-06,  avg # of iterations = 40.0

     negative rho (up, down):  9.060E+01 0.000E+00

     total cpu time spent up to now is        5.8 secs

     total energy              =   -2384.04523198 Ry
     Harris-Foulkes estimate   =  -64937.70431485 Ry
     estimated scf accuracy    <   25260.78647211 Ry

     iteration #  2     ecut=    30.00 Ry     beta=0.70
     Davidson diagonalization with overlap
     ethr =  1.00E-02,  avg # of iterations = 20.0

     negative rho (up, down):  8.592E-02 0.000E+00

     total cpu time spent up to now is        5.9 secs

     total energy              =     174.75394774 Ry
     Harris-Foulkes estimate   =  -23415.76056539 Ry
     estimated scf accuracy    <    2380.03328307 Ry

     iteration #  3     ecut=    30.00 Ry     beta=0.70
     Davidson diagonalization with overlap
     ethr =  1.00E-02,  avg # of iterations = 13.0

     negative rho (up, down):  1.431E-06 0.000E+00

     total cpu time spent up to now is        6.0 secs

     total energy              =      40.22260571 Ry
     Harris-Foulkes estimate   =    -349.06152273 Ry
     estimated scf accuracy    <      55.10427970 Ry

     iteration #  4     ecut=    30.00 Ry     beta=0.70
     Davidson diagonalization with overlap
     ethr =  1.00E-02,  avg # of iterations =  5.0

     negative rho (up, down):  6.375E-02 0.000E+00

     total cpu time spent up to now is        6.0 secs

     total energy              =     -55.86377256 Ry
     Harris-Foulkes estimate   =     -71.03112738 Ry
     estimated scf accuracy    <      54.81931191 Ry

     iteration #  5     ecut=    30.00 Ry     beta=0.70
     Davidson diagonalization with overlap
     ethr =  1.00E-02,  avg # of iterations =  2.0

     negative rho (up, down):  1.129E+00 0.000E+00

     total cpu time spent up to now is        6.1 secs

     total energy              =     -25.64357434 Ry
     Harris-Foulkes estimate   =     -55.99230133 Ry
     estimated scf accuracy    <      35.99958225 Ry

     iteration #  6     ecut=    30.00 Ry     beta=0.70
     Davidson diagonalization with overlap
     ethr =  1.00E-02,  avg # of iterations = 10.0

     negative rho (up, down):  8.286E-01 0.000E+00

     total cpu time spent up to now is        6.1 secs

     total energy              =    -111.72818919 Ry
     Harris-Foulkes estimate   =    -112.12304748 Ry
     estimated scf accuracy    <     108.09089752 Ry

     iteration #  7     ecut=    30.00 Ry     beta=0.70
     Davidson diagonalization with overlap
     ethr =  1.00E-02,  avg # of iterations =  7.0

     negative rho (up, down):  7.870E-01 0.000E+00

     total cpu time spent up to now is        6.2 secs

     total energy              =      51.93144392 Ry
     Harris-Foulkes estimate   =    -701.55096370 Ry
     estimated scf accuracy    <     106.31370837 Ry

     iteration #  8     ecut=    30.00 Ry     beta=0.70
     Davidson diagonalization with overlap
     ethr =  1.00E-02,  avg # of iterations =  6.0

     negative rho (up, down):  7.151E-01 0.000E+00

     total cpu time spent up to now is        6.2 secs

     total energy              =   -1886.58589724 Ry
     Harris-Foulkes estimate   =    -298.55318110 Ry
     estimated scf accuracy    <     112.37842466 Ry

     iteration #  9     ecut=    30.00 Ry     beta=0.70
     Davidson diagonalization with overlap
     ethr =  1.00E-02,  avg # of iterations =  6.0

     negative rho (up, down):  6.555E-01 0.000E+00

     total cpu time spent up to now is        6.3 secs

     total energy              =   -3132.85561233 Ry
     Harris-Foulkes estimate   =   -5003.83505975 Ry
     estimated scf accuracy    <     102.99996231 Ry

     iteration # 10     ecut=    30.00 Ry     beta=0.70
     Davidson diagonalization with overlap
     ethr =  1.00E-02,  avg # of iterations =  6.0

     negative rho (up, down):  7.598E-01 0.000E+00

     total cpu time spent up to now is        6.3 secs

     total energy              =      47.82631735 Ry
     Harris-Foulkes estimate   =   -4329.68499857 Ry
     estimated scf accuracy    <      91.96088798 Ry

     iteration # 11     ecut=    30.00 Ry     beta=0.70
     Davidson diagonalization with overlap
     ethr =  1.00E-02,  avg # of iterations =  7.0

     negative rho (up, down):  8.007E-01 0.000E+00

     total cpu time spent up to now is        6.4 secs

     total energy              =    -100.46125744 Ry
     Harris-Foulkes estimate   =     -54.33009667 Ry
     estimated scf accuracy    <      76.63694587 Ry

     iteration # 12     ecut=    30.00 Ry     beta=0.70
     Davidson diagonalization with overlap
     ethr =  1.00E-02,  avg # of iterations =  8.0

     negative rho (up, down):  4.447E-01 0.000E+00

     total cpu time spent up to now is        6.4 secs

     total energy              =    -385.49823199 Ry
     Harris-Foulkes estimate   =    -678.52813063 Ry
     estimated scf accuracy    <      97.80675145 Ry

     iteration # 13     ecut=    30.00 Ry     beta=0.70
     Davidson diagonalization with overlap
     ethr =  1.00E-02,  avg # of iterations =  9.0

     negative rho (up, down):  2.121E-02 0.000E+00

     total cpu time spent up to now is        6.5 secs

     total energy              =     103.39815723 Ry
     Harris-Foulkes estimate   =   -2526.33872474 Ry
     estimated scf accuracy    <      80.96911018 Ry

     iteration # 14     ecut=    30.00 Ry     beta=0.70
     Davidson diagonalization with overlap
     ethr =  1.00E-02,  avg # of iterations =  8.0

     negative rho (up, down):  8.578E-01 0.000E+00

     total cpu time spent up to now is        6.6 secs

     total energy              =     -16.57786359 Ry
     Harris-Foulkes estimate   =     -51.88478482 Ry
     estimated scf accuracy    <      11.76502017 Ry

     iteration # 15     ecut=    30.00 Ry     beta=0.70
     Davidson diagonalization with overlap
     ethr =  1.00E-02,  avg # of iterations =  6.0

     negative rho (up, down):  9.717E-01 0.000E+00

     total cpu time spent up to now is        6.6 secs

     total energy              =   28178.62294740 Ry
     Harris-Foulkes estimate   =   -2503.79056876 Ry
     estimated scf accuracy    <      48.10801070 Ry

     iteration # 16     ecut=    30.00 Ry     beta=0.70
     Davidson diagonalization with overlap
     ethr =  1.00E-02,  avg # of iterations =  8.0

     negative rho (up, down):  9.067E-01 0.000E+00

     total cpu time spent up to now is        6.7 secs

     total energy              =     988.22500709 Ry
     Harris-Foulkes estimate   =    -771.42643992 Ry
     estimated scf accuracy    <      39.11447606 Ry

     iteration # 17     ecut=    30.00 Ry     beta=0.70
     Davidson diagonalization with overlap
     ethr =  1.00E-02,  avg # of iterations = 12.0

     negative rho (up, down):  1.047E+00 0.000E+00

     total cpu time spent up to now is        6.7 secs

     total energy              =    -556.25352709 Ry
     Harris-Foulkes estimate   =   -3104.97393346 Ry
     estimated scf accuracy    <      32.57379750 Ry

     iteration # 18     ecut=    30.00 Ry     beta=0.70
     Davidson diagonalization with overlap
     ethr =  1.00E-02,  avg # of iterations =  9.0

     negative rho (up, down):  1.182E+00 0.000E+00

     total cpu time spent up to now is        6.8 secs

     total energy              =     139.92903997 Ry
     Harris-Foulkes estimate   =   -6572.27225011 Ry
     estimated scf accuracy    <      30.01284874 Ry

     iteration # 19     ecut=    30.00 Ry     beta=0.70
     Davidson diagonalization with overlap
     ethr =  1.00E-02,  avg # of iterations =  9.0

     negative rho (up, down):  1.114E+00 0.000E+00

     total cpu time spent up to now is        6.8 secs

     total energy              =     116.92995241 Ry
     Harris-Foulkes estimate   =    -886.56489524 Ry
     estimated scf accuracy    <      39.39999675 Ry

     iteration # 20     ecut=    30.00 Ry     beta=0.70
     Davidson diagonalization with overlap
     ethr =  1.00E-02,  avg # of iterations =  9.0

     negative rho (up, down):  7.088E-01 0.000E+00

     total cpu time spent up to now is        6.9 secs

     total energy              =     105.97693484 Ry
     Harris-Foulkes estimate   =   -1363.85371948 Ry
     estimated scf accuracy    <      28.46134131 Ry

     iteration # 21     ecut=    30.00 Ry     beta=0.70
     Davidson diagonalization with overlap
     ethr =  1.00E-02,  avg # of iterations =  8.0

     negative rho (up, down):  2.406E-01 0.000E+00

     total cpu time spent up to now is        7.0 secs

     total energy              =    -273.21307197 Ry
     Harris-Foulkes estimate   =   -2323.47631069 Ry
     estimated scf accuracy    <      13.20662484 Ry

     iteration # 22     ecut=    30.00 Ry     beta=0.70
     Davidson diagonalization with overlap
     ethr =  1.00E-02,  avg # of iterations =  6.0

     negative rho (up, down):  1.260E-01 0.000E+00

     total cpu time spent up to now is        7.0 secs

     total energy              =      59.76033910 Ry
     Harris-Foulkes estimate   =   -1488.85627381 Ry
     estimated scf accuracy    <      32.01087911 Ry

     iteration # 23     ecut=    30.00 Ry     beta=0.70
     Davidson diagonalization with overlap
     ethr =  1.00E-02,  avg # of iterations =  5.0

     negative rho (up, down):  3.631E-01 0.000E+00

     total cpu time spent up to now is        7.1 secs

     total energy              =     -45.47150590 Ry
     Harris-Foulkes estimate   =    -553.60780692 Ry
     estimated scf accuracy    <      32.89342162 Ry

     iteration # 24     ecut=    30.00 Ry     beta=0.70
     Davidson diagonalization with overlap
     ethr =  1.00E-02,  avg # of iterations =  9.0

     negative rho (up, down):  4.434E-01 0.000E+00

     total cpu time spent up to now is        7.1 secs

     total energy              =    2150.05444717 Ry
     Harris-Foulkes estimate   =   -3155.95079226 Ry
     estimated scf accuracy    <      29.70398768 Ry

     iteration # 25     ecut=    30.00 Ry     beta=0.70
     Davidson diagonalization with overlap
     ethr =  1.00E-02,  avg # of iterations =  8.0

     negative rho (up, down):  5.844E-01 0.000E+00

     total cpu time spent up to now is        7.2 secs

     total energy              =     122.29915067 Ry
     Harris-Foulkes estimate   =   -1229.60559815 Ry
     estimated scf accuracy    <      28.96535402 Ry

     iteration # 26     ecut=    30.00 Ry     beta=0.70
     Davidson diagonalization with overlap
     ethr =  1.00E-02,  avg # of iterations =  9.0

     negative rho (up, down):  5.887E-01 0.000E+00

     total cpu time spent up to now is        7.2 secs

     total energy              =     104.07466118 Ry
     Harris-Foulkes estimate   =    -300.45701709 Ry
     estimated scf accuracy    <      30.40956972 Ry

     iteration # 27     ecut=    30.00 Ry     beta=0.70
     Davidson diagonalization with overlap
     ethr =  1.00E-02,  avg # of iterations =  6.0

     negative rho (up, down):  4.458E-01 0.000E+00

     total cpu time spent up to now is        7.3 secs

     total energy              =     -18.08576405 Ry
     Harris-Foulkes estimate   =   -1637.06933219 Ry
     estimated scf accuracy    <      26.41085663 Ry

     iteration # 28     ecut=    30.00 Ry     beta=0.70
     Davidson diagonalization with overlap
     ethr =  1.00E-02,  avg # of iterations =  8.0

     negative rho (up, down):  1.436E-01 0.000E+00

     total cpu time spent up to now is        7.4 secs

     total energy              =      62.16551505 Ry
     Harris-Foulkes estimate   =    -502.68095102 Ry
     estimated scf accuracy    <      32.99517065 Ry

     iteration # 29     ecut=    30.00 Ry     beta=0.70
     Davidson diagonalization with overlap
     ethr =  1.00E-02,  avg # of iterations =  8.0

     negative rho (up, down):  3.275E-01 0.000E+00

     total cpu time spent up to now is        7.4 secs

     total energy              =      84.59846603 Ry
     Harris-Foulkes estimate   =    -370.97317400 Ry
     estimated scf accuracy    <      24.58336031 Ry

     iteration # 30     ecut=    30.00 Ry     beta=0.70
     Davidson diagonalization with overlap
     ethr =  1.00E-02,  avg # of iterations =  8.0

     negative rho (up, down):  1.927E-01 0.000E+00

     total cpu time spent up to now is        7.5 secs

     total energy              =    -335.89259156 Ry
     Harris-Foulkes estimate   =    -488.49459972 Ry
     estimated scf accuracy    <      25.53118875 Ry

     iteration # 31     ecut=    30.00 Ry     beta=0.70
     Davidson diagonalization with overlap
     ethr =  1.00E-02,  avg # of iterations =  8.0

     negative rho (up, down):  2.633E-01 0.000E+00

     total cpu time spent up to now is        7.5 secs

     total energy              =     151.70530765 Ry
     Harris-Foulkes estimate   =   -4230.38473081 Ry
     estimated scf accuracy    <      28.57513395 Ry

     iteration # 32     ecut=    30.00 Ry     beta=0.70
     Davidson diagonalization with overlap
     ethr =  1.00E-02,  avg # of iterations =  7.0

     negative rho (up, down):  8.500E-01 0.000E+00

     total cpu time spent up to now is        7.6 secs

     total energy              =    -925.06055581 Ry
     Harris-Foulkes estimate   =   -1097.14035982 Ry
     estimated scf accuracy    <      28.02446236 Ry

     iteration # 33     ecut=    30.00 Ry     beta=0.70
     Davidson diagonalization with overlap
     ethr =  1.00E-02,  avg # of iterations =  7.0

     negative rho (up, down):  6.597E-01 0.000E+00

     total cpu time spent up to now is        7.6 secs

     total energy              =     128.00604481 Ry
     Harris-Foulkes estimate   =   -2178.02212940 Ry
     estimated scf accuracy    <      17.51474396 Ry

     iteration # 34     ecut=    30.00 Ry     beta=0.70
     Davidson diagonalization with overlap
     ethr =  1.00E-02,  avg # of iterations =  9.0

     negative rho (up, down):  6.392E-01 0.000E+00

     total cpu time spent up to now is        7.7 secs

     total energy              =      58.23314621 Ry
     Harris-Foulkes estimate   =   -1012.17112755 Ry
     estimated scf accuracy    <      27.38978734 Ry

     iteration # 35     ecut=    30.00 Ry     beta=0.70
     Davidson diagonalization with overlap
     ethr =  1.00E-02,  avg # of iterations =  6.0

     negative rho (up, down):  6.287E-01 0.000E+00

     total cpu time spent up to now is        7.7 secs

     total energy              =     158.56135013 Ry
     Harris-Foulkes estimate   =   -4285.96812509 Ry
     estimated scf accuracy    <      32.59971484 Ry

     iteration # 36     ecut=    30.00 Ry     beta=0.70
     Davidson diagonalization with overlap
     ethr =  1.00E-02,  avg # of iterations = 13.0

     negative rho (up, down):  6.653E-01 0.000E+00

     total cpu time spent up to now is        7.8 secs

     total energy              =   -3164.15197221 Ry
     Harris-Foulkes estimate   =    -336.35466661 Ry
     estimated scf accuracy    <      26.75505570 Ry

     iteration # 37     ecut=    30.00 Ry     beta=0.70
     Davidson diagonalization with overlap
     ethr =  1.00E-02,  avg # of iterations = 10.0

     negative rho (up, down):  4.818E-02 0.000E+00

     total cpu time spent up to now is        7.9 secs

     total energy              =     159.86225735 Ry
     Harris-Foulkes estimate   =   -7993.11546032 Ry
     estimated scf accuracy    <      18.34709642 Ry

     iteration # 38     ecut=    30.00 Ry     beta=0.70
     Davidson diagonalization with overlap
     ethr =  1.00E-02,  avg # of iterations = 10.0

     negative rho (up, down):  4.689E-02 0.000E+00

     total cpu time spent up to now is        7.9 secs

     total energy              =     -78.46001964 Ry
     Harris-Foulkes estimate   =     -91.41614271 Ry
     estimated scf accuracy    <      80.46833334 Ry

     iteration # 39     ecut=    30.00 Ry     beta=0.70
     Davidson diagonalization with overlap
     ethr =  1.00E-02,  avg # of iterations =  3.0

     negative rho (up, down):  3.879E-02 0.000E+00

     total cpu time spent up to now is        8.0 secs

     total energy              =     -15.94133051 Ry
     Harris-Foulkes estimate   =   -1152.31639844 Ry
     estimated scf accuracy    <      36.52258148 Ry

     iteration # 40     ecut=    30.00 Ry     beta=0.70
     Davidson diagonalization with overlap
     ethr =  1.00E-02,  avg # of iterations =  6.0

     negative rho (up, down):  1.395E-02 0.000E+00

     total cpu time spent up to now is        8.0 secs

     total energy              =     -34.50553974 Ry
     Harris-Foulkes estimate   =    -120.33134958 Ry
     estimated scf accuracy    <      39.85353390 Ry

     iteration # 41     ecut=    30.00 Ry     beta=0.70
     Davidson diagonalization with overlap
     ethr =  1.00E-02,  avg # of iterations =  4.0

     negative rho (up, down):  1.068E-01 0.000E+00

     total cpu time spent up to now is        8.0 secs

     total energy              =     -40.37546966 Ry
     Harris-Foulkes estimate   =    -164.69545729 Ry
     estimated scf accuracy    <      65.48399284 Ry

     iteration # 42     ecut=    30.00 Ry     beta=0.70
     Davidson diagonalization with overlap
     ethr =  1.00E-02,  avg # of iterations =  8.0

     negative rho (up, down):  5.741E-03 0.000E+00

     total cpu time spent up to now is        8.1 secs

     total energy              =     108.65689616 Ry
     Harris-Foulkes estimate   =   -1118.18117730 Ry
     estimated scf accuracy    <      27.85465999 Ry

     iteration # 43     ecut=    30.00 Ry     beta=0.70
     Davidson diagonalization with overlap
     ethr =  1.00E-02,  avg # of iterations =  8.0

     negative rho (up, down):  3.965E-02 0.000E+00

     total cpu time spent up to now is        8.2 secs

     total energy              =     -56.77592583 Ry
     Harris-Foulkes estimate   =     -70.22746698 Ry
     estimated scf accuracy    <      49.89491706 Ry

     iteration # 44     ecut=    30.00 Ry     beta=0.70
     Davidson diagonalization with overlap
     ethr =  1.00E-02,  avg # of iterations =  5.0

     negative rho (up, down):  1.745E-02 0.000E+00

     total cpu time spent up to now is        8.2 secs

     total energy              =      38.31058630 Ry
     Harris-Foulkes estimate   =    -382.13850042 Ry
     estimated scf accuracy    <      19.63465264 Ry

     iteration # 45     ecut=    30.00 Ry     beta=0.70
     Davidson diagonalization with overlap
     ethr =  1.00E-02,  avg # of iterations =  5.0

     negative rho (up, down):  8.451E-02 0.000E+00

     total cpu time spent up to now is        8.3 secs

     total energy              =     -47.59497715 Ry
     Harris-Foulkes estimate   =     -57.50750883 Ry
     estimated scf accuracy    <      38.10593542 Ry

     iteration # 46     ecut=    30.00 Ry     beta=0.70
     Davidson diagonalization with overlap
     ethr =  1.00E-02,  avg # of iterations =  9.0

     negative rho (up, down):  2.746E-01 0.000E+00

     total cpu time spent up to now is        8.3 secs

     total energy              =     -46.64526564 Ry
     Harris-Foulkes estimate   =    -171.34715522 Ry
     estimated scf accuracy    <      22.71169478 Ry

     iteration # 47     ecut=    30.00 Ry     beta=0.70
     Davidson diagonalization with overlap
     ethr =  1.00E-02,  avg # of iterations = 11.0

     negative rho (up, down):  7.112E-02 0.000E+00

     total cpu time spent up to now is        8.4 secs

     total energy              =     149.43328294 Ry
     Harris-Foulkes estimate   =    -644.87718417 Ry
     estimated scf accuracy    <      52.21245323 Ry

     iteration # 48     ecut=    30.00 Ry     beta=0.70
     Davidson diagonalization with overlap
     ethr =  1.00E-02,  avg # of iterations = 10.0

     negative rho (up, down):  1.448E-01 0.000E+00

     total cpu time spent up to now is        8.5 secs

     total energy              =     -11.06354986 Ry
     Harris-Foulkes estimate   =     -74.76158772 Ry
     estimated scf accuracy    <      19.28174959 Ry

     iteration # 49     ecut=    30.00 Ry     beta=0.70
     Davidson diagonalization with overlap
     ethr =  1.00E-02,  avg # of iterations =  6.0

     negative rho (up, down):  2.081E-01 0.000E+00

     total cpu time spent up to now is        8.5 secs

     total energy              =    -404.75481734 Ry
     Harris-Foulkes estimate   =     -61.94583884 Ry
     estimated scf accuracy    <      18.85177030 Ry

     iteration # 50     ecut=    30.00 Ry     beta=0.70
     Davidson diagonalization with overlap
     ethr =  1.00E-02,  avg # of iterations =  7.0

     negative rho (up, down):  2.469E-01 0.000E+00

     total cpu time spent up to now is        8.6 secs

     total energy              =      -0.40880339 Ry
     Harris-Foulkes estimate   =   -2064.22656377 Ry
     estimated scf accuracy    <      39.64891868 Ry

     iteration # 51     ecut=    30.00 Ry     beta=0.70
     Davidson diagonalization with overlap
     ethr =  1.00E-02,  avg # of iterations =  5.0

     negative rho (up, down):  3.354E-01 0.000E+00

     total cpu time spent up to now is        8.6 secs

     total energy              =      13.80956896 Ry
     Harris-Foulkes estimate   =    -329.28679806 Ry
     estimated scf accuracy    <      26.91653700 Ry

     iteration # 52     ecut=    30.00 Ry     beta=0.70
     Davidson diagonalization with overlap
     ethr =  1.00E-02,  avg # of iterations =  4.0

     negative rho (up, down):  4.687E-01 0.000E+00

     total cpu time spent up to now is        8.7 secs

     total energy              =      41.20917948 Ry
[...]

     total energy              =      54.63978357 Ry
     Harris-Foulkes estimate   =    -120.40684792 Ry
     estimated scf accuracy    <      23.92675162 Ry

     iteration # 59     ecut=    30.00 Ry     beta=0.70
     Davidson diagonalization with overlap
     ethr =  1.00E-02,  avg # of iterations =  6.0

     negative rho (up, down):  3.563E-01 0.000E+00

     total cpu time spent up to now is        9.0 secs

     total energy              =      20.72280770 Ry
     Harris-Foulkes estimate   =    -103.85715057 Ry
     estimated scf accuracy    <      14.08938601 Ry

     iteration # 60     ecut=    30.00 Ry     beta=0.70
     Davidson diagonalization with overlap
     ethr =  1.00E-02,  avg # of iterations =  4.0

     negative rho (up, down):  8.594E-02 0.000E+00

     total cpu time spent up to now is        9.1 secs

     total energy              =      54.82542425 Ry
     Harris-Foulkes estimate   =   -2251.97978941 Ry
     estimated scf accuracy    <      11.58954295 Ry

     iteration # 61     ecut=    30.00 Ry     beta=0.70
     Davidson diagonalization with overlap
     ethr =  1.00E-02,  avg # of iterations =  4.0

     negative rho (up, down):  1.323E-02 0.000E+00

     total cpu time spent up to now is        9.1 secs

     total energy              =       3.95444799 Ry
     Harris-Foulkes estimate   =    -192.04063653 Ry
     estimated scf accuracy    <       9.21313399 Ry

     iteration # 62     ecut=    30.00 Ry     beta=0.70
     Davidson diagonalization with overlap
     ethr =  1.00E-02,  avg # of iterations =  6.0

     negative rho (up, down):  3.282E-03 0.000E+00

     total cpu time spent up to now is        9.2 secs

     total energy              =     -38.25877383 Ry
     Harris-Foulkes estimate   =     -39.42465360 Ry
     estimated scf accuracy    <      15.23951802 Ry

     iteration # 63     ecut=    30.00 Ry     beta=0.70
     Davidson diagonalization with overlap
     ethr =  1.00E-02,  avg # of iterations =  1.0

     negative rho (up, down):  3.847E-02 0.000E+00

     total cpu time spent up to now is        9.2 secs

     total energy              =     -37.66567049 Ry
     Harris-Foulkes estimate   =     -38.26634530 Ry
     estimated scf accuracy    <      13.62425437 Ry

     iteration # 64     ecut=    30.00 Ry     beta=0.70
     Davidson diagonalization with overlap
     ethr =  1.00E-02,  avg # of iterations =  7.0

     negative rho (up, down):  2.360E-03 0.000E+00

     total cpu time spent up to now is        9.3 secs

     total energy              =      34.87182883 Ry
     Harris-Foulkes estimate   =    -108.54256925 Ry
     estimated scf accuracy    <      14.60409019 Ry

     iteration # 65     ecut=    30.00 Ry     beta=0.70
     Davidson diagonalization with overlap
     ethr =  1.00E-02,  avg # of iterations =  6.0

     negative rho (up, down):  4.691E-02 0.000E+00

     total cpu time spent up to now is        9.3 secs

     total energy              =     -36.15401758 Ry
     Harris-Foulkes estimate   =     -37.21282609 Ry
     estimated scf accuracy    <      12.31401576 Ry

     iteration # 66     ecut=    30.00 Ry     beta=0.70
     Davidson diagonalization with overlap
     ethr =  1.00E-02,  avg # of iterations =  1.0

     negative rho (up, down):  6.960E-02 0.000E+00

     total cpu time spent up to now is        9.3 secs

     total energy              =     -35.17383318 Ry
     Harris-Foulkes estimate   =     -36.15792617 Ry
     estimated scf accuracy    <      10.91768685 Ry

     iteration # 67     ecut=    30.00 Ry     beta=0.70
     Davidson diagonalization with overlap
     ethr =  1.00E-02,  avg # of iterations =  4.0

     negative rho (up, down):  2.902E-01 0.000E+00

     total cpu time spent up to now is        9.4 secs

     total energy              =      -0.54333429 Ry
     Harris-Foulkes estimate   =    -195.08068162 Ry
     estimated scf accuracy    <       6.70587931 Ry

     iteration # 68     ecut=    30.00 Ry     beta=0.70
     Davidson diagonalization with overlap
     ethr =  1.00E-02,  avg # of iterations =  6.0

     negative rho (up, down):  1.239E-01 0.000E+00

     total cpu time spent up to now is        9.4 secs

     total energy              =      34.41099195 Ry
     Harris-Foulkes estimate   =    -523.17610231 Ry
     estimated scf accuracy    <      19.03625953 Ry

     iteration # 69     ecut=    30.00 Ry     beta=0.70
     Davidson diagonalization with overlap
     ethr =  1.00E-02,  avg # of iterations =  6.0

     negative rho (up, down):  4.190E-01 0.000E+00

     total cpu time spent up to now is        9.5 secs

     total energy              =      -5.28611167 Ry
     Harris-Foulkes estimate   =    -105.82269294 Ry
     estimated scf accuracy    <      15.60004150 Ry

     iteration # 70     ecut=    30.00 Ry     beta=0.70
     Davidson diagonalization with overlap
     ethr =  1.00E-02,  avg # of iterations =  4.0

     negative rho (up, down):  1.661E-04 0.000E+00

     total cpu time spent up to now is        9.5 secs

     total energy              =      -1.83487850 Ry
     Harris-Foulkes estimate   =     -68.24205107 Ry
     estimated scf accuracy    <       7.10411078 Ry

     iteration # 71     ecut=    30.00 Ry     beta=0.70
     Davidson diagonalization with overlap
     ethr =  1.00E-02,  avg # of iterations =  4.0

     negative rho (up, down):  2.326E-02 0.000E+00

     total cpu time spent up to now is        9.5 secs

     total energy              =     -33.43282049 Ry
     Harris-Foulkes estimate   =     -34.63099218 Ry
     estimated scf accuracy    <       9.12370071 Ry

     iteration # 72     ecut=    30.00 Ry     beta=0.70
     Davidson diagonalization with overlap
     ethr =  1.00E-02,  avg # of iterations =  1.0

     negative rho (up, down):  2.867E-02 0.000E+00

     total cpu time spent up to now is        9.6 secs

     total energy              =     -32.83271035 Ry
     Harris-Foulkes estimate   =     -33.43754148 Ry
     estimated scf accuracy    <       7.66645014 Ry

     iteration # 73     ecut=    30.00 Ry     beta=0.70
     Davidson diagonalization with overlap
     ethr =  1.00E-02,  avg # of iterations =  1.0

     negative rho (up, down):  3.764E-01 0.000E+00

     total cpu time spent up to now is        9.6 secs

     total energy              =     -29.58745243 Ry
     Harris-Foulkes estimate   =     -32.83517689 Ry
     estimated scf accuracy    <       6.88185224 Ry

     iteration # 74     ecut=    30.00 Ry     beta=0.70
     Davidson diagonalization with overlap
     ethr =  1.00E-02,  avg # of iterations =  8.0

     negative rho (up, down):  1.857E-01 0.000E+00

     total cpu time spent up to now is        9.7 secs

     total energy              =      55.63129502 Ry
     Harris-Foulkes estimate   =    -575.17464945 Ry
     estimated scf accuracy    <      75.79379696 Ry

     iteration # 75     ecut=    30.00 Ry     beta=0.70
     Davidson diagonalization with overlap
     ethr =  1.00E-02,  avg # of iterations =  5.0

     negative rho (up, down):  6.466E-02 0.000E+00

     total cpu time spent up to now is        9.7 secs

     total energy              =      42.28053576 Ry
     Harris-Foulkes estimate   =   -1203.38989873 Ry
     estimated scf accuracy    <      20.58034162 Ry

     iteration # 76     ecut=    30.00 Ry     beta=0.70
     Davidson diagonalization with overlap
     ethr =  1.00E-02,  avg # of iterations =  5.0

     negative rho (up, down):  1.407E-01 0.000E+00

     total cpu time spent up to now is        9.8 secs

     total energy              =     -47.81366744 Ry
     Harris-Foulkes estimate   =     -31.72971005 Ry
     estimated scf accuracy    <       2.91178081 Ry

     iteration # 77     ecut=    30.00 Ry     beta=0.70
     Davidson diagonalization with overlap
     ethr =  1.00E-02,  avg # of iterations =  7.0

     negative rho (up, down):  2.135E-01 0.000E+00

     total cpu time spent up to now is        9.8 secs

     total energy              =      73.34581138 Ry
     Harris-Foulkes estimate   =    -228.36346652 Ry
     estimated scf accuracy    <      61.19109525 Ry

     iteration # 78     ecut=    30.00 Ry     beta=0.70
     Davidson diagonalization with overlap
     ethr =  1.00E-02,  avg # of iterations =  8.0

     negative rho (up, down):  1.133E-01 0.000E+00

     total cpu time spent up to now is        9.9 secs

     total energy              =    -341.05436823 Ry
     Harris-Foulkes estimate   =     -49.14804023 Ry
     estimated scf accuracy    <       4.87255649 Ry

     iteration # 79     ecut=    30.00 Ry     beta=0.70
     Davidson diagonalization with overlap
     ethr =  1.00E-02,  avg # of iterations =  4.0

     negative rho (up, down):  4.784E-02 0.000E+00

     total cpu time spent up to now is        9.9 secs

     total energy              =     106.17055346 Ry
     Harris-Foulkes estimate   =   -3568.86245660 Ry
     estimated scf accuracy    <      34.88284919 Ry

     iteration # 80     ecut=    30.00 Ry     beta=0.70
     Davidson diagonalization with overlap
     ethr =  1.00E-02,  avg # of iterations =  5.0

     negative rho (up, down):  2.177E-02 0.000E+00

     total cpu time spent up to now is       10.0 secs

     total energy              =     -34.57848204 Ry
     Harris-Foulkes estimate   =     -38.88160337 Ry
     estimated scf accuracy    <      14.05422517 Ry

     iteration # 81     ecut=    30.00 Ry     beta=0.70
     Davidson diagonalization with overlap
     ethr =  1.00E-02,  avg # of iterations =  1.0

     negative rho (up, down):  2.849E-02 0.000E+00

     total cpu time spent up to now is       10.0 secs

     total energy              =     -30.95089922 Ry
     Harris-Foulkes estimate   =     -34.61649170 Ry
     estimated scf accuracy    <       8.85433361 Ry

     iteration # 82     ecut=    30.00 Ry     beta=0.70
     Davidson diagonalization with overlap
     ethr =  1.00E-02,  avg # of iterations =  2.0

     negative rho (up, down):  1.493E-01 0.000E+00

     total cpu time spent up to now is       10.0 secs

     total energy              =     -39.29014676 Ry
     Harris-Foulkes estimate   =     -30.99831485 Ry
     estimated scf accuracy    <       4.31236547 Ry

     iteration # 83     ecut=    30.00 Ry     beta=0.70
     Davidson diagonalization with overlap
     ethr =  1.00E-02,  avg # of iterations =  7.0

     total cpu time spent up to now is       10.1 secs

     total energy              =     139.65714442 Ry
     Harris-Foulkes estimate   =  -17921.25092755 Ry
     estimated scf accuracy    <      71.08388534 Ry

     iteration # 84     ecut=    30.00 Ry     beta=0.70
     Davidson diagonalization with overlap
     ethr =  1.00E-02,  avg # of iterations = 10.0

     negative rho (up, down):  3.432E-02 0.000E+00

     total cpu time spent up to now is       10.2 secs

     total energy              =     -31.67164896 Ry
     Harris-Foulkes estimate   =     -33.23959133 Ry
     estimated scf accuracy    <       7.11269807 Ry

     iteration # 85     ecut=    30.00 Ry     beta=0.70
     Davidson diagonalization with overlap
     ethr =  1.00E-02,  avg # of iterations = 10.0

     negative rho (up, down):  5.435E-02 0.000E+00

     total cpu time spent up to now is       10.2 secs

     total energy              =     -20.22006134 Ry
     Harris-Foulkes estimate   =    -503.12813266 Ry
     estimated scf accuracy    <      65.15433483 Ry

     iteration # 86     ecut=    30.00 Ry     beta=0.70
     Davidson diagonalization with overlap
     ethr =  1.00E-02,  avg # of iterations = 11.0

     negative rho (up, down):  7.099E-02 0.000E+00

     total cpu time spent up to now is       10.3 secs

     total energy              =    -505.51859113 Ry
     Harris-Foulkes estimate   =    -228.02956934 Ry
     estimated scf accuracy    <      21.33369390 Ry

     iteration # 87     ecut=    30.00 Ry     beta=0.70
     Davidson diagonalization with overlap
     ethr =  1.00E-02,  avg # of iterations =  6.0

     negative rho (up, down):  6.340E-02 0.000E+00

     total cpu time spent up to now is       10.3 secs

     total energy              =      60.96302809 Ry
     Harris-Foulkes estimate   =    -807.53914365 Ry
     estimated scf accuracy    <      58.21685576 Ry

     iteration # 88     ecut=    30.00 Ry     beta=0.70
     Davidson diagonalization with overlap
     ethr =  1.00E-02,  avg # of iterations = 11.0

     negative rho (up, down):  9.642E-02 0.000E+00

     total cpu time spent up to now is       10.4 secs

     total energy              =    -420.38629780 Ry
     Harris-Foulkes estimate   =    -232.33157058 Ry
     estimated scf accuracy    <      30.08705984 Ry

     iteration # 89     ecut=    30.00 Ry     beta=0.70
     Davidson diagonalization with overlap
     ethr =  1.00E-02,  avg # of iterations =  9.0

     negative rho (up, down):  6.714E-02 0.000E+00

     total cpu time spent up to now is       10.4 secs

     total energy              =    -153.53161279 Ry
     Harris-Foulkes estimate   =   -1028.27876987 Ry
     estimated scf accuracy    <      59.80636668 Ry

     iteration # 90     ecut=    30.00 Ry     beta=0.70
     Davidson diagonalization with overlap
     ethr =  1.00E-02,  avg # of iterations =  4.0

     negative rho (up, down):  7.637E-02 0.000E+00

     total cpu time spent up to now is       10.5 secs

     total energy              =    -384.03266606 Ry
     Harris-Foulkes estimate   =    -907.81344000 Ry
     estimated scf accuracy    <      61.23417180 Ry

     iteration # 91     ecut=    30.00 Ry     beta=0.70
     Davidson diagonalization with overlap
     ethr =  1.00E-02,  avg # of iterations =  8.0

     negative rho (up, down):  4.520E-02 0.000E+00

     total cpu time spent up to now is       10.5 secs

     total energy              =       1.07043666 Ry
     Harris-Foulkes estimate   =   -1080.81408520 Ry
     estimated scf accuracy    <      13.95717379 Ry

     iteration # 92     ecut=    30.00 Ry     beta=0.70
     Davidson diagonalization with overlap
     ethr =  1.00E-02,  avg # of iterations =  7.0

     negative rho (up, down):  8.068E-02 0.000E+00

     total cpu time spent up to now is       10.6 secs

     total energy              =   -1200.43749000 Ry
     Harris-Foulkes estimate   =    -178.07191879 Ry
     estimated scf accuracy    <      20.06659772 Ry

     iteration # 93     ecut=    30.00 Ry     beta=0.70
     Davidson diagonalization with overlap
     ethr =  1.00E-02,  avg # of iterations =  4.0

     negative rho (up, down):  1.073E+00 0.000E+00

     total cpu time spent up to now is       10.6 secs

     total energy              =      24.87466319 Ry
     Harris-Foulkes estimate   =   -2042.25788264 Ry
     estimated scf accuracy    <      19.57244215 Ry

     iteration # 94     ecut=    30.00 Ry     beta=0.70
     Davidson diagonalization with overlap
     ethr =  1.00E-02,  avg # of iterations =  7.0

     negative rho (up, down):  9.441E-01 0.000E+00

     total cpu time spent up to now is       10.7 secs

     total energy              =   -1431.25551532 Ry
     Harris-Foulkes estimate   =   -1956.40599503 Ry
     estimated scf accuracy    <      47.27531662 Ry

     iteration # 95     ecut=    30.00 Ry     beta=0.70
     Davidson diagonalization with overlap
     ethr =  1.00E-02,  avg # of iterations =  8.0

     negative rho (up, down):  1.111E+00 0.000E+00

     total cpu time spent up to now is       10.8 secs

     total energy              =  -10802.25483186 Ry
     Harris-Foulkes estimate   =   -7508.39154321 Ry
     estimated scf accuracy    <      39.74132893 Ry

     iteration # 96     ecut=    30.00 Ry     beta=0.70
     Davidson diagonalization with overlap
     ethr =  1.00E-02,  avg # of iterations =  6.0

     negative rho (up, down):  1.395E+00 0.000E+00

     total cpu time spent up to now is       10.8 secs

     total energy              =     119.52260414 Ry
     Harris-Foulkes estimate   =  -18161.99654852 Ry
     estimated scf accuracy    <      37.35012896 Ry

     iteration # 97     ecut=    30.00 Ry     beta=0.70
     Davidson diagonalization with overlap
     ethr =  1.00E-02,  avg # of iterations =  8.0

     negative rho (up, down):  1.077E+00 0.000E+00

     total cpu time spent up to now is       10.9 secs

     total energy              =   -1680.23060703 Ry
     Harris-Foulkes estimate   =   -1040.18093307 Ry
     estimated scf accuracy    <      41.51592351 Ry

     iteration # 98     ecut=    30.00 Ry     beta=0.70
     Davidson diagonalization with overlap
     ethr =  1.00E-02,  avg # of iterations = 11.0

     negative rho (up, down):  1.124E+00 0.000E+00

     total cpu time spent up to now is       10.9 secs

     total energy              =   -1659.39606263 Ry
     Harris-Foulkes estimate   =  -49361.47345898 Ry
     estimated scf accuracy    <      44.81568310 Ry

     iteration # 99     ecut=    30.00 Ry     beta=0.70
     Davidson diagonalization with overlap
     ethr =  1.00E-02,  avg # of iterations =  7.0

     negative rho (up, down):  3.036E-01 0.000E+00

     total cpu time spent up to now is       11.0 secs

     total energy              =     106.53692971 Ry
     Harris-Foulkes estimate   =  -21076.55339642 Ry
     estimated scf accuracy    <      42.02867327 Ry

     iteration #100     ecut=    30.00 Ry     beta=0.70
     Davidson diagonalization with overlap
     ethr =  1.00E-02,  avg # of iterations =  8.0

     negative rho (up, down):  8.311E-01 0.000E+00

     total cpu time spent up to now is       11.1 secs

     total energy              =     -73.99846642 Ry
     Harris-Foulkes estimate   =   -1202.60555852 Ry
     estimated scf accuracy    <      33.33786285 Ry

     End of self-consistent calculation

     convergence NOT achieved after 100 iterations: stopping

     Writing output data file pwscf.save
 
     init_run     :      0.09s CPU      0.11s WALL (       1 calls)
     electrons    :      8.27s CPU     10.08s WALL (       4 calls)
     update_pot   :      0.32s CPU      0.45s WALL (       3 calls)
     forces       :      0.08s CPU      0.09s WALL (       3 calls)

     Called by init_run:
     wfcinit      :      0.01s CPU      0.02s WALL (       1 calls)
     potinit      :      0.02s CPU      0.03s WALL (       1 calls)

     Called by electrons:
     c_bands      :      4.16s CPU      4.34s WALL (     220 calls)
     sum_band     :      0.66s CPU      0.74s WALL (     220 calls)
     v_of_rho     :      1.59s CPU      1.68s WALL (     224 calls)
     mix_rho      :      1.48s CPU      2.58s WALL (     220 calls)

     Called by c_bands:
     init_us_2    :      0.02s CPU      0.02s WALL (     441 calls)
     cegterg      :      4.12s CPU      4.23s WALL (     221 calls)

     Called by sum_band:

     Called by *egterg:
     h_psi        :      3.46s CPU      3.55s WALL (    1183 calls)
     g_psi        :      0.04s CPU      0.04s WALL (     961 calls)
     cdiaghg      :      0.24s CPU      0.25s WALL (    1178 calls)

     Called by h_psi:
     h_psi:pot    :      3.44s CPU      3.53s WALL (    1183 calls)
     h_psi:calbec :      0.05s CPU      0.06s WALL (    1183 calls)
     vloc_psi     :      3.38s CPU      3.45s WALL (    1183 calls)
     add_vuspsi   :      0.01s CPU      0.01s WALL (    1183 calls)

     General routines
     calbec       :      0.06s CPU      0.08s WALL (    1197 calls)
     fft          :      0.98s CPU      1.03s WALL (    2470 calls)
     fftw         :      3.47s CPU      3.61s WALL (   15268 calls)
     davcio       :      0.24s CPU      0.97s WALL (    4057 calls)
 
     Parallel routines
     fft_scatter  :      1.61s CPU      1.73s WALL (   17738 calls)
 
     PWSCF        :     8.94s CPU        11.16s WALL

 
   This run was terminated on:   7:24:47  14Feb2018            

=------------------------------------------------------------------------------=
   JOB DONE.
=------------------------------------------------------------------------------=
