
     Program PWSCF v.6.2 (svn rev. 14038) starts on 17May2018 at 19: 8:24 

     This program is part of the open-source Quantum ESPRESSO suite
     for quantum simulation of materials; please cite
         "P. Giannozzi et al., J. Phys.:Condens. Matter 21 395502 (2009);
         "P. Giannozzi et al., J. Phys.:Condens. Matter 29 465901 (2017);
          URL http://www.quantum-espresso.org", 
     in publications or presentations arising from this work. More details at
     http://www.quantum-espresso.org/quote

     Parallel version (MPI), running on    28 processors

     MPI processes distributed on     1 nodes
     R & G space division:  proc/nbgrp/npool/nimage =      28
     Reading input from ../ecut2-30/16500.in
Warning: card &IONS ignored
Warning: card     POT_EXTRAPOLATION='SECOND-ORDER' ignored
Warning: card     WFC_EXTRAPOLATION='SECOND-ORDER' ignored
Warning: card     ION_TEMPERATURE = 'ANDERSEN' ignored
Warning: card / ignored

     Current dimensions of program PWSCF are:
     Max number of different atomic species (ntypx) = 10
     Max number of k-points (npk) =  40000
     Max angular momentum in pseudopotentials (lmaxx) =  3
               file H.pbe-kjpaw_psl.1.0.0.UPF: wavefunction(s)  1S renormalized
               file O.pbe-n-kjpaw_psl.1.0.0.UPF: wavefunction(s)  2S 2P renormalized

     Subspace diagonalization in iterative solution of the eigenvalue problem:
     a serial algorithm will be used

 
     Parallelization info
     --------------------
     sticks:   dense  smooth     PW     G-vecs:    dense   smooth      PW
     Min         136     136     33                 6338     6338     787
     Max         137     137     34                 6341     6341     792
     Sum        3809    3809    949               177509   177509   22119
 


     bravais-lattice index     =            1
     lattice parameter (alat)  =      20.0000  a.u.
     unit-cell volume          =    8000.0000 (a.u.)^3
     number of atoms/cell      =            3
     number of atomic types    =            2
     number of electrons       =         8.00
     number of Kohn-Sham states=            8
     kinetic-energy cutoff     =      30.0000  Ry
     charge density cutoff     =     120.0000  Ry
     convergence threshold     =      1.0E-08
     mixing beta               =       0.7000
     number of iterations used =            8  plain     mixing
     Exchange-correlation      = SLA PW PBX PBC ( 1  4  3  4 0 0)

     celldm(1)=  20.000000  celldm(2)=   0.000000  celldm(3)=   0.000000
     celldm(4)=   0.000000  celldm(5)=   0.000000  celldm(6)=   0.000000

     crystal axes: (cart. coord. in units of alat)
               a(1) = (   1.000000   0.000000   0.000000 )  
               a(2) = (   0.000000   1.000000   0.000000 )  
               a(3) = (   0.000000   0.000000   1.000000 )  

     reciprocal axes: (cart. coord. in units 2 pi/alat)
               b(1) = (  1.000000  0.000000  0.000000 )  
               b(2) = (  0.000000  1.000000  0.000000 )  
               b(3) = (  0.000000  0.000000  1.000000 )  


     PseudoPot. # 1 for H  read from file:
     ../pslibrary/pbe/PSEUDOPOTENTIALS/H.pbe-kjpaw_psl.1.0.0.UPF
     MD5 check sum: e77ef4e89cfa2d6a63e4c80bb1a147aa
     Pseudo is Projector augmented-wave, Zval =  1.0
     Generated using "atomic" code by A. Dal Corso v.6.2 svn rev. 14038
     Shape of augmentation charge: PSQ
     Using radial grid of  929 points,  2 beta functions with: 
                l(1) =   0
                l(2) =   0
     Q(r) pseudized with 0 coefficients 


     PseudoPot. # 2 for O  read from file:
     ../pslibrary/pbe/PSEUDOPOTENTIALS/O.pbe-n-kjpaw_psl.1.0.0.UPF
     MD5 check sum: bb09017f9a02654af35f7312a94eda3e
     Pseudo is Projector augmented-wave + core cor, Zval =  6.0
     Generated using "atomic" code by A. Dal Corso v.6.2 svn rev. 14038
     Shape of augmentation charge: PSQ
     Using radial grid of 1095 points,  4 beta functions with: 
                l(1) =   0
                l(2) =   0
                l(3) =   1
                l(4) =   1
     Q(r) pseudized with 0 coefficients 


     atomic species   valence    mass     pseudopotential
        H              1.00     1.01000     H ( 1.00)
        O              6.00    16.00000     O ( 1.00)

     No symmetry found



   Cartesian axes

     site n.     atom                  positions (alat units)
         1           O   tau(   1) = (  -0.0057217  -0.0020898   0.0052862  )
         2           H   tau(   2) = (   0.0264999   0.0928899   0.0233784  )
         3           H   tau(   3) = (   0.0641408  -0.0597833  -0.0187566  )

     number of k points=     1  Marzari-Vanderbilt smearing, width (Ry)=  0.0250
                       cart. coord. in units 2pi/alat
        k(    1) = (   0.0000000   0.0000000   0.0000000), wk =   2.0000000

     Dense  grid:   177509 G-vectors     FFT dimensions: (  72,  72,  72)

     Estimated max dynamical RAM per process >       8.54 MB

     Estimated total dynamical RAM >     239.18 MB

     Check: negative/imaginary core charge=   -0.000016    0.000000

     Initial potential from superposition of free atoms
     Check: negative starting charge=   -0.092945

     starting charge    7.99998, renormalised to    8.00000

     negative rho (up, down):  9.295E-02 0.000E+00
     Starting wfc are    6 randomized atomic wfcs +    2 random wfc
     Checking if some PAW data can be deallocated... 

     total cpu time spent up to now is        1.1 secs

     Self-consistent Calculation

     iteration #  1     ecut=    30.00 Ry     beta= 0.70
     Davidson diagonalization with overlap
     ethr =  1.00E-02,  avg # of iterations =  6.0

     negative rho (up, down):  1.248E-01 0.000E+00

     total cpu time spent up to now is        1.3 secs

     total energy              =     -43.74138637 Ry
     Harris-Foulkes estimate   =     -44.00197886 Ry
     estimated scf accuracy    <       0.36270914 Ry

     iteration #  2     ecut=    30.00 Ry     beta= 0.70
     Davidson diagonalization with overlap
     ethr =  4.53E-03,  avg # of iterations =  3.0

     negative rho (up, down):  1.120E-01 0.000E+00

     total cpu time spent up to now is        1.4 secs

     total energy              =     -43.78519470 Ry
     Harris-Foulkes estimate   =     -44.00908564 Ry
     estimated scf accuracy    <       0.48801586 Ry

     iteration #  3     ecut=    30.00 Ry     beta= 0.70
     Davidson diagonalization with overlap
     ethr =  4.53E-03,  avg # of iterations =  3.0

     negative rho (up, down):  1.211E-01 0.000E+00

     total cpu time spent up to now is        1.5 secs

     total energy              =     -43.88703253 Ry
     Harris-Foulkes estimate   =     -43.89020897 Ry
     estimated scf accuracy    <       0.00690755 Ry

     iteration #  4     ecut=    30.00 Ry     beta= 0.70
     Davidson diagonalization with overlap
     ethr =  8.63E-05,  avg # of iterations =  4.0

     negative rho (up, down):  1.202E-01 0.000E+00

     total cpu time spent up to now is        1.5 secs

     total energy              =     -43.88849978 Ry
     Harris-Foulkes estimate   =     -43.88862525 Ry
     estimated scf accuracy    <       0.00028887 Ry

     iteration #  5     ecut=    30.00 Ry     beta= 0.70
     Davidson diagonalization with overlap
     ethr =  3.61E-06,  avg # of iterations =  9.0

     negative rho (up, down):  1.201E-01 0.000E+00

     total cpu time spent up to now is        1.6 secs

     total energy              =     -43.88853184 Ry
     Harris-Foulkes estimate   =     -43.88853798 Ry
     estimated scf accuracy    <       0.00001395 Ry

     iteration #  6     ecut=    30.00 Ry     beta= 0.70
     Davidson diagonalization with overlap
     ethr =  1.74E-07,  avg # of iterations =  2.0

     negative rho (up, down):  1.202E-01 0.000E+00

     total cpu time spent up to now is        1.7 secs

     total energy              =     -43.88853573 Ry
     Harris-Foulkes estimate   =     -43.88853627 Ry
     estimated scf accuracy    <       0.00000116 Ry

     iteration #  7     ecut=    30.00 Ry     beta= 0.70
     Davidson diagonalization with overlap
     ethr =  1.45E-08,  avg # of iterations =  2.0

     negative rho (up, down):  1.202E-01 0.000E+00

     total cpu time spent up to now is        1.7 secs

     total energy              =     -43.88853591 Ry
     Harris-Foulkes estimate   =     -43.88853593 Ry
     estimated scf accuracy    <       0.00000004 Ry

     iteration #  8     ecut=    30.00 Ry     beta= 0.70
     Davidson diagonalization with overlap
     ethr =  5.20E-10,  avg # of iterations =  2.0

     negative rho (up, down):  1.202E-01 0.000E+00

     total cpu time spent up to now is        1.8 secs

     End of self-consistent calculation

          k = 0.0000 0.0000 0.0000 ( 22119 PWs)   bands (ev):

   -24.7773 -12.7992  -8.7805  -6.9752  -1.4552  -0.4060   0.0900   0.2997

     the Fermi energy is    -6.6619 ev

!    total energy              =     -43.88853591 Ry
     Harris-Foulkes estimate   =     -43.88853592 Ry
     estimated scf accuracy    <          8.6E-10 Ry

     total all-electron energy =      -152.735417 Ry

     The total energy is the sum of the following terms:

     one-electron contribution =     -62.26608076 Ry
     hartree contribution      =      32.80038964 Ry
     xc contribution           =      -8.70611355 Ry
     ewald contribution        =       3.85257244 Ry
     one-center paw contrib.   =      -9.57338116 Ry
     smearing contrib. (-TS)   =       0.00407747 Ry

     convergence has been achieved in   8 iterations

     Writing output data file pwscf.save
 
     init_run     :      0.22s CPU      0.27s WALL (       1 calls)
     electrons    :      0.55s CPU      0.68s WALL (       1 calls)

     Called by init_run:
     wfcinit      :      0.10s CPU      0.13s WALL (       1 calls)
     potinit      :      0.04s CPU      0.04s WALL (       1 calls)

     Called by electrons:
     c_bands      :      0.15s CPU      0.15s WALL (       8 calls)
     sum_band     :      0.07s CPU      0.08s WALL (       8 calls)
     v_of_rho     :      0.09s CPU      0.09s WALL (       9 calls)
     newd         :      0.05s CPU      0.05s WALL (       9 calls)
     PAW_pot      :      0.07s CPU      0.08s WALL (       9 calls)
     mix_rho      :      0.03s CPU      0.06s WALL (       8 calls)

     Called by c_bands:
     init_us_2    :      0.00s CPU      0.00s WALL (      17 calls)
     cegterg      :      0.14s CPU      0.15s WALL (       8 calls)

     Called by sum_band:
     sum_band:bec :      0.00s CPU      0.00s WALL (       8 calls)
     addusdens    :      0.05s CPU      0.05s WALL (       8 calls)

     Called by *egterg:
     h_psi        :      0.22s CPU      0.23s WALL (      40 calls)
     s_psi        :      0.00s CPU      0.00s WALL (      40 calls)
     g_psi        :      0.00s CPU      0.00s WALL (      31 calls)
     cdiaghg      :      0.01s CPU      0.01s WALL (      39 calls)

     Called by h_psi:
     h_psi:pot    :      0.22s CPU      0.23s WALL (      40 calls)
     h_psi:calbec :      0.00s CPU      0.00s WALL (      40 calls)
     vloc_psi     :      0.21s CPU      0.22s WALL (      40 calls)
     add_vuspsi   :      0.00s CPU      0.00s WALL (      40 calls)

     General routines
     calbec       :      0.00s CPU      0.01s WALL (      48 calls)
     fft          :      0.06s CPU      0.06s WALL (     116 calls)
     fftw         :      0.22s CPU      0.23s WALL (     492 calls)
     davcio       :      0.01s CPU      0.02s WALL (      69 calls)
 
     Parallel routines
     fft_scatt_xy :      0.01s CPU      0.01s WALL (     608 calls)
     fft_scatt_yz :      0.16s CPU      0.17s WALL (     608 calls)
 
     PWSCF        :     1.59s CPU         2.12s WALL

 
   This run was terminated on:  19: 8:26  17May2018            

=------------------------------------------------------------------------------=
   JOB DONE.
=------------------------------------------------------------------------------=
