
     Program PWSCF v.6.2 (svn rev. 14038) starts on 17May2018 at 19: 8:52 

     This program is part of the open-source Quantum ESPRESSO suite
     for quantum simulation of materials; please cite
         "P. Giannozzi et al., J. Phys.:Condens. Matter 21 395502 (2009);
         "P. Giannozzi et al., J. Phys.:Condens. Matter 29 465901 (2017);
          URL http://www.quantum-espresso.org", 
     in publications or presentations arising from this work. More details at
     http://www.quantum-espresso.org/quote

     Parallel version (MPI), running on    28 processors

     MPI processes distributed on     1 nodes
     R & G space division:  proc/nbgrp/npool/nimage =      28
     Reading input from ../ecut2-30/21500.in
Warning: card &IONS ignored
Warning: card     POT_EXTRAPOLATION='SECOND-ORDER' ignored
Warning: card     WFC_EXTRAPOLATION='SECOND-ORDER' ignored
Warning: card     ION_TEMPERATURE = 'ANDERSEN' ignored
Warning: card / ignored

     Current dimensions of program PWSCF are:
     Max number of different atomic species (ntypx) = 10
     Max number of k-points (npk) =  40000
     Max angular momentum in pseudopotentials (lmaxx) =  3
               file H.pbe-kjpaw_psl.1.0.0.UPF: wavefunction(s)  1S renormalized
               file O.pbe-n-kjpaw_psl.1.0.0.UPF: wavefunction(s)  2S 2P renormalized

     Subspace diagonalization in iterative solution of the eigenvalue problem:
     a serial algorithm will be used

 
     Parallelization info
     --------------------
     sticks:   dense  smooth     PW     G-vecs:    dense   smooth      PW
     Min         136     136     33                 6338     6338     787
     Max         137     137     34                 6341     6341     792
     Sum        3809    3809    949               177509   177509   22119
 


     bravais-lattice index     =            1
     lattice parameter (alat)  =      20.0000  a.u.
     unit-cell volume          =    8000.0000 (a.u.)^3
     number of atoms/cell      =            3
     number of atomic types    =            2
     number of electrons       =         8.00
     number of Kohn-Sham states=            8
     kinetic-energy cutoff     =      30.0000  Ry
     charge density cutoff     =     120.0000  Ry
     convergence threshold     =      1.0E-08
     mixing beta               =       0.7000
     number of iterations used =            8  plain     mixing
     Exchange-correlation      = SLA PW PBX PBC ( 1  4  3  4 0 0)

     celldm(1)=  20.000000  celldm(2)=   0.000000  celldm(3)=   0.000000
     celldm(4)=   0.000000  celldm(5)=   0.000000  celldm(6)=   0.000000

     crystal axes: (cart. coord. in units of alat)
               a(1) = (   1.000000   0.000000   0.000000 )  
               a(2) = (   0.000000   1.000000   0.000000 )  
               a(3) = (   0.000000   0.000000   1.000000 )  

     reciprocal axes: (cart. coord. in units 2 pi/alat)
               b(1) = (  1.000000  0.000000  0.000000 )  
               b(2) = (  0.000000  1.000000  0.000000 )  
               b(3) = (  0.000000  0.000000  1.000000 )  


     PseudoPot. # 1 for H  read from file:
     ../pslibrary/pbe/PSEUDOPOTENTIALS/H.pbe-kjpaw_psl.1.0.0.UPF
     MD5 check sum: e77ef4e89cfa2d6a63e4c80bb1a147aa
     Pseudo is Projector augmented-wave, Zval =  1.0
     Generated using "atomic" code by A. Dal Corso v.6.2 svn rev. 14038
     Shape of augmentation charge: PSQ
     Using radial grid of  929 points,  2 beta functions with: 
                l(1) =   0
                l(2) =   0
     Q(r) pseudized with 0 coefficients 


     PseudoPot. # 2 for O  read from file:
     ../pslibrary/pbe/PSEUDOPOTENTIALS/O.pbe-n-kjpaw_psl.1.0.0.UPF
     MD5 check sum: bb09017f9a02654af35f7312a94eda3e
     Pseudo is Projector augmented-wave + core cor, Zval =  6.0
     Generated using "atomic" code by A. Dal Corso v.6.2 svn rev. 14038
     Shape of augmentation charge: PSQ
     Using radial grid of 1095 points,  4 beta functions with: 
                l(1) =   0
                l(2) =   0
                l(3) =   1
                l(4) =   1
     Q(r) pseudized with 0 coefficients 


     atomic species   valence    mass     pseudopotential
        H              1.00     1.01000     H ( 1.00)
        O              6.00    16.00000     O ( 1.00)

     No symmetry found



   Cartesian axes

     site n.     atom                  positions (alat units)
         1           O   tau(   1) = (   0.0098498   0.0064049  -0.0050665  )
         2           H   tau(   2) = (  -0.0625966  -0.0672701   0.0147673  )
         3           H   tau(   3) = (  -0.0934403  -0.0341936   0.1538595  )

     number of k points=     1  Marzari-Vanderbilt smearing, width (Ry)=  0.0250
                       cart. coord. in units 2pi/alat
        k(    1) = (   0.0000000   0.0000000   0.0000000), wk =   2.0000000

     Dense  grid:   177509 G-vectors     FFT dimensions: (  72,  72,  72)

     Estimated max dynamical RAM per process >       8.54 MB

     Estimated total dynamical RAM >     239.18 MB

     Check: negative/imaginary core charge=   -0.000016    0.000000

     Initial potential from superposition of free atoms
     Check: negative starting charge=   -0.094009

     starting charge    7.99998, renormalised to    8.00000

     negative rho (up, down):  9.401E-02 0.000E+00
     Starting wfc are    6 randomized atomic wfcs +    2 random wfc
     Checking if some PAW data can be deallocated... 

     total cpu time spent up to now is        1.1 secs

     Self-consistent Calculation

     iteration #  1     ecut=    30.00 Ry     beta= 0.70
     Davidson diagonalization with overlap
     ethr =  1.00E-02,  avg # of iterations =  7.0

     negative rho (up, down):  1.220E-01 0.000E+00

     total cpu time spent up to now is        1.3 secs

     total energy              =     -43.08468397 Ry
     Harris-Foulkes estimate   =     -43.63886567 Ry
     estimated scf accuracy    <       0.73243150 Ry

     iteration #  2     ecut=    30.00 Ry     beta= 0.70
     Davidson diagonalization with overlap
     ethr =  9.16E-03,  avg # of iterations =  4.0

     negative rho (up, down):  9.655E-02 0.000E+00

     total cpu time spent up to now is        1.3 secs

     total energy              =     -43.06664403 Ry
     Harris-Foulkes estimate   =     -44.52260825 Ry
     estimated scf accuracy    <       4.87410442 Ry

     iteration #  3     ecut=    30.00 Ry     beta= 0.70
     Davidson diagonalization with overlap
     ethr =  9.16E-03,  avg # of iterations =  3.0

     negative rho (up, down):  9.969E-02 0.000E+00

     total cpu time spent up to now is        1.4 secs

     total energy              =     -43.51049728 Ry
     Harris-Foulkes estimate   =     -43.52022375 Ry
     estimated scf accuracy    <       0.11233417 Ry

     iteration #  4     ecut=    30.00 Ry     beta= 0.70
     Davidson diagonalization with overlap
     ethr =  1.40E-03,  avg # of iterations =  1.0

     negative rho (up, down):  1.168E-01 0.000E+00

     total cpu time spent up to now is        1.4 secs

     total energy              =     -43.50964200 Ry
     Harris-Foulkes estimate   =     -43.51488187 Ry
     estimated scf accuracy    <       0.03681122 Ry

     iteration #  5     ecut=    30.00 Ry     beta= 0.70
     Davidson diagonalization with overlap
     ethr =  4.60E-04,  avg # of iterations =  1.0

     negative rho (up, down):  1.183E-01 0.000E+00

     total cpu time spent up to now is        1.5 secs

     total energy              =     -43.50750185 Ry
     Harris-Foulkes estimate   =     -43.51091652 Ry
     estimated scf accuracy    <       0.02140795 Ry

     iteration #  6     ecut=    30.00 Ry     beta= 0.70
     Davidson diagonalization with overlap
     ethr =  2.68E-04,  avg # of iterations =  8.0

     negative rho (up, down):  1.195E-01 0.000E+00

     total cpu time spent up to now is        1.6 secs

     total energy              =     -43.50949312 Ry
     Harris-Foulkes estimate   =     -43.50960786 Ry
     estimated scf accuracy    <       0.00064584 Ry

     iteration #  7     ecut=    30.00 Ry     beta= 0.70
     Davidson diagonalization with overlap
     ethr =  8.07E-06,  avg # of iterations = 12.0

     negative rho (up, down):  1.186E-01 0.000E+00

     total cpu time spent up to now is        1.6 secs

     total energy              =     -43.50958360 Ry
     Harris-Foulkes estimate   =     -43.50960799 Ry
     estimated scf accuracy    <       0.00014036 Ry

     iteration #  8     ecut=    30.00 Ry     beta= 0.70
     Davidson diagonalization with overlap
     ethr =  1.75E-06,  avg # of iterations = 12.0

     negative rho (up, down):  1.181E-01 0.000E+00

     total cpu time spent up to now is        1.7 secs

     total energy              =     -43.50960003 Ry
     Harris-Foulkes estimate   =     -43.50960711 Ry
     estimated scf accuracy    <       0.00005720 Ry

     iteration #  9     ecut=    30.00 Ry     beta= 0.70
     Davidson diagonalization with overlap
     ethr =  7.15E-07,  avg # of iterations =  1.0

     negative rho (up, down):  1.180E-01 0.000E+00

     total cpu time spent up to now is        1.8 secs

     total energy              =     -43.50960498 Ry
     Harris-Foulkes estimate   =     -43.50960537 Ry
     estimated scf accuracy    <       0.00000213 Ry

     iteration # 10     ecut=    30.00 Ry     beta= 0.70
     Davidson diagonalization with overlap
     ethr =  2.67E-08,  avg # of iterations =  1.0

     negative rho (up, down):  1.180E-01 0.000E+00

     total cpu time spent up to now is        1.8 secs

     total energy              =     -43.50960506 Ry
     Harris-Foulkes estimate   =     -43.50960514 Ry
     estimated scf accuracy    <       0.00000027 Ry

     iteration # 11     ecut=    30.00 Ry     beta= 0.70
     Davidson diagonalization with overlap
     ethr =  3.43E-09,  avg # of iterations =  2.0

     negative rho (up, down):  1.180E-01 0.000E+00

     total cpu time spent up to now is        1.9 secs

     End of self-consistent calculation

          k = 0.0000 0.0000 0.0000 ( 22119 PWs)   bands (ev):

   -23.6283 -10.9921  -8.1780  -6.9643  -6.2615  -1.0470  -0.3475   0.1256

     the Fermi energy is    -6.6639 ev

!    total energy              =     -43.50960512 Ry
     Harris-Foulkes estimate   =     -43.50960512 Ry
     estimated scf accuracy    <          8.7E-09 Ry

     total all-electron energy =      -152.356486 Ry

     The total energy is the sum of the following terms:

     one-electron contribution =     -55.53375415 Ry
     hartree contribution      =      29.43022645 Ry
     xc contribution           =      -8.29006315 Ry
     ewald contribution        =       0.46753242 Ry
     one-center paw contrib.   =      -9.58589044 Ry
     smearing contrib. (-TS)   =       0.00234375 Ry

     convergence has been achieved in  11 iterations

     Writing output data file pwscf.save
 
     init_run     :      0.18s CPU      0.23s WALL (       1 calls)
     electrons    :      0.61s CPU      0.77s WALL (       1 calls)

     Called by init_run:
     wfcinit      :      0.07s CPU      0.10s WALL (       1 calls)
     potinit      :      0.03s CPU      0.04s WALL (       1 calls)

     Called by electrons:
     c_bands      :      0.18s CPU      0.19s WALL (      11 calls)
     sum_band     :      0.10s CPU      0.11s WALL (      11 calls)
     v_of_rho     :      0.11s CPU      0.12s WALL (      12 calls)
     newd         :      0.07s CPU      0.07s WALL (      12 calls)
     PAW_pot      :      0.10s CPU      0.11s WALL (      12 calls)
     mix_rho      :      0.05s CPU      0.10s WALL (      11 calls)

     Called by c_bands:
     init_us_2    :      0.00s CPU      0.01s WALL (      23 calls)
     cegterg      :      0.17s CPU      0.18s WALL (      11 calls)

     Called by sum_band:
     sum_band:bec :      0.00s CPU      0.00s WALL (      11 calls)
     addusdens    :      0.07s CPU      0.07s WALL (      11 calls)

     Called by *egterg:
     h_psi        :      0.20s CPU      0.21s WALL (      64 calls)
     s_psi        :      0.00s CPU      0.00s WALL (      64 calls)
     g_psi        :      0.00s CPU      0.00s WALL (      52 calls)
     cdiaghg      :      0.01s CPU      0.01s WALL (      63 calls)

     Called by h_psi:
     h_psi:pot    :      0.20s CPU      0.21s WALL (      64 calls)
     h_psi:calbec :      0.01s CPU      0.01s WALL (      64 calls)
     vloc_psi     :      0.19s CPU      0.20s WALL (      64 calls)
     add_vuspsi   :      0.00s CPU      0.00s WALL (      64 calls)

     General routines
     calbec       :      0.01s CPU      0.01s WALL (      75 calls)
     fft          :      0.07s CPU      0.08s WALL (     155 calls)
     fftw         :      0.20s CPU      0.21s WALL (     602 calls)
     davcio       :      0.01s CPU      0.04s WALL (     127 calls)
 
     Parallel routines
     fft_scatt_xy :      0.02s CPU      0.02s WALL (     757 calls)
     fft_scatt_yz :      0.13s CPU      0.14s WALL (     757 calls)
 
     PWSCF        :     1.60s CPU         2.23s WALL

 
   This run was terminated on:  19: 8:54  17May2018            

=------------------------------------------------------------------------------=
   JOB DONE.
=------------------------------------------------------------------------------=
