
     Program PWSCF v.6.2 (svn rev. 14038) starts on 17May2018 at 19: 6: 3 

     This program is part of the open-source Quantum ESPRESSO suite
     for quantum simulation of materials; please cite
         "P. Giannozzi et al., J. Phys.:Condens. Matter 21 395502 (2009);
         "P. Giannozzi et al., J. Phys.:Condens. Matter 29 465901 (2017);
          URL http://www.quantum-espresso.org", 
     in publications or presentations arising from this work. More details at
     http://www.quantum-espresso.org/quote

     Parallel version (MPI), running on    28 processors

     MPI processes distributed on     1 nodes
     R & G space division:  proc/nbgrp/npool/nimage =      28
     Reading input from ../ecut2-30/500.in
Warning: card &IONS ignored
Warning: card     POT_EXTRAPOLATION='SECOND-ORDER' ignored
Warning: card     WFC_EXTRAPOLATION='SECOND-ORDER' ignored
Warning: card     ION_TEMPERATURE = 'ANDERSEN' ignored
Warning: card / ignored

     Current dimensions of program PWSCF are:
     Max number of different atomic species (ntypx) = 10
     Max number of k-points (npk) =  40000
     Max angular momentum in pseudopotentials (lmaxx) =  3
               file H.pbe-kjpaw_psl.1.0.0.UPF: wavefunction(s)  1S renormalized
               file O.pbe-n-kjpaw_psl.1.0.0.UPF: wavefunction(s)  2S 2P renormalized

     Subspace diagonalization in iterative solution of the eigenvalue problem:
     a serial algorithm will be used

 
     Parallelization info
     --------------------
     sticks:   dense  smooth     PW     G-vecs:    dense   smooth      PW
     Min         136     136     33                 6338     6338     787
     Max         137     137     34                 6341     6341     792
     Sum        3809    3809    949               177509   177509   22119
 


     bravais-lattice index     =            1
     lattice parameter (alat)  =      20.0000  a.u.
     unit-cell volume          =    8000.0000 (a.u.)^3
     number of atoms/cell      =            3
     number of atomic types    =            2
     number of electrons       =         8.00
     number of Kohn-Sham states=            8
     kinetic-energy cutoff     =      30.0000  Ry
     charge density cutoff     =     120.0000  Ry
     convergence threshold     =      1.0E-08
     mixing beta               =       0.7000
     number of iterations used =            8  plain     mixing
     Exchange-correlation      = SLA PW PBX PBC ( 1  4  3  4 0 0)

     celldm(1)=  20.000000  celldm(2)=   0.000000  celldm(3)=   0.000000
     celldm(4)=   0.000000  celldm(5)=   0.000000  celldm(6)=   0.000000

     crystal axes: (cart. coord. in units of alat)
               a(1) = (   1.000000   0.000000   0.000000 )  
               a(2) = (   0.000000   1.000000   0.000000 )  
               a(3) = (   0.000000   0.000000   1.000000 )  

     reciprocal axes: (cart. coord. in units 2 pi/alat)
               b(1) = (  1.000000  0.000000  0.000000 )  
               b(2) = (  0.000000  1.000000  0.000000 )  
               b(3) = (  0.000000  0.000000  1.000000 )  


     PseudoPot. # 1 for H  read from file:
     ../pslibrary/pbe/PSEUDOPOTENTIALS/H.pbe-kjpaw_psl.1.0.0.UPF
     MD5 check sum: e77ef4e89cfa2d6a63e4c80bb1a147aa
     Pseudo is Projector augmented-wave, Zval =  1.0
     Generated using "atomic" code by A. Dal Corso v.6.2 svn rev. 14038
     Shape of augmentation charge: PSQ
     Using radial grid of  929 points,  2 beta functions with: 
                l(1) =   0
                l(2) =   0
     Q(r) pseudized with 0 coefficients 


     PseudoPot. # 2 for O  read from file:
     ../pslibrary/pbe/PSEUDOPOTENTIALS/O.pbe-n-kjpaw_psl.1.0.0.UPF
     MD5 check sum: bb09017f9a02654af35f7312a94eda3e
     Pseudo is Projector augmented-wave + core cor, Zval =  6.0
     Generated using "atomic" code by A. Dal Corso v.6.2 svn rev. 14038
     Shape of augmentation charge: PSQ
     Using radial grid of 1095 points,  4 beta functions with: 
                l(1) =   0
                l(2) =   0
                l(3) =   1
                l(4) =   1
     Q(r) pseudized with 0 coefficients 


     atomic species   valence    mass     pseudopotential
        H              1.00     1.01000     H ( 1.00)
        O              6.00    16.00000     O ( 1.00)

     No symmetry found



   Cartesian axes

     site n.     atom                  positions (alat units)
         1           O   tau(   1) = (   0.0000003  -0.0056091  -0.0005185  )
         2           H   tau(   2) = (  -0.0736509   0.0684522   0.0117589  )
         3           H   tau(   3) = (   0.0736459   0.0204041   0.0848195  )

     number of k points=     1  Marzari-Vanderbilt smearing, width (Ry)=  0.0250
                       cart. coord. in units 2pi/alat
        k(    1) = (   0.0000000   0.0000000   0.0000000), wk =   2.0000000

     Dense  grid:   177509 G-vectors     FFT dimensions: (  72,  72,  72)

     Estimated max dynamical RAM per process >       8.54 MB

     Estimated total dynamical RAM >     239.18 MB

     Check: negative/imaginary core charge=   -0.000016    0.000000

     Initial potential from superposition of free atoms
     Check: negative starting charge=   -0.092846

     starting charge    7.99998, renormalised to    8.00000

     negative rho (up, down):  9.285E-02 0.000E+00
     Starting wfc are    6 randomized atomic wfcs +    2 random wfc
     Checking if some PAW data can be deallocated... 

     total cpu time spent up to now is        1.9 secs

     Self-consistent Calculation

     iteration #  1     ecut=    30.00 Ry     beta= 0.70
     Davidson diagonalization with overlap
     ethr =  1.00E-02,  avg # of iterations =  6.0

     negative rho (up, down):  1.206E-01 0.000E+00

     total cpu time spent up to now is        2.0 secs

     total energy              =     -43.68888968 Ry
     Harris-Foulkes estimate   =     -43.91747500 Ry
     estimated scf accuracy    <       0.32003236 Ry

     iteration #  2     ecut=    30.00 Ry     beta= 0.70
     Davidson diagonalization with overlap
     ethr =  4.00E-03,  avg # of iterations =  3.0

     negative rho (up, down):  1.090E-01 0.000E+00

     total cpu time spent up to now is        2.1 secs

     total energy              =     -43.69316791 Ry
     Harris-Foulkes estimate   =     -43.97513425 Ry
     estimated scf accuracy    <       0.68709139 Ry

     iteration #  3     ecut=    30.00 Ry     beta= 0.70
     Davidson diagonalization with overlap
     ethr =  4.00E-03,  avg # of iterations =  3.0

     negative rho (up, down):  1.181E-01 0.000E+00

     total cpu time spent up to now is        2.2 secs

     total energy              =     -43.82858701 Ry
     Harris-Foulkes estimate   =     -43.83196421 Ry
     estimated scf accuracy    <       0.00802057 Ry

     iteration #  4     ecut=    30.00 Ry     beta= 0.70
     Davidson diagonalization with overlap
     ethr =  1.00E-04,  avg # of iterations =  4.0

     negative rho (up, down):  1.176E-01 0.000E+00

     total cpu time spent up to now is        2.2 secs

     total energy              =     -43.82599824 Ry
     Harris-Foulkes estimate   =     -43.82608790 Ry
     estimated scf accuracy    <       0.00020599 Ry

     iteration #  5     ecut=    30.00 Ry     beta= 0.70
     Davidson diagonalization with overlap
     c_bands:  1 eigenvalues not converged
     ethr =  2.57E-06,  avg # of iterations = 20.0

     negative rho (up, down):  1.175E-01 0.000E+00

     total cpu time spent up to now is        2.3 secs

     total energy              =     -43.82602792 Ry
     Harris-Foulkes estimate   =     -43.82603307 Ry
     estimated scf accuracy    <       0.00001284 Ry

     iteration #  6     ecut=    30.00 Ry     beta= 0.70
     Davidson diagonalization with overlap
     ethr =  1.60E-07,  avg # of iterations =  2.0

     negative rho (up, down):  1.176E-01 0.000E+00

     total cpu time spent up to now is        2.4 secs

     total energy              =     -43.82603018 Ry
     Harris-Foulkes estimate   =     -43.82603032 Ry
     estimated scf accuracy    <       0.00000033 Ry

     iteration #  7     ecut=    30.00 Ry     beta= 0.70
     Davidson diagonalization with overlap
     ethr =  4.08E-09,  avg # of iterations =  2.0

     negative rho (up, down):  1.176E-01 0.000E+00

     total cpu time spent up to now is        2.4 secs

     total energy              =     -43.82603021 Ry
     Harris-Foulkes estimate   =     -43.82603024 Ry
     estimated scf accuracy    <       0.00000004 Ry

     iteration #  8     ecut=    30.00 Ry     beta= 0.70
     Davidson diagonalization with overlap
     ethr =  5.56E-10,  avg # of iterations =  2.0

     negative rho (up, down):  1.176E-01 0.000E+00

     total cpu time spent up to now is        2.5 secs

     End of self-consistent calculation

          k = 0.0000 0.0000 0.0000 ( 22119 PWs)   bands (ev):

   -23.8723 -11.3644  -9.1463  -6.8185  -1.9390  -0.6711  -0.2014   0.2255

     the Fermi energy is    -6.5052 ev

!    total energy              =     -43.82603022 Ry
     Harris-Foulkes estimate   =     -43.82603022 Ry
     estimated scf accuracy    <          3.0E-09 Ry

     total all-electron energy =      -152.672912 Ry

     The total energy is the sum of the following terms:

     one-electron contribution =     -59.74365445 Ry
     hartree contribution      =      31.57506000 Ry
     xc contribution           =      -8.51571859 Ry
     ewald contribution        =       2.43276672 Ry
     one-center paw contrib.   =      -9.57856137 Ry
     smearing contrib. (-TS)   =       0.00407747 Ry

     convergence has been achieved in   8 iterations

     Writing output data file pwscf.save
 
     init_run     :      0.14s CPU      0.98s WALL (       1 calls)
     electrons    :      0.50s CPU      0.59s WALL (       1 calls)

     Called by init_run:
     wfcinit      :      0.03s CPU      0.85s WALL (       1 calls)
     potinit      :      0.03s CPU      0.04s WALL (       1 calls)

     Called by electrons:
     c_bands      :      0.15s CPU      0.15s WALL (       8 calls)
     sum_band     :      0.07s CPU      0.08s WALL (       8 calls)
     v_of_rho     :      0.09s CPU      0.09s WALL (       9 calls)
     newd         :      0.05s CPU      0.05s WALL (       9 calls)
     PAW_pot      :      0.07s CPU      0.08s WALL (       9 calls)
     mix_rho      :      0.03s CPU      0.06s WALL (       8 calls)

     Called by c_bands:
     init_us_2    :      0.00s CPU      0.00s WALL (      17 calls)
     cegterg      :      0.14s CPU      0.15s WALL (       8 calls)

     Called by sum_band:
     sum_band:bec :      0.00s CPU      0.00s WALL (       8 calls)
     addusdens    :      0.05s CPU      0.05s WALL (       8 calls)

     Called by *egterg:
     h_psi        :      0.14s CPU      0.15s WALL (      51 calls)
     s_psi        :      0.00s CPU      0.00s WALL (      51 calls)
     g_psi        :      0.00s CPU      0.00s WALL (      42 calls)
     cdiaghg      :      0.01s CPU      0.01s WALL (      50 calls)

     Called by h_psi:
     h_psi:pot    :      0.14s CPU      0.15s WALL (      51 calls)
     h_psi:calbec :      0.00s CPU      0.00s WALL (      51 calls)
     vloc_psi     :      0.13s CPU      0.14s WALL (      51 calls)
     add_vuspsi   :      0.00s CPU      0.00s WALL (      51 calls)

     General routines
     calbec       :      0.00s CPU      0.01s WALL (      59 calls)
     fft          :      0.06s CPU      0.06s WALL (     116 calls)
     fftw         :      0.14s CPU      0.14s WALL (     500 calls)
     davcio       :      0.01s CPU      0.02s WALL (      69 calls)
 
     Parallel routines
     fft_scatt_xy :      0.01s CPU      0.01s WALL (     616 calls)
     fft_scatt_yz :      0.08s CPU      0.09s WALL (     616 calls)
 
     PWSCF        :     1.34s CPU         2.75s WALL

 
   This run was terminated on:  19: 6: 6  17May2018            

=------------------------------------------------------------------------------=
   JOB DONE.
=------------------------------------------------------------------------------=
