
     Program PWSCF v.6.2 (svn rev. 14038) starts on 17May2018 at 19: 6:54 

     This program is part of the open-source Quantum ESPRESSO suite
     for quantum simulation of materials; please cite
         "P. Giannozzi et al., J. Phys.:Condens. Matter 21 395502 (2009);
         "P. Giannozzi et al., J. Phys.:Condens. Matter 29 465901 (2017);
          URL http://www.quantum-espresso.org", 
     in publications or presentations arising from this work. More details at
     http://www.quantum-espresso.org/quote

     Parallel version (MPI), running on    28 processors

     MPI processes distributed on     1 nodes
     R & G space division:  proc/nbgrp/npool/nimage =      28
     Reading input from ../ecut2-30/5500.in
Warning: card &IONS ignored
Warning: card     POT_EXTRAPOLATION='SECOND-ORDER' ignored
Warning: card     WFC_EXTRAPOLATION='SECOND-ORDER' ignored
Warning: card     ION_TEMPERATURE = 'ANDERSEN' ignored
Warning: card / ignored

     Current dimensions of program PWSCF are:
     Max number of different atomic species (ntypx) = 10
     Max number of k-points (npk) =  40000
     Max angular momentum in pseudopotentials (lmaxx) =  3
               file H.pbe-kjpaw_psl.1.0.0.UPF: wavefunction(s)  1S renormalized
               file O.pbe-n-kjpaw_psl.1.0.0.UPF: wavefunction(s)  2S 2P renormalized

     Subspace diagonalization in iterative solution of the eigenvalue problem:
     a serial algorithm will be used

 
     Parallelization info
     --------------------
     sticks:   dense  smooth     PW     G-vecs:    dense   smooth      PW
     Min         136     136     33                 6338     6338     787
     Max         137     137     34                 6341     6341     792
     Sum        3809    3809    949               177509   177509   22119
 


     bravais-lattice index     =            1
     lattice parameter (alat)  =      20.0000  a.u.
     unit-cell volume          =    8000.0000 (a.u.)^3
     number of atoms/cell      =            3
     number of atomic types    =            2
     number of electrons       =         8.00
     number of Kohn-Sham states=            8
     kinetic-energy cutoff     =      30.0000  Ry
     charge density cutoff     =     120.0000  Ry
     convergence threshold     =      1.0E-08
     mixing beta               =       0.7000
     number of iterations used =            8  plain     mixing
     Exchange-correlation      = SLA PW PBX PBC ( 1  4  3  4 0 0)

     celldm(1)=  20.000000  celldm(2)=   0.000000  celldm(3)=   0.000000
     celldm(4)=   0.000000  celldm(5)=   0.000000  celldm(6)=   0.000000

     crystal axes: (cart. coord. in units of alat)
               a(1) = (   1.000000   0.000000   0.000000 )  
               a(2) = (   0.000000   1.000000   0.000000 )  
               a(3) = (   0.000000   0.000000   1.000000 )  

     reciprocal axes: (cart. coord. in units 2 pi/alat)
               b(1) = (  1.000000  0.000000  0.000000 )  
               b(2) = (  0.000000  1.000000  0.000000 )  
               b(3) = (  0.000000  0.000000  1.000000 )  


     PseudoPot. # 1 for H  read from file:
     ../pslibrary/pbe/PSEUDOPOTENTIALS/H.pbe-kjpaw_psl.1.0.0.UPF
     MD5 check sum: e77ef4e89cfa2d6a63e4c80bb1a147aa
     Pseudo is Projector augmented-wave, Zval =  1.0
     Generated using "atomic" code by A. Dal Corso v.6.2 svn rev. 14038
     Shape of augmentation charge: PSQ
     Using radial grid of  929 points,  2 beta functions with: 
                l(1) =   0
                l(2) =   0
     Q(r) pseudized with 0 coefficients 


     PseudoPot. # 2 for O  read from file:
     ../pslibrary/pbe/PSEUDOPOTENTIALS/O.pbe-n-kjpaw_psl.1.0.0.UPF
     MD5 check sum: bb09017f9a02654af35f7312a94eda3e
     Pseudo is Projector augmented-wave + core cor, Zval =  6.0
     Generated using "atomic" code by A. Dal Corso v.6.2 svn rev. 14038
     Shape of augmentation charge: PSQ
     Using radial grid of 1095 points,  4 beta functions with: 
                l(1) =   0
                l(2) =   0
                l(3) =   1
                l(4) =   1
     Q(r) pseudized with 0 coefficients 


     atomic species   valence    mass     pseudopotential
        H              1.00     1.01000     H ( 1.00)
        O              6.00    16.00000     O ( 1.00)

     No symmetry found



   Cartesian axes

     site n.     atom                  positions (alat units)
         1           O   tau(   1) = (   0.0025643   0.0006510   0.0125866  )
         2           H   tau(   2) = (   0.0351142  -0.0521297  -0.1032954  )
         3           H   tau(   3) = (  -0.0757367   0.0418167  -0.0077318  )

     number of k points=     1  Marzari-Vanderbilt smearing, width (Ry)=  0.0250
                       cart. coord. in units 2pi/alat
        k(    1) = (   0.0000000   0.0000000   0.0000000), wk =   2.0000000

     Dense  grid:   177509 G-vectors     FFT dimensions: (  72,  72,  72)

     Estimated max dynamical RAM per process >       8.54 MB

     Estimated total dynamical RAM >     239.18 MB

     Check: negative/imaginary core charge=   -0.000016    0.000000

     Initial potential from superposition of free atoms
     Check: negative starting charge=   -0.092178

     starting charge    7.99998, renormalised to    8.00000

     negative rho (up, down):  9.218E-02 0.000E+00
     Starting wfc are    6 randomized atomic wfcs +    2 random wfc
     Checking if some PAW data can be deallocated... 

     total cpu time spent up to now is        1.3 secs

     Self-consistent Calculation

     iteration #  1     ecut=    30.00 Ry     beta= 0.70
     Davidson diagonalization with overlap
     ethr =  1.00E-02,  avg # of iterations =  6.0

     negative rho (up, down):  1.217E-01 0.000E+00

     total cpu time spent up to now is        1.5 secs

     total energy              =     -43.58272973 Ry
     Harris-Foulkes estimate   =     -43.88388921 Ry
     estimated scf accuracy    <       0.41286174 Ry

     iteration #  2     ecut=    30.00 Ry     beta= 0.70
     Davidson diagonalization with overlap
     ethr =  5.16E-03,  avg # of iterations =  3.0

     negative rho (up, down):  1.083E-01 0.000E+00

     total cpu time spent up to now is        1.6 secs

     total energy              =     -43.57192643 Ry
     Harris-Foulkes estimate   =     -43.99726257 Ry
     estimated scf accuracy    <       1.10762765 Ry

     iteration #  3     ecut=    30.00 Ry     beta= 0.70
     Davidson diagonalization with overlap
     ethr =  5.16E-03,  avg # of iterations =  3.0

     negative rho (up, down):  1.173E-01 0.000E+00

     total cpu time spent up to now is        1.6 secs

     total energy              =     -43.77177613 Ry
     Harris-Foulkes estimate   =     -43.77629038 Ry
     estimated scf accuracy    <       0.01081100 Ry

     iteration #  4     ecut=    30.00 Ry     beta= 0.70
     Davidson diagonalization with overlap
     ethr =  1.35E-04,  avg # of iterations =  4.0

     negative rho (up, down):  1.182E-01 0.000E+00

     total cpu time spent up to now is        1.7 secs

     total energy              =     -43.77100489 Ry
     Harris-Foulkes estimate   =     -43.77183747 Ry
     estimated scf accuracy    <       0.00188215 Ry

     iteration #  5     ecut=    30.00 Ry     beta= 0.70
     Davidson diagonalization with overlap
     ethr =  2.35E-05,  avg # of iterations = 11.0

     negative rho (up, down):  1.176E-01 0.000E+00

     total cpu time spent up to now is        1.8 secs

     total energy              =     -43.77115657 Ry
     Harris-Foulkes estimate   =     -43.77125287 Ry
     estimated scf accuracy    <       0.00023254 Ry

     iteration #  6     ecut=    30.00 Ry     beta= 0.70
     Davidson diagonalization with overlap
     ethr =  2.91E-06,  avg # of iterations = 11.0

     negative rho (up, down):  1.175E-01 0.000E+00

     total cpu time spent up to now is        1.9 secs

     total energy              =     -43.77117026 Ry
     Harris-Foulkes estimate   =     -43.77117865 Ry
     estimated scf accuracy    <       0.00002025 Ry

     iteration #  7     ecut=    30.00 Ry     beta= 0.70
     Davidson diagonalization with overlap
     ethr =  2.53E-07,  avg # of iterations =  2.0

     negative rho (up, down):  1.177E-01 0.000E+00

     total cpu time spent up to now is        1.9 secs

     total energy              =     -43.77117383 Ry
     Harris-Foulkes estimate   =     -43.77117411 Ry
     estimated scf accuracy    <       0.00000047 Ry

     iteration #  8     ecut=    30.00 Ry     beta= 0.70
     Davidson diagonalization with overlap
     ethr =  5.89E-09,  avg # of iterations =  2.0

     negative rho (up, down):  1.177E-01 0.000E+00

     total cpu time spent up to now is        2.0 secs

     total energy              =     -43.77117396 Ry
     Harris-Foulkes estimate   =     -43.77117401 Ry
     estimated scf accuracy    <       0.00000007 Ry

     iteration #  9     ecut=    30.00 Ry     beta= 0.70
     Davidson diagonalization with overlap
     ethr =  8.22E-10,  avg # of iterations =  1.0

     negative rho (up, down):  1.177E-01 0.000E+00

     total cpu time spent up to now is        2.0 secs

     total energy              =     -43.77117395 Ry
     Harris-Foulkes estimate   =     -43.77117396 Ry
     estimated scf accuracy    <       0.00000001 Ry

     iteration # 10     ecut=    30.00 Ry     beta= 0.70
     Davidson diagonalization with overlap
     ethr =  1.38E-10,  avg # of iterations =  3.0

     negative rho (up, down):  1.177E-01 0.000E+00

     total cpu time spent up to now is        2.1 secs

     End of self-consistent calculation

          k = 0.0000 0.0000 0.0000 ( 22119 PWs)   bands (ev):

   -24.3947 -11.3756  -9.0866  -6.8675  -2.7690  -0.8768   0.0054   0.2560

     the Fermi energy is    -6.5542 ev

!    total energy              =     -43.77117396 Ry
     Harris-Foulkes estimate   =     -43.77117396 Ry
     estimated scf accuracy    <          3.2E-09 Ry

     total all-electron energy =      -152.618055 Ry

     The total energy is the sum of the following terms:

     one-electron contribution =     -60.07953999 Ry
     hartree contribution      =      31.73093232 Ry
     xc contribution           =      -8.55769571 Ry
     ewald contribution        =       2.70945124 Ry
     one-center paw contrib.   =      -9.57839929 Ry
     smearing contrib. (-TS)   =       0.00407747 Ry

     convergence has been achieved in  10 iterations

     Writing output data file pwscf.save
 
     init_run     :      0.32s CPU      0.38s WALL (       1 calls)
     electrons    :      0.72s CPU      0.88s WALL (       1 calls)

     Called by init_run:
     wfcinit      :      0.20s CPU      0.24s WALL (       1 calls)
     potinit      :      0.04s CPU      0.04s WALL (       1 calls)

     Called by electrons:
     c_bands      :      0.18s CPU      0.20s WALL (      10 calls)
     sum_band     :      0.10s CPU      0.10s WALL (      10 calls)
     v_of_rho     :      0.11s CPU      0.12s WALL (      11 calls)
     newd         :      0.06s CPU      0.06s WALL (      11 calls)
     PAW_pot      :      0.09s CPU      0.10s WALL (      11 calls)
     mix_rho      :      0.05s CPU      0.08s WALL (      10 calls)

     Called by c_bands:
     init_us_2    :      0.00s CPU      0.01s WALL (      21 calls)
     cegterg      :      0.18s CPU      0.19s WALL (      10 calls)

     Called by sum_band:
     sum_band:bec :      0.00s CPU      0.00s WALL (      10 calls)
     addusdens    :      0.06s CPU      0.06s WALL (      10 calls)

     Called by *egterg:
     h_psi        :      0.34s CPU      0.36s WALL (      57 calls)
     s_psi        :      0.00s CPU      0.00s WALL (      57 calls)
     g_psi        :      0.00s CPU      0.00s WALL (      46 calls)
     cdiaghg      :      0.01s CPU      0.01s WALL (      56 calls)

     Called by h_psi:
     h_psi:pot    :      0.34s CPU      0.36s WALL (      57 calls)
     h_psi:calbec :      0.00s CPU      0.01s WALL (      57 calls)
     vloc_psi     :      0.33s CPU      0.35s WALL (      57 calls)
     add_vuspsi   :      0.00s CPU      0.00s WALL (      57 calls)

     General routines
     calbec       :      0.01s CPU      0.01s WALL (      67 calls)
     fft          :      0.07s CPU      0.08s WALL (     142 calls)
     fftw         :      0.34s CPU      0.36s WALL (     586 calls)
     davcio       :      0.01s CPU      0.03s WALL (     107 calls)
 
     Parallel routines
     fft_scatt_xy :      0.02s CPU      0.02s WALL (     728 calls)
     fft_scatt_yz :      0.28s CPU      0.29s WALL (     728 calls)
 
     PWSCF        :     1.73s CPU         2.39s WALL

 
   This run was terminated on:  19: 6:57  17May2018            

=------------------------------------------------------------------------------=
   JOB DONE.
=------------------------------------------------------------------------------=
