
     Program PWSCF v.6.2 (svn rev. 14038) starts on 17May2018 at 19: 7:38 

     This program is part of the open-source Quantum ESPRESSO suite
     for quantum simulation of materials; please cite
         "P. Giannozzi et al., J. Phys.:Condens. Matter 21 395502 (2009);
         "P. Giannozzi et al., J. Phys.:Condens. Matter 29 465901 (2017);
          URL http://www.quantum-espresso.org", 
     in publications or presentations arising from this work. More details at
     http://www.quantum-espresso.org/quote

     Parallel version (MPI), running on    28 processors

     MPI processes distributed on     1 nodes
     R & G space division:  proc/nbgrp/npool/nimage =      28
     Reading input from ../ecut2-30/8500.in
Warning: card &IONS ignored
Warning: card     POT_EXTRAPOLATION='SECOND-ORDER' ignored
Warning: card     WFC_EXTRAPOLATION='SECOND-ORDER' ignored
Warning: card     ION_TEMPERATURE = 'ANDERSEN' ignored
Warning: card / ignored

     Current dimensions of program PWSCF are:
     Max number of different atomic species (ntypx) = 10
     Max number of k-points (npk) =  40000
     Max angular momentum in pseudopotentials (lmaxx) =  3
               file H.pbe-kjpaw_psl.1.0.0.UPF: wavefunction(s)  1S renormalized
               file O.pbe-n-kjpaw_psl.1.0.0.UPF: wavefunction(s)  2S 2P renormalized

     Subspace diagonalization in iterative solution of the eigenvalue problem:
     a serial algorithm will be used

 
     Parallelization info
     --------------------
     sticks:   dense  smooth     PW     G-vecs:    dense   smooth      PW
     Min         136     136     33                 6338     6338     787
     Max         137     137     34                 6341     6341     792
     Sum        3809    3809    949               177509   177509   22119
 


     bravais-lattice index     =            1
     lattice parameter (alat)  =      20.0000  a.u.
     unit-cell volume          =    8000.0000 (a.u.)^3
     number of atoms/cell      =            3
     number of atomic types    =            2
     number of electrons       =         8.00
     number of Kohn-Sham states=            8
     kinetic-energy cutoff     =      30.0000  Ry
     charge density cutoff     =     120.0000  Ry
     convergence threshold     =      1.0E-08
     mixing beta               =       0.7000
     number of iterations used =            8  plain     mixing
     Exchange-correlation      = SLA PW PBX PBC ( 1  4  3  4 0 0)

     celldm(1)=  20.000000  celldm(2)=   0.000000  celldm(3)=   0.000000
     celldm(4)=   0.000000  celldm(5)=   0.000000  celldm(6)=   0.000000

     crystal axes: (cart. coord. in units of alat)
               a(1) = (   1.000000   0.000000   0.000000 )  
               a(2) = (   0.000000   1.000000   0.000000 )  
               a(3) = (   0.000000   0.000000   1.000000 )  

     reciprocal axes: (cart. coord. in units 2 pi/alat)
               b(1) = (  1.000000  0.000000  0.000000 )  
               b(2) = (  0.000000  1.000000  0.000000 )  
               b(3) = (  0.000000  0.000000  1.000000 )  


     PseudoPot. # 1 for H  read from file:
     ../pslibrary/pbe/PSEUDOPOTENTIALS/H.pbe-kjpaw_psl.1.0.0.UPF
     MD5 check sum: e77ef4e89cfa2d6a63e4c80bb1a147aa
     Pseudo is Projector augmented-wave, Zval =  1.0
     Generated using "atomic" code by A. Dal Corso v.6.2 svn rev. 14038
     Shape of augmentation charge: PSQ
     Using radial grid of  929 points,  2 beta functions with: 
                l(1) =   0
                l(2) =   0
     Q(r) pseudized with 0 coefficients 


     PseudoPot. # 2 for O  read from file:
     ../pslibrary/pbe/PSEUDOPOTENTIALS/O.pbe-n-kjpaw_psl.1.0.0.UPF
     MD5 check sum: bb09017f9a02654af35f7312a94eda3e
     Pseudo is Projector augmented-wave + core cor, Zval =  6.0
     Generated using "atomic" code by A. Dal Corso v.6.2 svn rev. 14038
     Shape of augmentation charge: PSQ
     Using radial grid of 1095 points,  4 beta functions with: 
                l(1) =   0
                l(2) =   0
                l(3) =   1
                l(4) =   1
     Q(r) pseudized with 0 coefficients 


     atomic species   valence    mass     pseudopotential
        H              1.00     1.01000     H ( 1.00)
        O              6.00    16.00000     O ( 1.00)

     No symmetry found



   Cartesian axes

     site n.     atom                  positions (alat units)
         1           O   tau(   1) = (   0.0110623  -0.0004035   0.0041070  )
         2           H   tau(   2) = (  -0.0865487   0.0494376  -0.0397333  )
         3           H   tau(   3) = (  -0.0886951  -0.0430461   0.0630350  )

     number of k points=     1  Marzari-Vanderbilt smearing, width (Ry)=  0.0250
                       cart. coord. in units 2pi/alat
        k(    1) = (   0.0000000   0.0000000   0.0000000), wk =   2.0000000

     Dense  grid:   177509 G-vectors     FFT dimensions: (  72,  72,  72)

     Estimated max dynamical RAM per process >       8.54 MB

     Estimated total dynamical RAM >     239.18 MB

     Check: negative/imaginary core charge=   -0.000016    0.000000

     Initial potential from superposition of free atoms
     Check: negative starting charge=   -0.092756

     starting charge    7.99998, renormalised to    8.00000

     negative rho (up, down):  9.276E-02 0.000E+00
     Starting wfc are    6 randomized atomic wfcs +    2 random wfc
     Checking if some PAW data can be deallocated... 

     total cpu time spent up to now is        1.0 secs

     Self-consistent Calculation

     iteration #  1     ecut=    30.00 Ry     beta= 0.70
     Davidson diagonalization with overlap
     ethr =  1.00E-02,  avg # of iterations =  6.0

     negative rho (up, down):  1.171E-01 0.000E+00

     total cpu time spent up to now is        1.1 secs

     total energy              =     -43.58049784 Ry
     Harris-Foulkes estimate   =     -43.80051785 Ry
     estimated scf accuracy    <       0.30817656 Ry

     iteration #  2     ecut=    30.00 Ry     beta= 0.70
     Davidson diagonalization with overlap
     ethr =  3.85E-03,  avg # of iterations =  3.0

     negative rho (up, down):  1.059E-01 0.000E+00

     total cpu time spent up to now is        1.1 secs

     total energy              =     -43.53783614 Ry
     Harris-Foulkes estimate   =     -43.92073299 Ry
     estimated scf accuracy    <       1.05775806 Ry

     iteration #  3     ecut=    30.00 Ry     beta= 0.70
     Davidson diagonalization with overlap
     ethr =  3.85E-03,  avg # of iterations =  3.0

     negative rho (up, down):  1.157E-01 0.000E+00

     total cpu time spent up to now is        1.2 secs

     total energy              =     -43.72227831 Ry
     Harris-Foulkes estimate   =     -43.72589787 Ry
     estimated scf accuracy    <       0.00948114 Ry

     iteration #  4     ecut=    30.00 Ry     beta= 0.70
     Davidson diagonalization with overlap
     ethr =  1.19E-04,  avg # of iterations =  6.0

     negative rho (up, down):  1.151E-01 0.000E+00

     total cpu time spent up to now is        1.2 secs

     total energy              =     -43.72031819 Ry
     Harris-Foulkes estimate   =     -43.72048595 Ry
     estimated scf accuracy    <       0.00040270 Ry

     iteration #  5     ecut=    30.00 Ry     beta= 0.70
     Davidson diagonalization with overlap
     ethr =  5.03E-06,  avg # of iterations = 12.0

     negative rho (up, down):  1.150E-01 0.000E+00

     total cpu time spent up to now is        1.3 secs

     total energy              =     -43.72035014 Ry
     Harris-Foulkes estimate   =     -43.72036509 Ry
     estimated scf accuracy    <       0.00004487 Ry

     iteration #  6     ecut=    30.00 Ry     beta= 0.70
     Davidson diagonalization with overlap
     ethr =  5.61E-07,  avg # of iterations =  3.0

     negative rho (up, down):  1.151E-01 0.000E+00

     total cpu time spent up to now is        1.4 secs

     total energy              =     -43.72035266 Ry
     Harris-Foulkes estimate   =     -43.72035318 Ry
     estimated scf accuracy    <       0.00000255 Ry

     iteration #  7     ecut=    30.00 Ry     beta= 0.70
     Davidson diagonalization with overlap
     ethr =  3.19E-08,  avg # of iterations =  3.0

     negative rho (up, down):  1.151E-01 0.000E+00

     total cpu time spent up to now is        1.4 secs

     total energy              =     -43.72035354 Ry
     Harris-Foulkes estimate   =     -43.72035373 Ry
     estimated scf accuracy    <       0.00000037 Ry

     iteration #  8     ecut=    30.00 Ry     beta= 0.70
     Davidson diagonalization with overlap
     ethr =  4.67E-09,  avg # of iterations =  1.0

     negative rho (up, down):  1.151E-01 0.000E+00

     total cpu time spent up to now is        1.5 secs

     total energy              =     -43.72035349 Ry
     Harris-Foulkes estimate   =     -43.72035357 Ry
     estimated scf accuracy    <       0.00000010 Ry

     iteration #  9     ecut=    30.00 Ry     beta= 0.70
     Davidson diagonalization with overlap
     ethr =  1.25E-09,  avg # of iterations =  3.0

     negative rho (up, down):  1.151E-01 0.000E+00

     total cpu time spent up to now is        1.5 secs

     End of self-consistent calculation

          k = 0.0000 0.0000 0.0000 ( 22119 PWs)   bands (ev):

   -23.5623 -10.6256  -9.4468  -6.8624  -2.6924  -0.9407  -0.7655   0.2153

     the Fermi energy is    -6.5491 ev

!    total energy              =     -43.72035351 Ry
     Harris-Foulkes estimate   =     -43.72035351 Ry
     estimated scf accuracy    <          1.5E-09 Ry

     total all-electron energy =      -152.567235 Ry

     The total energy is the sum of the following terms:

     one-electron contribution =     -58.10712197 Ry
     hartree contribution      =      30.72965850 Ry
     xc contribution           =      -8.38997023 Ry
     ewald contribution        =       1.62709636 Ry
     one-center paw contrib.   =      -9.58409364 Ry
     smearing contrib. (-TS)   =       0.00407747 Ry

     convergence has been achieved in   9 iterations

     Writing output data file pwscf.save
 
     init_run     :      0.14s CPU      0.18s WALL (       1 calls)
     electrons    :      0.51s CPU      0.63s WALL (       1 calls)

     Called by init_run:
     wfcinit      :      0.02s CPU      0.05s WALL (       1 calls)
     potinit      :      0.03s CPU      0.04s WALL (       1 calls)

     Called by electrons:
     c_bands      :      0.15s CPU      0.16s WALL (       9 calls)
     sum_band     :      0.08s CPU      0.09s WALL (       9 calls)
     v_of_rho     :      0.10s CPU      0.10s WALL (      10 calls)
     newd         :      0.05s CPU      0.06s WALL (      10 calls)
     PAW_pot      :      0.08s CPU      0.09s WALL (      10 calls)
     mix_rho      :      0.04s CPU      0.07s WALL (       9 calls)

     Called by c_bands:
     init_us_2    :      0.00s CPU      0.00s WALL (      19 calls)
     cegterg      :      0.15s CPU      0.15s WALL (       9 calls)

     Called by sum_band:
     sum_band:bec :      0.00s CPU      0.00s WALL (       9 calls)
     addusdens    :      0.05s CPU      0.05s WALL (       9 calls)

     Called by *egterg:
     h_psi        :      0.14s CPU      0.15s WALL (      50 calls)
     s_psi        :      0.00s CPU      0.00s WALL (      50 calls)
     g_psi        :      0.00s CPU      0.00s WALL (      40 calls)
     cdiaghg      :      0.01s CPU      0.01s WALL (      49 calls)

     Called by h_psi:
     h_psi:pot    :      0.14s CPU      0.15s WALL (      50 calls)
     h_psi:calbec :      0.00s CPU      0.00s WALL (      50 calls)
     vloc_psi     :      0.13s CPU      0.14s WALL (      50 calls)
     add_vuspsi   :      0.00s CPU      0.00s WALL (      50 calls)

     General routines
     calbec       :      0.00s CPU      0.01s WALL (      59 calls)
     fft          :      0.06s CPU      0.07s WALL (     129 calls)
     fftw         :      0.14s CPU      0.15s WALL (     512 calls)
     davcio       :      0.01s CPU      0.03s WALL (      87 calls)
 
     Parallel routines
     fft_scatt_xy :      0.02s CPU      0.02s WALL (     641 calls)
     fft_scatt_yz :      0.08s CPU      0.09s WALL (     641 calls)
 
     PWSCF        :     1.37s CPU         1.84s WALL

 
   This run was terminated on:  19: 7:40  17May2018            

=------------------------------------------------------------------------------=
   JOB DONE.
=------------------------------------------------------------------------------=
