
     Program PWSCF v.6.0 (svn rev. 13079) starts on 27Apr2018 at 20:54:38 

     This program is part of the open-source Quantum ESPRESSO suite
     for quantum simulation of materials; please cite
         "P. Giannozzi et al., J. Phys.:Condens. Matter 21 395502 (2009);
          URL http://www.quantum-espresso.org", 
     in publications or presentations arising from this work. More details at
     http://www.quantum-espresso.org/quote

     Parallel version (MPI), running on    28 processors
     R & G space division:  proc/nbgrp/npool/nimage =      28
     Reading input from ../SCF-H2O-in/1117.in
Warning: card &IONS ignored
Warning: card     POT_EXTRAPOLATION='SECOND-ORDER' ignored
Warning: card     WFC_EXTRAPOLATION='SECOND-ORDER' ignored
Warning: card     ION_TEMPERATURE = 'ANDERSEN' ignored
Warning: card     TEMPW = 1000 ignored
Warning: card / ignored

     Current dimensions of program PWSCF are:
     Max number of different atomic species (ntypx) = 10
     Max number of k-points (npk) =  40000
     Max angular momentum in pseudopotentials (lmaxx) =  3

     Subspace diagonalization in iterative solution of the eigenvalue problem:
     a serial algorithm will be used

 
     Parallelization info
     --------------------
     sticks:   dense  smooth     PW     G-vecs:    dense   smooth      PW
     Min          38      38      9                  934      934     117
     Max          39      39     11                  937      937     120
     Sum        1085    1085    277                26193    26193    3287
 


     bravais-lattice index     =            1
     lattice parameter (alat)  =      10.5835  a.u.
     unit-cell volume          =    1185.4776 (a.u.)^3
     number of atoms/cell      =            3
     number of atomic types    =            2
     number of electrons       =         8.00
     number of Kohn-Sham states=            8
     kinetic-energy cutoff     =      30.0000  Ry
     charge density cutoff     =     120.0000  Ry
     convergence threshold     =      1.0E-08
     mixing beta               =       0.7000
     number of iterations used =            8  plain     mixing
     Exchange-correlation      = BLYP ( 1  3  1  3 0 0)

     celldm(1)=  10.583544  celldm(2)=   0.000000  celldm(3)=   0.000000
     celldm(4)=   0.000000  celldm(5)=   0.000000  celldm(6)=   0.000000

     crystal axes: (cart. coord. in units of alat)
               a(1) = (   1.000000   0.000000   0.000000 )  
               a(2) = (   0.000000   1.000000   0.000000 )  
               a(3) = (   0.000000   0.000000   1.000000 )  

     reciprocal axes: (cart. coord. in units 2 pi/alat)
               b(1) = (  1.000000  0.000000  0.000000 )  
               b(2) = (  0.000000  1.000000  0.000000 )  
               b(3) = (  0.000000  0.000000  1.000000 )  


     PseudoPot. # 1 for  H read from file:
     ./H.blyp-hgh.UPF
     MD5 check sum: c576e69559cde411e611be972c763230
     Pseudo is Norm-conserving, Zval =  1.0
     Generated in analytical, separable form
     Using radial grid of  929 points,  0 beta functions with: 

     PseudoPot. # 2 for  O read from file:
     ./O.blyp-hgh.UPF
     MD5 check sum: d0b7156309aa9befef28faac7bc56342
     Pseudo is Norm-conserving, Zval =  6.0
     Generated in analytical, separable form
     Using radial grid of 1095 points,  1 beta functions with: 
                l(1) =   0

     atomic species   valence    mass     pseudopotential
        H              1.00     1.01000      H( 1.00)
        O              6.00    16.00000      O( 1.00)

     No symmetry found



   Cartesian axes

     site n.     atom                  positions (alat units)
         1           O   tau(   1) = (   0.0006707  -0.0026301   0.0111606  )
         2           H   tau(   2) = (  -0.0123422   0.0884296  -0.0195485  )
         3           H   tau(   3) = (   0.0017178  -0.0467644  -0.0688895  )

     number of k points=     1  Marzari-Vanderbilt smearing, width (Ry)=  0.0250
                       cart. coord. in units 2pi/alat
        k(    1) = (   0.0000000   0.0000000   0.0000000), wk =   2.0000000

     Dense  grid:    26193 G-vectors     FFT dimensions: (  40,  40,  40)

     Estimated max dynamical RAM per process >       0.90Mb

     Estimated total allocated dynamical RAM >      25.18Mb

     Initial potential from superposition of free atoms
     Check: negative starting charge=   -0.100970

     starting charge    7.99998, renormalised to    8.00000

     negative rho (up, down):  1.010E-01 0.000E+00
     Starting wfc are    6 randomized atomic wfcs +    2 random wfc

     total cpu time spent up to now is        0.1 secs

     per-process dynamical memory:    14.5 Mb

     Self-consistent Calculation

     iteration #  1     ecut=    30.00 Ry     beta=0.70
     Davidson diagonalization with overlap
     ethr =  1.00E-02,  avg # of iterations =  7.0

     negative rho (up, down):  2.756E-02 0.000E+00

     total cpu time spent up to now is        0.2 secs

     total energy              =     -29.22139474 Ry
     Harris-Foulkes estimate   =     -29.85951268 Ry
     estimated scf accuracy    <       0.63561588 Ry

     iteration #  2     ecut=    30.00 Ry     beta=0.70
     Davidson diagonalization with overlap
     ethr =  7.95E-03,  avg # of iterations =  2.0

     negative rho (up, down):  8.375E-03 0.000E+00

     total cpu time spent up to now is        0.2 secs

     total energy              =     -29.30367662 Ry
     Harris-Foulkes estimate   =     -29.35034611 Ry
     estimated scf accuracy    <       0.06600976 Ry

     iteration #  3     ecut=    30.00 Ry     beta=0.70
     Davidson diagonalization with overlap
     ethr =  8.25E-04,  avg # of iterations =  2.0

     negative rho (up, down):  3.442E-04 0.000E+00

     total cpu time spent up to now is        0.2 secs

     total energy              =     -29.32796551 Ry
     Harris-Foulkes estimate   =     -29.32442944 Ry
     estimated scf accuracy    <       0.00593885 Ry

     iteration #  4     ecut=    30.00 Ry     beta=0.70
     Davidson diagonalization with overlap
     ethr =  7.42E-05,  avg # of iterations =  8.0

     negative rho (up, down):  4.549E-06 0.000E+00

     total cpu time spent up to now is        0.2 secs

     total energy              =     -29.32983087 Ry
     Harris-Foulkes estimate   =     -29.32918077 Ry
     estimated scf accuracy    <       0.00010644 Ry

     iteration #  5     ecut=    30.00 Ry     beta=0.70
     Davidson diagonalization with overlap
     ethr =  1.33E-06,  avg # of iterations = 14.0

     total cpu time spent up to now is        0.3 secs

     total energy              =     -29.32987767 Ry
     Harris-Foulkes estimate   =     -29.32985210 Ry
     estimated scf accuracy    <       0.00000098 Ry

     iteration #  6     ecut=    30.00 Ry     beta=0.70
     Davidson diagonalization with overlap
     ethr =  1.23E-08,  avg # of iterations =  2.0

     total cpu time spent up to now is        0.3 secs

     total energy              =     -29.32987829 Ry
     Harris-Foulkes estimate   =     -29.32987795 Ry
     estimated scf accuracy    <       0.00000005 Ry

     iteration #  7     ecut=    30.00 Ry     beta=0.70
     Davidson diagonalization with overlap
     ethr =  6.40E-10,  avg # of iterations =  2.0

     total cpu time spent up to now is        0.3 secs

     End of self-consistent calculation

          k = 0.0000 0.0000 0.0000 (  3287 PWs)   bands (ev):

   -33.2301 -17.5136  -9.8862  -7.4124  -0.6818   3.8019   3.8774   3.9666

     the Fermi energy is    -4.9924 ev

!    total energy              =     -29.32987825 Ry
     Harris-Foulkes estimate   =     -29.32987830 Ry
     estimated scf accuracy    <          4.4E-09 Ry

     The total energy is the sum of the following terms:

     one-electron contribution =     -58.70646619 Ry
     hartree contribution      =      30.33535939 Ry
     xc contribution           =      -9.25382615 Ry
     ewald contribution        =       8.29505470 Ry
     smearing contrib. (-TS)   =       0.00000000 Ry

     convergence has been achieved in   7 iterations

     Writing output data file pwscf.save
 
     init_run     :      0.02s CPU      0.03s WALL (       1 calls)
     electrons    :      0.07s CPU      0.17s WALL (       1 calls)

     Called by init_run:
     wfcinit      :      0.00s CPU      0.01s WALL (       1 calls)
     potinit      :      0.01s CPU      0.01s WALL (       1 calls)

     Called by electrons:
     c_bands      :      0.04s CPU      0.04s WALL (       7 calls)
     sum_band     :      0.00s CPU      0.01s WALL (       7 calls)
     v_of_rho     :      0.01s CPU      0.01s WALL (       8 calls)
     mix_rho      :      0.00s CPU      0.00s WALL (       7 calls)

     Called by c_bands:
     init_us_2    :      0.00s CPU      0.00s WALL (      15 calls)
     cegterg      :      0.04s CPU      0.04s WALL (       7 calls)

     Called by sum_band:

     Called by *egterg:
     h_psi        :      0.03s CPU      0.03s WALL (      45 calls)
     g_psi        :      0.00s CPU      0.00s WALL (      37 calls)
     cdiaghg      :      0.01s CPU      0.01s WALL (      44 calls)

     Called by h_psi:
     h_psi:pot    :      0.02s CPU      0.03s WALL (      45 calls)
     h_psi:calbec :      0.00s CPU      0.00s WALL (      45 calls)
     vloc_psi     :      0.02s CPU      0.03s WALL (      45 calls)
     add_vuspsi   :      0.00s CPU      0.00s WALL (      45 calls)

     General routines
     calbec       :      0.00s CPU      0.00s WALL (      45 calls)
     fft          :      0.01s CPU      0.01s WALL (      87 calls)
     fftw         :      0.02s CPU      0.03s WALL (     478 calls)
     davcio       :      0.00s CPU      0.00s WALL (      54 calls)
 
     Parallel routines
     fft_scatter  :      0.02s CPU      0.02s WALL (     565 calls)
 
     PWSCF        :     0.17s CPU         0.47s WALL

 
   This run was terminated on:  20:54:39  27Apr2018            

=------------------------------------------------------------------------------=
   JOB DONE.
=------------------------------------------------------------------------------=
