
     Program PWSCF v.6.0 (svn rev. 13079) starts on 27Apr2018 at 20:57:54 

     This program is part of the open-source Quantum ESPRESSO suite
     for quantum simulation of materials; please cite
         "P. Giannozzi et al., J. Phys.:Condens. Matter 21 395502 (2009);
          URL http://www.quantum-espresso.org", 
     in publications or presentations arising from this work. More details at
     http://www.quantum-espresso.org/quote

     Parallel version (MPI), running on    28 processors
     R & G space division:  proc/nbgrp/npool/nimage =      28
     Reading input from ../SCF-H2O-in/1242.in
Warning: card &IONS ignored
Warning: card     POT_EXTRAPOLATION='SECOND-ORDER' ignored
Warning: card     WFC_EXTRAPOLATION='SECOND-ORDER' ignored
Warning: card     ION_TEMPERATURE = 'ANDERSEN' ignored
Warning: card     TEMPW = 1000 ignored
Warning: card / ignored

     Current dimensions of program PWSCF are:
     Max number of different atomic species (ntypx) = 10
     Max number of k-points (npk) =  40000
     Max angular momentum in pseudopotentials (lmaxx) =  3

     Subspace diagonalization in iterative solution of the eigenvalue problem:
     a serial algorithm will be used

 
     Parallelization info
     --------------------
     sticks:   dense  smooth     PW     G-vecs:    dense   smooth      PW
     Min          38      38      9                  934      934     117
     Max          39      39     11                  937      937     120
     Sum        1085    1085    277                26193    26193    3287
 


     bravais-lattice index     =            1
     lattice parameter (alat)  =      10.5835  a.u.
     unit-cell volume          =    1185.4776 (a.u.)^3
     number of atoms/cell      =            3
     number of atomic types    =            2
     number of electrons       =         8.00
     number of Kohn-Sham states=            8
     kinetic-energy cutoff     =      30.0000  Ry
     charge density cutoff     =     120.0000  Ry
     convergence threshold     =      1.0E-08
     mixing beta               =       0.7000
     number of iterations used =            8  plain     mixing
     Exchange-correlation      = BLYP ( 1  3  1  3 0 0)

     celldm(1)=  10.583544  celldm(2)=   0.000000  celldm(3)=   0.000000
     celldm(4)=   0.000000  celldm(5)=   0.000000  celldm(6)=   0.000000

     crystal axes: (cart. coord. in units of alat)
               a(1) = (   1.000000   0.000000   0.000000 )  
               a(2) = (   0.000000   1.000000   0.000000 )  
               a(3) = (   0.000000   0.000000   1.000000 )  

     reciprocal axes: (cart. coord. in units 2 pi/alat)
               b(1) = (  1.000000  0.000000  0.000000 )  
               b(2) = (  0.000000  1.000000  0.000000 )  
               b(3) = (  0.000000  0.000000  1.000000 )  


     PseudoPot. # 1 for  H read from file:
     ./H.blyp-hgh.UPF
     MD5 check sum: c576e69559cde411e611be972c763230
     Pseudo is Norm-conserving, Zval =  1.0
     Generated in analytical, separable form
     Using radial grid of  929 points,  0 beta functions with: 

     PseudoPot. # 2 for  O read from file:
     ./O.blyp-hgh.UPF
     MD5 check sum: d0b7156309aa9befef28faac7bc56342
     Pseudo is Norm-conserving, Zval =  6.0
     Generated in analytical, separable form
     Using radial grid of 1095 points,  1 beta functions with: 
                l(1) =   0

     atomic species   valence    mass     pseudopotential
        H              1.00     1.01000      H( 1.00)
        O              6.00    16.00000      O( 1.00)

     No symmetry found



   Cartesian axes

     site n.     atom                  positions (alat units)
         1           O   tau(   1) = (  -0.0013369  -0.0019379   0.0103583  )
         2           H   tau(   2) = (  -0.0027821   0.0879841  -0.0236495  )
         3           H   tau(   3) = (   0.0239611  -0.0572838  -0.0520784  )

     number of k points=     1  Marzari-Vanderbilt smearing, width (Ry)=  0.0250
                       cart. coord. in units 2pi/alat
        k(    1) = (   0.0000000   0.0000000   0.0000000), wk =   2.0000000

     Dense  grid:    26193 G-vectors     FFT dimensions: (  40,  40,  40)

     Estimated max dynamical RAM per process >       0.90Mb

     Estimated total allocated dynamical RAM >      25.18Mb

     Initial potential from superposition of free atoms
     Check: negative starting charge=   -0.100897

     starting charge    7.99998, renormalised to    8.00000

     negative rho (up, down):  1.009E-01 0.000E+00
     Starting wfc are    6 randomized atomic wfcs +    2 random wfc

     total cpu time spent up to now is        0.2 secs

     per-process dynamical memory:    14.4 Mb

     Self-consistent Calculation

     iteration #  1     ecut=    30.00 Ry     beta=0.70
     Davidson diagonalization with overlap
     ethr =  1.00E-02,  avg # of iterations =  6.0

     negative rho (up, down):  2.761E-02 0.000E+00

     total cpu time spent up to now is        0.3 secs

     total energy              =     -28.84044867 Ry
     Harris-Foulkes estimate   =     -29.49917755 Ry
     estimated scf accuracy    <       0.66513001 Ry

     iteration #  2     ecut=    30.00 Ry     beta=0.70
     Davidson diagonalization with overlap
     ethr =  8.31E-03,  avg # of iterations =  2.0

     negative rho (up, down):  8.665E-03 0.000E+00

     total cpu time spent up to now is        0.3 secs

     total energy              =     -28.93263051 Ry
     Harris-Foulkes estimate   =     -28.98489501 Ry
     estimated scf accuracy    <       0.07489508 Ry

     iteration #  3     ecut=    30.00 Ry     beta=0.70
     Davidson diagonalization with overlap
     ethr =  9.36E-04,  avg # of iterations =  2.0

     negative rho (up, down):  2.851E-04 0.000E+00

     total cpu time spent up to now is        0.3 secs

     total energy              =     -28.95916464 Ry
     Harris-Foulkes estimate   =     -28.95556540 Ry
     estimated scf accuracy    <       0.00607342 Ry

     iteration #  4     ecut=    30.00 Ry     beta=0.70
     Davidson diagonalization with overlap
     ethr =  7.59E-05,  avg # of iterations =  2.0

     negative rho (up, down):  4.543E-06 0.000E+00

     total cpu time spent up to now is        0.3 secs

     total energy              =     -28.96096247 Ry
     Harris-Foulkes estimate   =     -28.96039027 Ry
     estimated scf accuracy    <       0.00010946 Ry

     iteration #  5     ecut=    30.00 Ry     beta=0.70
     Davidson diagonalization with overlap
     ethr =  1.37E-06,  avg # of iterations = 15.0

     total cpu time spent up to now is        0.3 secs

     total energy              =     -28.96101086 Ry
     Harris-Foulkes estimate   =     -28.96098571 Ry
     estimated scf accuracy    <       0.00000110 Ry

     iteration #  6     ecut=    30.00 Ry     beta=0.70
     Davidson diagonalization with overlap
     ethr =  1.38E-08,  avg # of iterations =  2.0

     total cpu time spent up to now is        0.3 secs

     total energy              =     -28.96101113 Ry
     Harris-Foulkes estimate   =     -28.96101112 Ry
     estimated scf accuracy    <       0.00000004 Ry

     iteration #  7     ecut=    30.00 Ry     beta=0.70
     Davidson diagonalization with overlap
     ethr =  5.59E-10,  avg # of iterations =  2.0

     total cpu time spent up to now is        0.3 secs

     End of self-consistent calculation

          k = 0.0000 0.0000 0.0000 (  3287 PWs)   bands (ev):

   -32.8176 -18.8084  -9.4602  -7.4621  -0.6767   3.8295   3.8813   3.9555

     the Fermi energy is    -4.8976 ev

!    total energy              =     -28.96101106 Ry
     Harris-Foulkes estimate   =     -28.96101114 Ry
     estimated scf accuracy    <          3.8E-09 Ry

     The total energy is the sum of the following terms:

     one-electron contribution =     -59.15981754 Ry
     hartree contribution      =      30.55612510 Ry
     xc contribution           =      -9.30255344 Ry
     ewald contribution        =       8.94523482 Ry
     smearing contrib. (-TS)   =       0.00000000 Ry

     convergence has been achieved in   7 iterations

     Writing output data file pwscf.save
 
     init_run     :      0.02s CPU      0.03s WALL (       1 calls)
     electrons    :      0.09s CPU      0.20s WALL (       1 calls)

     Called by init_run:
     wfcinit      :      0.00s CPU      0.01s WALL (       1 calls)
     potinit      :      0.01s CPU      0.01s WALL (       1 calls)

     Called by electrons:
     c_bands      :      0.04s CPU      0.04s WALL (       7 calls)
     sum_band     :      0.00s CPU      0.01s WALL (       7 calls)
     v_of_rho     :      0.01s CPU      0.01s WALL (       8 calls)
     mix_rho      :      0.00s CPU      0.00s WALL (       7 calls)

     Called by c_bands:
     init_us_2    :      0.00s CPU      0.00s WALL (      15 calls)
     cegterg      :      0.04s CPU      0.04s WALL (       7 calls)

     Called by sum_band:

     Called by *egterg:
     h_psi        :      0.02s CPU      0.03s WALL (      39 calls)
     g_psi        :      0.00s CPU      0.00s WALL (      31 calls)
     cdiaghg      :      0.01s CPU      0.01s WALL (      38 calls)

     Called by h_psi:
     h_psi:pot    :      0.02s CPU      0.03s WALL (      39 calls)
     h_psi:calbec :      0.00s CPU      0.00s WALL (      39 calls)
     vloc_psi     :      0.02s CPU      0.03s WALL (      39 calls)
     add_vuspsi   :      0.00s CPU      0.00s WALL (      39 calls)

     General routines
     calbec       :      0.00s CPU      0.00s WALL (      39 calls)
     fft          :      0.01s CPU      0.01s WALL (      87 calls)
     fftw         :      0.02s CPU      0.03s WALL (     464 calls)
     davcio       :      0.00s CPU      0.00s WALL (      54 calls)
 
     Parallel routines
     fft_scatter  :      0.02s CPU      0.02s WALL (     551 calls)
 
     PWSCF        :     0.21s CPU         0.55s WALL

 
   This run was terminated on:  20:57:55  27Apr2018            

=------------------------------------------------------------------------------=
   JOB DONE.
=------------------------------------------------------------------------------=
