
     Program PWSCF v.6.0 (svn rev. 13079) starts on 27Apr2018 at 22: 4:16 

     This program is part of the open-source Quantum ESPRESSO suite
     for quantum simulation of materials; please cite
         "P. Giannozzi et al., J. Phys.:Condens. Matter 21 395502 (2009);
          URL http://www.quantum-espresso.org", 
     in publications or presentations arising from this work. More details at
     http://www.quantum-espresso.org/quote

     Parallel version (MPI), running on    28 processors
     R & G space division:  proc/nbgrp/npool/nimage =      28
     Reading input from ../SCF-H2O-in/3660.in
Warning: card &IONS ignored
Warning: card     POT_EXTRAPOLATION='SECOND-ORDER' ignored
Warning: card     WFC_EXTRAPOLATION='SECOND-ORDER' ignored
Warning: card     ION_TEMPERATURE = 'ANDERSEN' ignored
Warning: card     TEMPW = 1000 ignored
Warning: card / ignored

     Current dimensions of program PWSCF are:
     Max number of different atomic species (ntypx) = 10
     Max number of k-points (npk) =  40000
     Max angular momentum in pseudopotentials (lmaxx) =  3

     Subspace diagonalization in iterative solution of the eigenvalue problem:
     a serial algorithm will be used

 
     Parallelization info
     --------------------
     sticks:   dense  smooth     PW     G-vecs:    dense   smooth      PW
     Min          38      38      9                  934      934     117
     Max          39      39     11                  937      937     120
     Sum        1085    1085    277                26193    26193    3287
 


     bravais-lattice index     =            1
     lattice parameter (alat)  =      10.5835  a.u.
     unit-cell volume          =    1185.4776 (a.u.)^3
     number of atoms/cell      =            3
     number of atomic types    =            2
     number of electrons       =         8.00
     number of Kohn-Sham states=            8
     kinetic-energy cutoff     =      30.0000  Ry
     charge density cutoff     =     120.0000  Ry
     convergence threshold     =      1.0E-08
     mixing beta               =       0.7000
     number of iterations used =            8  plain     mixing
     Exchange-correlation      = BLYP ( 1  3  1  3 0 0)

     celldm(1)=  10.583544  celldm(2)=   0.000000  celldm(3)=   0.000000
     celldm(4)=   0.000000  celldm(5)=   0.000000  celldm(6)=   0.000000

     crystal axes: (cart. coord. in units of alat)
               a(1) = (   1.000000   0.000000   0.000000 )  
               a(2) = (   0.000000   1.000000   0.000000 )  
               a(3) = (   0.000000   0.000000   1.000000 )  

     reciprocal axes: (cart. coord. in units 2 pi/alat)
               b(1) = (  1.000000  0.000000  0.000000 )  
               b(2) = (  0.000000  1.000000  0.000000 )  
               b(3) = (  0.000000  0.000000  1.000000 )  


     PseudoPot. # 1 for  H read from file:
     ./H.blyp-hgh.UPF
     MD5 check sum: c576e69559cde411e611be972c763230
     Pseudo is Norm-conserving, Zval =  1.0
     Generated in analytical, separable form
     Using radial grid of  929 points,  0 beta functions with: 

     PseudoPot. # 2 for  O read from file:
     ./O.blyp-hgh.UPF
     MD5 check sum: d0b7156309aa9befef28faac7bc56342
     Pseudo is Norm-conserving, Zval =  6.0
     Generated in analytical, separable form
     Using radial grid of 1095 points,  1 beta functions with: 
                l(1) =   0

     atomic species   valence    mass     pseudopotential
        H              1.00     1.01000      H( 1.00)
        O              6.00    16.00000      O( 1.00)

     No symmetry found



   Cartesian axes

     site n.     atom                  positions (alat units)
         1           O   tau(   1) = (  -0.0055815  -0.0003451   0.0089499  )
         2           H   tau(   2) = (   0.0276755   0.0680736  -0.0471433  )
         3           H   tau(   3) = (   0.0607441  -0.0626068  -0.0062742  )

     number of k points=     1  Marzari-Vanderbilt smearing, width (Ry)=  0.0250
                       cart. coord. in units 2pi/alat
        k(    1) = (   0.0000000   0.0000000   0.0000000), wk =   2.0000000

     Dense  grid:    26193 G-vectors     FFT dimensions: (  40,  40,  40)

     Estimated max dynamical RAM per process >       0.90Mb

     Estimated total allocated dynamical RAM >      25.18Mb

     Initial potential from superposition of free atoms
     Check: negative starting charge=   -0.101443

     starting charge    7.99998, renormalised to    8.00000

     negative rho (up, down):  1.014E-01 0.000E+00
     Starting wfc are    6 randomized atomic wfcs +    2 random wfc

     total cpu time spent up to now is        0.2 secs

     per-process dynamical memory:    14.5 Mb

     Self-consistent Calculation

     iteration #  1     ecut=    30.00 Ry     beta=0.70
     Davidson diagonalization with overlap
     ethr =  1.00E-02,  avg # of iterations =  7.0

     negative rho (up, down):  2.776E-02 0.000E+00

     total cpu time spent up to now is        0.3 secs

     total energy              =     -29.11883207 Ry
     Harris-Foulkes estimate   =     -29.76879353 Ry
     estimated scf accuracy    <       0.65530238 Ry

     iteration #  2     ecut=    30.00 Ry     beta=0.70
     Davidson diagonalization with overlap
     ethr =  8.19E-03,  avg # of iterations =  2.0

     negative rho (up, down):  8.481E-03 0.000E+00

     total cpu time spent up to now is        0.3 secs

     total energy              =     -29.20567315 Ry
     Harris-Foulkes estimate   =     -29.25339827 Ry
     estimated scf accuracy    <       0.06750853 Ry

     iteration #  3     ecut=    30.00 Ry     beta=0.70
     Davidson diagonalization with overlap
     ethr =  8.44E-04,  avg # of iterations =  2.0

     negative rho (up, down):  3.884E-04 0.000E+00

     total cpu time spent up to now is        0.3 secs

     total energy              =     -29.23023945 Ry
     Harris-Foulkes estimate   =     -29.22688149 Ry
     estimated scf accuracy    <       0.00599588 Ry

     iteration #  4     ecut=    30.00 Ry     beta=0.70
     Davidson diagonalization with overlap
     ethr =  7.49E-05,  avg # of iterations =  5.0

     negative rho (up, down):  5.646E-06 0.000E+00

     total cpu time spent up to now is        0.3 secs

     total energy              =     -29.23216422 Ry
     Harris-Foulkes estimate   =     -29.23146429 Ry
     estimated scf accuracy    <       0.00011070 Ry

     iteration #  5     ecut=    30.00 Ry     beta=0.70
     Davidson diagonalization with overlap
     ethr =  1.38E-06,  avg # of iterations = 14.0

     total cpu time spent up to now is        0.3 secs

     total energy              =     -29.23221138 Ry
     Harris-Foulkes estimate   =     -29.23218547 Ry
     estimated scf accuracy    <       0.00000102 Ry

     iteration #  6     ecut=    30.00 Ry     beta=0.70
     Davidson diagonalization with overlap
     ethr =  1.28E-08,  avg # of iterations =  2.0

     total cpu time spent up to now is        0.3 secs

     total energy              =     -29.23221169 Ry
     Harris-Foulkes estimate   =     -29.23221167 Ry
     estimated scf accuracy    <       0.00000006 Ry

     iteration #  7     ecut=    30.00 Ry     beta=0.70
     Davidson diagonalization with overlap
     ethr =  7.36E-10,  avg # of iterations =  2.0

     total cpu time spent up to now is        0.3 secs

     End of self-consistent calculation

          k = 0.0000 0.0000 0.0000 (  3287 PWs)   bands (ev):

   -33.5086 -17.3189 -10.0173  -7.4338  -0.6810   3.8012   3.9138   3.9762

     the Fermi energy is    -5.0549 ev

!    total energy              =     -29.23221167 Ry
     Harris-Foulkes estimate   =     -29.23221170 Ry
     estimated scf accuracy    <          5.5E-09 Ry

     The total energy is the sum of the following terms:

     one-electron contribution =     -58.91758097 Ry
     hartree contribution      =      30.43556104 Ry
     xc contribution           =      -9.27227764 Ry
     ewald contribution        =       8.52208591 Ry
     smearing contrib. (-TS)   =       0.00000000 Ry

     convergence has been achieved in   7 iterations

     Writing output data file pwscf.save
 
     init_run     :      0.02s CPU      0.03s WALL (       1 calls)
     electrons    :      0.07s CPU      0.17s WALL (       1 calls)

     Called by init_run:
     wfcinit      :      0.01s CPU      0.01s WALL (       1 calls)
     potinit      :      0.01s CPU      0.01s WALL (       1 calls)

     Called by electrons:
     c_bands      :      0.03s CPU      0.04s WALL (       7 calls)
     sum_band     :      0.00s CPU      0.01s WALL (       7 calls)
     v_of_rho     :      0.01s CPU      0.01s WALL (       8 calls)
     mix_rho      :      0.00s CPU      0.01s WALL (       7 calls)

     Called by c_bands:
     init_us_2    :      0.00s CPU      0.00s WALL (      15 calls)
     cegterg      :      0.03s CPU      0.04s WALL (       7 calls)

     Called by sum_band:

     Called by *egterg:
     h_psi        :      0.02s CPU      0.03s WALL (      42 calls)
     g_psi        :      0.00s CPU      0.00s WALL (      34 calls)
     cdiaghg      :      0.01s CPU      0.01s WALL (      41 calls)

     Called by h_psi:
     h_psi:pot    :      0.02s CPU      0.03s WALL (      42 calls)
     h_psi:calbec :      0.00s CPU      0.00s WALL (      42 calls)
     vloc_psi     :      0.02s CPU      0.02s WALL (      42 calls)
     add_vuspsi   :      0.00s CPU      0.00s WALL (      42 calls)

     General routines
     calbec       :      0.00s CPU      0.00s WALL (      42 calls)
     fft          :      0.01s CPU      0.01s WALL (      87 calls)
     fftw         :      0.02s CPU      0.03s WALL (     476 calls)
     davcio       :      0.00s CPU      0.00s WALL (      54 calls)
 
     Parallel routines
     fft_scatter  :      0.02s CPU      0.02s WALL (     563 calls)
 
     PWSCF        :     0.18s CPU         0.56s WALL

 
   This run was terminated on:  22: 4:17  27Apr2018            

=------------------------------------------------------------------------------=
   JOB DONE.
=------------------------------------------------------------------------------=
