
     Program PWSCF v.6.0 (svn rev. 13079) starts on 27Apr2018 at 20:26: 2 

     This program is part of the open-source Quantum ESPRESSO suite
     for quantum simulation of materials; please cite
         "P. Giannozzi et al., J. Phys.:Condens. Matter 21 395502 (2009);
          URL http://www.quantum-espresso.org", 
     in publications or presentations arising from this work. More details at
     http://www.quantum-espresso.org/quote

     Parallel version (MPI), running on    28 processors
     R & G space division:  proc/nbgrp/npool/nimage =      28
     Reading input from ../SCF-H2O-in/80.in
Warning: card &IONS ignored
Warning: card     POT_EXTRAPOLATION='SECOND-ORDER' ignored
Warning: card     WFC_EXTRAPOLATION='SECOND-ORDER' ignored
Warning: card     ION_TEMPERATURE = 'ANDERSEN' ignored
Warning: card     TEMPW = 1000 ignored
Warning: card / ignored

     Current dimensions of program PWSCF are:
     Max number of different atomic species (ntypx) = 10
     Max number of k-points (npk) =  40000
     Max angular momentum in pseudopotentials (lmaxx) =  3

     Subspace diagonalization in iterative solution of the eigenvalue problem:
     a serial algorithm will be used

 
     Parallelization info
     --------------------
     sticks:   dense  smooth     PW     G-vecs:    dense   smooth      PW
     Min          38      38      9                  934      934     117
     Max          39      39     11                  937      937     120
     Sum        1085    1085    277                26193    26193    3287
 


     bravais-lattice index     =            1
     lattice parameter (alat)  =      10.5835  a.u.
     unit-cell volume          =    1185.4776 (a.u.)^3
     number of atoms/cell      =            3
     number of atomic types    =            2
     number of electrons       =         8.00
     number of Kohn-Sham states=            8
     kinetic-energy cutoff     =      30.0000  Ry
     charge density cutoff     =     120.0000  Ry
     convergence threshold     =      1.0E-08
     mixing beta               =       0.7000
     number of iterations used =            8  plain     mixing
     Exchange-correlation      = BLYP ( 1  3  1  3 0 0)

     celldm(1)=  10.583544  celldm(2)=   0.000000  celldm(3)=   0.000000
     celldm(4)=   0.000000  celldm(5)=   0.000000  celldm(6)=   0.000000

     crystal axes: (cart. coord. in units of alat)
               a(1) = (   1.000000   0.000000   0.000000 )  
               a(2) = (   0.000000   1.000000   0.000000 )  
               a(3) = (   0.000000   0.000000   1.000000 )  

     reciprocal axes: (cart. coord. in units 2 pi/alat)
               b(1) = (  1.000000  0.000000  0.000000 )  
               b(2) = (  0.000000  1.000000  0.000000 )  
               b(3) = (  0.000000  0.000000  1.000000 )  


     PseudoPot. # 1 for  H read from file:
     ./H.blyp-hgh.UPF
     MD5 check sum: c576e69559cde411e611be972c763230
     Pseudo is Norm-conserving, Zval =  1.0
     Generated in analytical, separable form
     Using radial grid of  929 points,  0 beta functions with: 

     PseudoPot. # 2 for  O read from file:
     ./O.blyp-hgh.UPF
     MD5 check sum: d0b7156309aa9befef28faac7bc56342
     Pseudo is Norm-conserving, Zval =  6.0
     Generated in analytical, separable form
     Using radial grid of 1095 points,  1 beta functions with: 
                l(1) =   0

     atomic species   valence    mass     pseudopotential
        H              1.00     1.01000      H( 1.00)
        O              6.00    16.00000      O( 1.00)

     No symmetry found



   Cartesian axes

     site n.     atom                  positions (alat units)
         1           O   tau(   1) = (   0.0000269   0.0004955   0.0114299  )
         2           H   tau(   2) = (   0.0089482   0.0674443  -0.0509355  )
         3           H   tau(   3) = (  -0.0093743  -0.0752938  -0.0417691  )

     number of k points=     1  Marzari-Vanderbilt smearing, width (Ry)=  0.0250
                       cart. coord. in units 2pi/alat
        k(    1) = (   0.0000000   0.0000000   0.0000000), wk =   2.0000000

     Dense  grid:    26193 G-vectors     FFT dimensions: (  40,  40,  40)

     Estimated max dynamical RAM per process >       0.90Mb

     Estimated total allocated dynamical RAM >      25.18Mb

     Initial potential from superposition of free atoms
     Check: negative starting charge=   -0.101215

     starting charge    7.99998, renormalised to    8.00000

     negative rho (up, down):  1.012E-01 0.000E+00
     Starting wfc are    6 randomized atomic wfcs +    2 random wfc

     total cpu time spent up to now is        0.1 secs

     per-process dynamical memory:    14.5 Mb

     Self-consistent Calculation

     iteration #  1     ecut=    30.00 Ry     beta=0.70
     Davidson diagonalization with overlap
     ethr =  1.00E-02,  avg # of iterations =  9.0

     negative rho (up, down):  2.775E-02 0.000E+00

     total cpu time spent up to now is        0.2 secs

     total energy              =     -29.00888609 Ry
     Harris-Foulkes estimate   =     -29.66917427 Ry
     estimated scf accuracy    <       0.66434690 Ry

     iteration #  2     ecut=    30.00 Ry     beta=0.70
     Davidson diagonalization with overlap
     ethr =  8.30E-03,  avg # of iterations =  2.0

     negative rho (up, down):  8.572E-03 0.000E+00

     total cpu time spent up to now is        0.2 secs

     total energy              =     -29.09885668 Ry
     Harris-Foulkes estimate   =     -29.14925224 Ry
     estimated scf accuracy    <       0.07146643 Ry

     iteration #  3     ecut=    30.00 Ry     beta=0.70
     Davidson diagonalization with overlap
     ethr =  8.93E-04,  avg # of iterations =  2.0

     negative rho (up, down):  3.461E-04 0.000E+00

     total cpu time spent up to now is        0.2 secs

     total energy              =     -29.12462082 Ry
     Harris-Foulkes estimate   =     -29.12108803 Ry
     estimated scf accuracy    <       0.00607904 Ry

     iteration #  4     ecut=    30.00 Ry     beta=0.70
     Davidson diagonalization with overlap
     ethr =  7.60E-05,  avg # of iterations =  3.0

     negative rho (up, down):  4.321E-06 0.000E+00

     total cpu time spent up to now is        0.3 secs

     total energy              =     -29.12651432 Ry
     Harris-Foulkes estimate   =     -29.12585460 Ry
     estimated scf accuracy    <       0.00010854 Ry

     iteration #  5     ecut=    30.00 Ry     beta=0.70
     Davidson diagonalization with overlap
     ethr =  1.36E-06,  avg # of iterations = 15.0

     total cpu time spent up to now is        0.3 secs

     total energy              =     -29.12656254 Ry
     Harris-Foulkes estimate   =     -29.12653624 Ry
     estimated scf accuracy    <       0.00000104 Ry

     iteration #  6     ecut=    30.00 Ry     beta=0.70
     Davidson diagonalization with overlap
     ethr =  1.30E-08,  avg # of iterations =  2.0

     total cpu time spent up to now is        0.3 secs

     total energy              =     -29.12656292 Ry
     Harris-Foulkes estimate   =     -29.12656283 Ry
     estimated scf accuracy    <       0.00000006 Ry

     iteration #  7     ecut=    30.00 Ry     beta=0.70
     Davidson diagonalization with overlap
     ethr =  7.65E-10,  avg # of iterations =  2.0

     total cpu time spent up to now is        0.3 secs

     End of self-consistent calculation

          k = 0.0000 0.0000 0.0000 (  3287 PWs)   bands (ev):

   -33.2595 -17.9083  -9.8139  -7.4438  -0.6760   3.8070   3.8766   3.9730

     the Fermi energy is    -4.9950 ev

!    total energy              =     -29.12656302 Ry
     Harris-Foulkes estimate   =     -29.12656293 Ry
     estimated scf accuracy    <          4.7E-09 Ry

     The total energy is the sum of the following terms:

     one-electron contribution =     -59.06401024 Ry
     hartree contribution      =      30.50881374 Ry
     xc contribution           =      -9.28925717 Ry
     ewald contribution        =       8.71789065 Ry
     smearing contrib. (-TS)   =       0.00000000 Ry

     convergence has been achieved in   7 iterations

     Writing output data file pwscf.save
 
     init_run     :      0.02s CPU      0.03s WALL (       1 calls)
     electrons    :      0.11s CPU      0.18s WALL (       1 calls)

     Called by init_run:
     wfcinit      :      0.01s CPU      0.01s WALL (       1 calls)
     potinit      :      0.01s CPU      0.01s WALL (       1 calls)

     Called by electrons:
     c_bands      :      0.04s CPU      0.04s WALL (       7 calls)
     sum_band     :      0.00s CPU      0.01s WALL (       7 calls)
     v_of_rho     :      0.01s CPU      0.01s WALL (       8 calls)
     mix_rho      :      0.00s CPU      0.00s WALL (       7 calls)

     Called by c_bands:
     init_us_2    :      0.00s CPU      0.00s WALL (      15 calls)
     cegterg      :      0.04s CPU      0.04s WALL (       7 calls)

     Called by sum_band:

     Called by *egterg:
     h_psi        :      0.03s CPU      0.03s WALL (      43 calls)
     g_psi        :      0.00s CPU      0.00s WALL (      35 calls)
     cdiaghg      :      0.01s CPU      0.01s WALL (      42 calls)

     Called by h_psi:
     h_psi:pot    :      0.03s CPU      0.03s WALL (      43 calls)
     h_psi:calbec :      0.00s CPU      0.00s WALL (      43 calls)
     vloc_psi     :      0.03s CPU      0.03s WALL (      43 calls)
     add_vuspsi   :      0.00s CPU      0.00s WALL (      43 calls)

     General routines
     calbec       :      0.00s CPU      0.00s WALL (      43 calls)
     fft          :      0.01s CPU      0.01s WALL (      87 calls)
     fftw         :      0.03s CPU      0.03s WALL (     472 calls)
     davcio       :      0.00s CPU      0.00s WALL (      54 calls)
 
     Parallel routines
     fft_scatter  :      0.02s CPU      0.03s WALL (     559 calls)
 
     PWSCF        :     0.21s CPU         0.52s WALL

 
   This run was terminated on:  20:26: 3  27Apr2018            

=------------------------------------------------------------------------------=
   JOB DONE.
=------------------------------------------------------------------------------=
