
     Program PWSCF v.6.0 (svn rev. 13079) starts on  6May2018 at  6:58:45 

     This program is part of the open-source Quantum ESPRESSO suite
     for quantum simulation of materials; please cite
         "P. Giannozzi et al., J. Phys.:Condens. Matter 21 395502 (2009);
          URL http://www.quantum-espresso.org", 
     in publications or presentations arising from this work. More details at
     http://www.quantum-espresso.org/quote

     Parallel version (MPI), running on    28 processors
     R & G space division:  proc/nbgrp/npool/nimage =      28
     Reading input from ../SCF-H2O-1000-in/2237.in
Warning: card &IONS ignored
Warning: card     POT_EXTRAPOLATION='SECOND-ORDER' ignored
Warning: card     WFC_EXTRAPOLATION='SECOND-ORDER' ignored
Warning: card     ION_TEMPERATURE = 'ANDERSEN' ignored
Warning: card     TEMPW = 1000 ignored
Warning: card / ignored

     Current dimensions of program PWSCF are:
     Max number of different atomic species (ntypx) = 10
     Max number of k-points (npk) =  40000
     Max angular momentum in pseudopotentials (lmaxx) =  3

     Subspace diagonalization in iterative solution of the eigenvalue problem:
     a serial algorithm will be used

 
     Parallelization info
     --------------------
     sticks:   dense  smooth     PW     G-vecs:    dense   smooth      PW
     Min         136     136     33                 6338     6338     787
     Max         137     137     34                 6341     6341     792
     Sum        3809    3809    949               177509   177509   22119
 


     bravais-lattice index     =            1
     lattice parameter (alat)  =      20.0000  a.u.
     unit-cell volume          =    8000.0000 (a.u.)^3
     number of atoms/cell      =            3
     number of atomic types    =            2
     number of electrons       =         8.00
     number of Kohn-Sham states=            8
     kinetic-energy cutoff     =      30.0000  Ry
     charge density cutoff     =     120.0000  Ry
     convergence threshold     =      1.0E-08
     mixing beta               =       0.7000
     number of iterations used =            8  plain     mixing
     Exchange-correlation      = BLYP ( 1  3  1  3 0 0)

     celldm(1)=  20.000000  celldm(2)=   0.000000  celldm(3)=   0.000000
     celldm(4)=   0.000000  celldm(5)=   0.000000  celldm(6)=   0.000000

     crystal axes: (cart. coord. in units of alat)
               a(1) = (   1.000000   0.000000   0.000000 )  
               a(2) = (   0.000000   1.000000   0.000000 )  
               a(3) = (   0.000000   0.000000   1.000000 )  

     reciprocal axes: (cart. coord. in units 2 pi/alat)
               b(1) = (  1.000000  0.000000  0.000000 )  
               b(2) = (  0.000000  1.000000  0.000000 )  
               b(3) = (  0.000000  0.000000  1.000000 )  


     PseudoPot. # 1 for  H read from file:
     ./H.blyp-hgh.UPF
     MD5 check sum: c576e69559cde411e611be972c763230
     Pseudo is Norm-conserving, Zval =  1.0
     Generated in analytical, separable form
     Using radial grid of  929 points,  0 beta functions with: 

     PseudoPot. # 2 for  O read from file:
     ./O.blyp-hgh.UPF
     MD5 check sum: d0b7156309aa9befef28faac7bc56342
     Pseudo is Norm-conserving, Zval =  6.0
     Generated in analytical, separable form
     Using radial grid of 1095 points,  1 beta functions with: 
                l(1) =   0

     atomic species   valence    mass     pseudopotential
        H              1.00     1.01000      H( 1.00)
        O              6.00    16.00000      O( 1.00)

     No symmetry found



   Cartesian axes

     site n.     atom                  positions (alat units)
         1           O   tau(   1) = (  -0.0061361  -0.0011509   0.0074546  )
         2           H   tau(   2) = (   0.0269934   0.0732453  -0.0422455  )
         3           H   tau(   3) = (   0.0702130  -0.0550129   0.0125172  )

     number of k points=     1  Marzari-Vanderbilt smearing, width (Ry)=  0.0250
                       cart. coord. in units 2pi/alat
        k(    1) = (   0.0000000   0.0000000   0.0000000), wk =   2.0000000

     Dense  grid:   177509 G-vectors     FFT dimensions: (  72,  72,  72)

     Estimated max dynamical RAM per process >       6.09Mb

     Estimated total allocated dynamical RAM >     170.64Mb

     Initial potential from superposition of free atoms
     Check: negative starting charge=   -0.351639

     starting charge    7.99998, renormalised to    8.00000

     negative rho (up, down):  3.516E-01 0.000E+00
     Starting wfc are    6 randomized atomic wfcs +    2 random wfc

     total cpu time spent up to now is        0.3 secs

     per-process dynamical memory:    18.8 Mb

     Self-consistent Calculation

     iteration #  1     ecut=    30.00 Ry     beta=0.70
     Davidson diagonalization with overlap
     ethr =  1.00E-02,  avg # of iterations =  8.0

     negative rho (up, down):  9.949E-02 0.000E+00

     total cpu time spent up to now is        0.4 secs

     total energy              =     -32.26569914 Ry
     Harris-Foulkes estimate   =     -32.56388452 Ry
     estimated scf accuracy    <       0.31324465 Ry

     iteration #  2     ecut=    30.00 Ry     beta=0.70
     Davidson diagonalization with overlap
     ethr =  3.92E-03,  avg # of iterations =  2.0

     negative rho (up, down):  4.308E-02 0.000E+00

     total cpu time spent up to now is        0.5 secs

     total energy              =     -32.32929087 Ry
     Harris-Foulkes estimate   =     -32.33423493 Ry
     estimated scf accuracy    <       0.07547374 Ry

     iteration #  3     ecut=    30.00 Ry     beta=0.70
     Davidson diagonalization with overlap
     ethr =  9.43E-04,  avg # of iterations =  2.0

     negative rho (up, down):  4.210E-03 0.000E+00

     total cpu time spent up to now is        0.5 secs

     total energy              =     -32.38467713 Ry
     Harris-Foulkes estimate   =     -32.35462074 Ry
     estimated scf accuracy    <       0.01484165 Ry

     iteration #  4     ecut=    30.00 Ry     beta=0.70
     Davidson diagonalization with overlap
     ethr =  1.86E-04,  avg # of iterations =  4.0

     negative rho (up, down):  1.151E-04 0.000E+00

     total cpu time spent up to now is        0.5 secs

     total energy              =     -32.38985654 Ry
     Harris-Foulkes estimate   =     -32.38735244 Ry
     estimated scf accuracy    <       0.00003069 Ry

     iteration #  5     ecut=    30.00 Ry     beta=0.70
     Davidson diagonalization with overlap
     ethr =  3.84E-07,  avg # of iterations = 17.0

     negative rho (up, down):  1.404E-05 0.000E+00

     total cpu time spent up to now is        0.6 secs

     total energy              =     -32.38988650 Ry
     Harris-Foulkes estimate   =     -32.38988344 Ry
     estimated scf accuracy    <       0.00000273 Ry

     iteration #  6     ecut=    30.00 Ry     beta=0.70
     Davidson diagonalization with overlap
     ethr =  3.41E-08,  avg # of iterations =  2.0

     total cpu time spent up to now is        0.6 secs

     total energy              =     -32.38988882 Ry
     Harris-Foulkes estimate   =     -32.38988674 Ry
     estimated scf accuracy    <       0.00000030 Ry

     iteration #  7     ecut=    30.00 Ry     beta=0.70
     Davidson diagonalization with overlap
     ethr =  3.73E-09,  avg # of iterations =  2.0

     total cpu time spent up to now is        0.6 secs

     End of self-consistent calculation

          k = 0.0000 0.0000 0.0000 ( 22119 PWs)   bands (ev):

   -26.0588 -12.6034  -9.4842  -6.8860  -0.9906   0.3677   0.7586   1.0764

     the Fermi energy is    -6.5727 ev

!    total energy              =     -32.38988872 Ry
     Harris-Foulkes estimate   =     -32.38988888 Ry
     estimated scf accuracy    <          7.6E-09 Ry

     The total energy is the sum of the following terms:

     one-electron contribution =     -59.75833141 Ry
     hartree contribution      =      30.95800922 Ry
     xc contribution           =      -7.92700703 Ry
     ewald contribution        =       4.33336303 Ry
     smearing contrib. (-TS)   =       0.00407747 Ry

     convergence has been achieved in   7 iterations

     Writing output data file pwscf.save
 
     init_run     :      0.10s CPU      0.11s WALL (       1 calls)
     electrons    :      0.27s CPU      0.38s WALL (       1 calls)

     Called by init_run:
     wfcinit      :      0.02s CPU      0.03s WALL (       1 calls)
     potinit      :      0.02s CPU      0.02s WALL (       1 calls)

     Called by electrons:
     c_bands      :      0.12s CPU      0.13s WALL (       7 calls)
     sum_band     :      0.02s CPU      0.02s WALL (       7 calls)
     v_of_rho     :      0.05s CPU      0.05s WALL (       8 calls)
     mix_rho      :      0.02s CPU      0.04s WALL (       7 calls)

     Called by c_bands:
     init_us_2    :      0.00s CPU      0.00s WALL (      15 calls)
     cegterg      :      0.12s CPU      0.12s WALL (       7 calls)

     Called by sum_band:

     Called by *egterg:
     h_psi        :      0.11s CPU      0.12s WALL (      45 calls)
     g_psi        :      0.00s CPU      0.00s WALL (      37 calls)
     cdiaghg      :      0.01s CPU      0.01s WALL (      44 calls)

     Called by h_psi:
     h_psi:pot    :      0.11s CPU      0.12s WALL (      45 calls)
     h_psi:calbec :      0.00s CPU      0.00s WALL (      45 calls)
     vloc_psi     :      0.11s CPU      0.11s WALL (      45 calls)
     add_vuspsi   :      0.00s CPU      0.00s WALL (      45 calls)

     General routines
     calbec       :      0.00s CPU      0.00s WALL (      45 calls)
     fft          :      0.03s CPU      0.03s WALL (      87 calls)
     fftw         :      0.11s CPU      0.12s WALL (     474 calls)
     davcio       :      0.01s CPU      0.02s WALL (      54 calls)
 
     Parallel routines
     fft_scatter  :      0.06s CPU      0.06s WALL (     561 calls)
 
     PWSCF        :     0.48s CPU         0.87s WALL

 
   This run was terminated on:   6:58:46   6May2018            

=------------------------------------------------------------------------------=
   JOB DONE.
=------------------------------------------------------------------------------=
