
     Program PWSCF v.6.0 (svn rev. 13079) starts on  6May2018 at  7:20:59 

     This program is part of the open-source Quantum ESPRESSO suite
     for quantum simulation of materials; please cite
         "P. Giannozzi et al., J. Phys.:Condens. Matter 21 395502 (2009);
          URL http://www.quantum-espresso.org", 
     in publications or presentations arising from this work. More details at
     http://www.quantum-espresso.org/quote

     Parallel version (MPI), running on    28 processors
     R & G space division:  proc/nbgrp/npool/nimage =      28
     Reading input from ../SCF-H2O-1000-in/2911.in
Warning: card &IONS ignored
Warning: card     POT_EXTRAPOLATION='SECOND-ORDER' ignored
Warning: card     WFC_EXTRAPOLATION='SECOND-ORDER' ignored
Warning: card     ION_TEMPERATURE = 'ANDERSEN' ignored
Warning: card     TEMPW = 1000 ignored
Warning: card / ignored

     Current dimensions of program PWSCF are:
     Max number of different atomic species (ntypx) = 10
     Max number of k-points (npk) =  40000
     Max angular momentum in pseudopotentials (lmaxx) =  3

     Subspace diagonalization in iterative solution of the eigenvalue problem:
     a serial algorithm will be used

 
     Parallelization info
     --------------------
     sticks:   dense  smooth     PW     G-vecs:    dense   smooth      PW
     Min         136     136     33                 6338     6338     787
     Max         137     137     34                 6341     6341     792
     Sum        3809    3809    949               177509   177509   22119
 


     bravais-lattice index     =            1
     lattice parameter (alat)  =      20.0000  a.u.
     unit-cell volume          =    8000.0000 (a.u.)^3
     number of atoms/cell      =            3
     number of atomic types    =            2
     number of electrons       =         8.00
     number of Kohn-Sham states=            8
     kinetic-energy cutoff     =      30.0000  Ry
     charge density cutoff     =     120.0000  Ry
     convergence threshold     =      1.0E-08
     mixing beta               =       0.7000
     number of iterations used =            8  plain     mixing
     Exchange-correlation      = BLYP ( 1  3  1  3 0 0)

     celldm(1)=  20.000000  celldm(2)=   0.000000  celldm(3)=   0.000000
     celldm(4)=   0.000000  celldm(5)=   0.000000  celldm(6)=   0.000000

     crystal axes: (cart. coord. in units of alat)
               a(1) = (   1.000000   0.000000   0.000000 )  
               a(2) = (   0.000000   1.000000   0.000000 )  
               a(3) = (   0.000000   0.000000   1.000000 )  

     reciprocal axes: (cart. coord. in units 2 pi/alat)
               b(1) = (  1.000000  0.000000  0.000000 )  
               b(2) = (  0.000000  1.000000  0.000000 )  
               b(3) = (  0.000000  0.000000  1.000000 )  


     PseudoPot. # 1 for  H read from file:
     ./H.blyp-hgh.UPF
     MD5 check sum: c576e69559cde411e611be972c763230
     Pseudo is Norm-conserving, Zval =  1.0
     Generated in analytical, separable form
     Using radial grid of  929 points,  0 beta functions with: 

     PseudoPot. # 2 for  O read from file:
     ./O.blyp-hgh.UPF
     MD5 check sum: d0b7156309aa9befef28faac7bc56342
     Pseudo is Norm-conserving, Zval =  6.0
     Generated in analytical, separable form
     Using radial grid of 1095 points,  1 beta functions with: 
                l(1) =   0

     atomic species   valence    mass     pseudopotential
        H              1.00     1.01000      H( 1.00)
        O              6.00    16.00000      O( 1.00)

     No symmetry found



   Cartesian axes

     site n.     atom                  positions (alat units)
         1           O   tau(   1) = (  -0.0057674   0.0003166   0.0090183  )
         2           H   tau(   2) = (   0.0399220   0.0646739  -0.0451747  )
         3           H   tau(   3) = (   0.0514427  -0.0696892  -0.0093266  )

     number of k points=     1  Marzari-Vanderbilt smearing, width (Ry)=  0.0250
                       cart. coord. in units 2pi/alat
        k(    1) = (   0.0000000   0.0000000   0.0000000), wk =   2.0000000

     Dense  grid:   177509 G-vectors     FFT dimensions: (  72,  72,  72)

     Estimated max dynamical RAM per process >       6.09Mb

     Estimated total allocated dynamical RAM >     170.64Mb

     Initial potential from superposition of free atoms
     Check: negative starting charge=   -0.351928

     starting charge    7.99998, renormalised to    8.00000

     negative rho (up, down):  3.519E-01 0.000E+00
     Starting wfc are    6 randomized atomic wfcs +    2 random wfc

     total cpu time spent up to now is        0.2 secs

     per-process dynamical memory:    18.8 Mb

     Self-consistent Calculation

     iteration #  1     ecut=    30.00 Ry     beta=0.70
     Davidson diagonalization with overlap
     ethr =  1.00E-02,  avg # of iterations =  8.0

     negative rho (up, down):  9.945E-02 0.000E+00

     total cpu time spent up to now is        0.3 secs

     total energy              =     -32.26083464 Ry
     Harris-Foulkes estimate   =     -32.56193035 Ry
     estimated scf accuracy    <       0.31350032 Ry

     iteration #  2     ecut=    30.00 Ry     beta=0.70
     Davidson diagonalization with overlap
     ethr =  3.92E-03,  avg # of iterations =  3.0

     negative rho (up, down):  4.353E-02 0.000E+00

     total cpu time spent up to now is        0.4 secs

     total energy              =     -32.32391209 Ry
     Harris-Foulkes estimate   =     -32.33038446 Ry
     estimated scf accuracy    <       0.07763165 Ry

     iteration #  3     ecut=    30.00 Ry     beta=0.70
     Davidson diagonalization with overlap
     ethr =  9.70E-04,  avg # of iterations =  2.0

     negative rho (up, down):  4.233E-03 0.000E+00

     total cpu time spent up to now is        0.4 secs

     total energy              =     -32.38032470 Ry
     Harris-Foulkes estimate   =     -32.34970345 Ry
     estimated scf accuracy    <       0.01464316 Ry

     iteration #  4     ecut=    30.00 Ry     beta=0.70
     Davidson diagonalization with overlap
     ethr =  1.83E-04,  avg # of iterations =  3.0

     negative rho (up, down):  1.690E-04 0.000E+00

     total cpu time spent up to now is        0.4 secs

     total energy              =     -32.38542576 Ry
     Harris-Foulkes estimate   =     -32.38291453 Ry
     estimated scf accuracy    <       0.00003205 Ry

     iteration #  5     ecut=    30.00 Ry     beta=0.70
     Davidson diagonalization with overlap
     c_bands:  1 eigenvalues not converged
     ethr =  4.01E-07,  avg # of iterations = 20.0

     negative rho (up, down):  2.638E-05 0.000E+00

     total cpu time spent up to now is        0.5 secs

     total energy              =     -32.38546108 Ry
     Harris-Foulkes estimate   =     -32.38545637 Ry
     estimated scf accuracy    <       0.00000317 Ry

     iteration #  6     ecut=    30.00 Ry     beta=0.70
     Davidson diagonalization with overlap
     ethr =  3.96E-08,  avg # of iterations = 11.0

     negative rho (up, down):  1.413E-08 0.000E+00

     total cpu time spent up to now is        0.5 secs

     total energy              =     -32.38546467 Ry
     Harris-Foulkes estimate   =     -32.38546150 Ry
     estimated scf accuracy    <       0.00000024 Ry

     iteration #  7     ecut=    30.00 Ry     beta=0.70
     Davidson diagonalization with overlap
     ethr =  3.01E-09,  avg # of iterations =  2.0

     total cpu time spent up to now is        0.6 secs

     total energy              =     -32.38546479 Ry
     Harris-Foulkes estimate   =     -32.38546474 Ry
     estimated scf accuracy    <       0.00000002 Ry

     iteration #  8     ecut=    30.00 Ry     beta=0.70
     Davidson diagonalization with overlap
     ethr =  2.07E-10,  avg # of iterations =  2.0

     total cpu time spent up to now is        0.6 secs

     End of self-consistent calculation

          k = 0.0000 0.0000 0.0000 ( 22119 PWs)   bands (ev):

   -26.1933 -12.3613  -9.7837  -6.9158  -0.9878   0.3656   0.7930   1.0781

     the Fermi energy is    -6.6025 ev

!    total energy              =     -32.38546481 Ry
     Harris-Foulkes estimate   =     -32.38546479 Ry
     estimated scf accuracy    <          3.4E-10 Ry

     The total energy is the sum of the following terms:

     one-electron contribution =     -59.91208092 Ry
     hartree contribution      =      31.02574166 Ry
     xc contribution           =      -7.93761519 Ry
     ewald contribution        =       4.43441218 Ry
     smearing contrib. (-TS)   =       0.00407747 Ry

     convergence has been achieved in   8 iterations

     Writing output data file pwscf.save
 
     init_run     :      0.09s CPU      0.11s WALL (       1 calls)
     electrons    :      0.26s CPU      0.40s WALL (       1 calls)

     Called by init_run:
     wfcinit      :      0.02s CPU      0.03s WALL (       1 calls)
     potinit      :      0.02s CPU      0.02s WALL (       1 calls)

     Called by electrons:
     c_bands      :      0.14s CPU      0.15s WALL (       8 calls)
     sum_band     :      0.02s CPU      0.02s WALL (       8 calls)
     v_of_rho     :      0.06s CPU      0.06s WALL (       9 calls)
     mix_rho      :      0.03s CPU      0.06s WALL (       8 calls)

     Called by c_bands:
     init_us_2    :      0.00s CPU      0.00s WALL (      17 calls)
     cegterg      :      0.14s CPU      0.14s WALL (       8 calls)

     Called by sum_band:

     Called by *egterg:
     h_psi        :      0.13s CPU      0.13s WALL (      60 calls)
     g_psi        :      0.00s CPU      0.00s WALL (      51 calls)
     cdiaghg      :      0.01s CPU      0.01s WALL (      59 calls)

     Called by h_psi:
     h_psi:pot    :      0.12s CPU      0.13s WALL (      60 calls)
     h_psi:calbec :      0.00s CPU      0.00s WALL (      60 calls)
     vloc_psi     :      0.12s CPU      0.13s WALL (      60 calls)
     add_vuspsi   :      0.00s CPU      0.00s WALL (      60 calls)

     General routines
     calbec       :      0.00s CPU      0.00s WALL (      60 calls)
     fft          :      0.04s CPU      0.04s WALL (      98 calls)
     fftw         :      0.12s CPU      0.13s WALL (     548 calls)
     davcio       :      0.00s CPU      0.02s WALL (      70 calls)
 
     Parallel routines
     fft_scatter  :      0.06s CPU      0.07s WALL (     646 calls)
 
     PWSCF        :     0.48s CPU         0.86s WALL

 
   This run was terminated on:   7:21: 0   6May2018            

=------------------------------------------------------------------------------=
   JOB DONE.
=------------------------------------------------------------------------------=
