
     Program PWSCF v.6.0 (svn rev. 13079) starts on 13Apr2018 at  4:21:40 

     This program is part of the open-source Quantum ESPRESSO suite
     for quantum simulation of materials; please cite
         "P. Giannozzi et al., J. Phys.:Condens. Matter 21 395502 (2009);
          URL http://www.quantum-espresso.org", 
     in publications or presentations arising from this work. More details at
     http://www.quantum-espresso.org/quote

     Parallel version (MPI), running on    28 processors
     R & G space division:  proc/nbgrp/npool/nimage =      28
     Reading input from ../H2O-1000xv2.in

     Current dimensions of program PWSCF are:
     Max number of different atomic species (ntypx) = 10
     Max number of k-points (npk) =  40000
     Max angular momentum in pseudopotentials (lmaxx) =  3

     Subspace diagonalization in iterative solution of the eigenvalue problem:
     a serial algorithm will be used

 
     Parallelization info
     --------------------
     sticks:   dense  smooth     PW     G-vecs:    dense   smooth      PW
     Min         273     273     67                17945    17945    2235
     Max         274     274     68                17950    17950    2240
     Sum        7645    7645   1901               502479   502479   62669
 


     bravais-lattice index     =            1
     lattice parameter (alat)  =      20.0000  a.u.
     unit-cell volume          =    8000.0000 (a.u.)^3
     number of atoms/cell      =            3
     number of atomic types    =            2
     number of electrons       =         8.00
     number of Kohn-Sham states=            8
     kinetic-energy cutoff     =      60.0000  Ry
     charge density cutoff     =     240.0000  Ry
     convergence threshold     =      1.0E-08
     mixing beta               =       0.7000
     number of iterations used =            8  plain     mixing
     Exchange-correlation      = BLYP ( 1  3  1  3 0 0)
     nstep                     =         5000


     celldm(1)=  20.000000  celldm(2)=   0.000000  celldm(3)=   0.000000
     celldm(4)=   0.000000  celldm(5)=   0.000000  celldm(6)=   0.000000

     crystal axes: (cart. coord. in units of alat)
               a(1) = (   1.000000   0.000000   0.000000 )  
               a(2) = (   0.000000   1.000000   0.000000 )  
               a(3) = (   0.000000   0.000000   1.000000 )  

     reciprocal axes: (cart. coord. in units 2 pi/alat)
               b(1) = (  1.000000  0.000000  0.000000 )  
               b(2) = (  0.000000  1.000000  0.000000 )  
               b(3) = (  0.000000  0.000000  1.000000 )  


     PseudoPot. # 1 for  H read from file:
     ./H.blyp-hgh.UPF
     MD5 check sum: c576e69559cde411e611be972c763230
     Pseudo is Norm-conserving, Zval =  1.0
     Generated in analytical, separable form
     Using radial grid of  929 points,  0 beta functions with: 

     PseudoPot. # 2 for  O read from file:
     ./O.blyp-hgh.UPF
     MD5 check sum: d0b7156309aa9befef28faac7bc56342
     Pseudo is Norm-conserving, Zval =  6.0
     Generated in analytical, separable form
     Using radial grid of 1095 points,  1 beta functions with: 
                l(1) =   0

     atomic species   valence    mass     pseudopotential
        H              1.00     1.01000      H( 1.00)
        O              6.00    16.00000      O( 1.00)

     No symmetry found



   Cartesian axes

     site n.     atom                  positions (alat units)
         1           O   tau(   1) = (   0.0000000   0.0000000   0.0112686  )
         2           H   tau(   2) = (   0.0000000   0.0721156  -0.0450744  )
         3           H   tau(   3) = (   0.0000000  -0.0721156  -0.0450744  )

     number of k points=     1  Marzari-Vanderbilt smearing, width (Ry)=  0.0250
                       cart. coord. in units 2pi/alat
        k(    1) = (   0.0000000   0.0000000   0.0000000), wk =   2.0000000

     Dense  grid:   502479 G-vectors     FFT dimensions: ( 100, 100, 100)

     Estimated max dynamical RAM per process >      17.25Mb

     Estimated total allocated dynamical RAM >     483.03Mb

     Initial potential from superposition of free atoms
     Check: negative starting charge=   -0.071145

     starting charge    7.99998, renormalised to    8.00000

     negative rho (up, down):  7.115E-02 0.000E+00
     Starting wfc are    6 randomized atomic wfcs +    2 random wfc

     total cpu time spent up to now is       10.8 secs

     per-process dynamical memory:    31.1 Mb

     Self-consistent Calculation

     iteration #  1     ecut=    60.00 Ry     beta=0.70
     Davidson diagonalization with overlap
     ethr =  1.00E-02,  avg # of iterations =  8.0

     negative rho (up, down):  2.059E-02 0.000E+00

     total cpu time spent up to now is       14.5 secs

     total energy              =     -33.66095752 Ry
     Harris-Foulkes estimate   =     -33.73037087 Ry
     estimated scf accuracy    <       0.20731731 Ry

     iteration #  2     ecut=    60.00 Ry     beta=0.70
     Davidson diagonalization with overlap
     ethr =  2.59E-03,  avg # of iterations =  2.0

     negative rho (up, down):  1.160E-02 0.000E+00

     total cpu time spent up to now is       16.8 secs

     total energy              =     -33.69154141 Ry
     Harris-Foulkes estimate   =     -33.75067961 Ry
     estimated scf accuracy    <       0.13672646 Ry

     iteration #  3     ecut=    60.00 Ry     beta=0.70
     Davidson diagonalization with overlap
     ethr =  1.71E-03,  avg # of iterations =  2.0

     negative rho (up, down):  2.425E-04 0.000E+00

     total cpu time spent up to now is       19.0 secs

     total energy              =     -33.73645651 Ry
     Harris-Foulkes estimate   =     -33.72668477 Ry
     estimated scf accuracy    <       0.00681938 Ry

     iteration #  4     ecut=    60.00 Ry     beta=0.70
     Davidson diagonalization with overlap
     ethr =  8.52E-05,  avg # of iterations =  8.0

     negative rho (up, down):  2.472E-04 0.000E+00

     total cpu time spent up to now is       22.5 secs

     total energy              =     -33.73796938 Ry
     Harris-Foulkes estimate   =     -33.73799256 Ry
     estimated scf accuracy    <       0.00005665 Ry

     iteration #  5     ecut=    60.00 Ry     beta=0.70
     Davidson diagonalization with overlap
     ethr =  7.08E-07,  avg # of iterations = 12.0

     negative rho (up, down):  1.549E-05 0.000E+00

     total cpu time spent up to now is       26.1 secs

     total energy              =     -33.73797920 Ry
     Harris-Foulkes estimate   =     -33.73798342 Ry
     estimated scf accuracy    <       0.00000504 Ry

     iteration #  6     ecut=    60.00 Ry     beta=0.70
     Davidson diagonalization with overlap
     ethr =  6.29E-08,  avg # of iterations = 10.0

     total cpu time spent up to now is       29.3 secs

     total energy              =     -33.74205619 Ry
     Harris-Foulkes estimate   =     -33.74205731 Ry
     estimated scf accuracy    <       0.00000017 Ry

     iteration #  7     ecut=    60.00 Ry     beta=0.70
     Davidson diagonalization with overlap
     ethr =  2.09E-09,  avg # of iterations =  2.0

     total cpu time spent up to now is       31.1 secs

     End of self-consistent calculation

          k = 0.0000 0.0000 0.0000 ( 62669 PWs)   bands (ev):

   -25.4812 -12.9157  -9.2080  -7.0609  -0.9110   0.4220   0.7968   1.1102

     the Fermi energy is    -5.1975 ev

!    total energy              =     -33.74205615 Ry
     Harris-Foulkes estimate   =     -33.74205623 Ry
     estimated scf accuracy    <          9.0E-09 Ry

     convergence has been achieved in   7 iterations

     Forces acting on atoms (Ry/au):

     atom    1 type  2   force =     0.00000338    0.00000165    0.05215122
     atom    2 type  1   force =    -0.00000165    0.02843773   -0.02607547
     atom    3 type  1   force =    -0.00000173   -0.02843938   -0.02607575

     Total force =     0.075479     Total SCF correction =     0.000161

     Molecular Dynamics Calculation

     Starting temperature  =   100.00 K

     temperature is controlled by Andersen thermostat
     Collision frequency = 1.0000/timestep
     mass H                =     1.01
     mass O                =    16.00
     Time step             =    10.00 a.u.,  0.4838 femto-seconds

     Entering Dynamics:    iteration =     1
                           time      =   0.0005 pico-seconds


     Andersen thermostat:    3 collisions

ATOMIC_POSITIONS (angstrom)
O       -0.000171836   0.000699919   0.120352116
H       -0.000293295   0.763484728  -0.482531652
H        0.003015445  -0.774572553  -0.488831510


     kinetic energy (Ekin) =     0.00473738 Ry
     temperature           =   249.32420206 K 
     Ekin + Etot (const)   =   -33.73731876 Ry

     Linear momentum :   -0.0000000000    0.0000000000   -0.0000000000

     Writing output data file pwscf.save
     Check: negative starting charge=   -0.071145
     NEW-OLD atomic charge density approx. for the potential
     Check: negative starting charge=   -0.071157

     negative rho (up, down):  1.222E-03 0.000E+00

     total cpu time spent up to now is       41.5 secs

     per-process dynamical memory:    32.5 Mb

     Self-consistent Calculation

     iteration #  1     ecut=    60.00 Ry     beta=0.70
     Davidson diagonalization with overlap
     ethr =  1.00E-06,  avg # of iterations = 11.0

     negative rho (up, down):  2.744E-04 0.000E+00

     total cpu time spent up to now is       45.3 secs

     total energy              =     -33.73889175 Ry
     Harris-Foulkes estimate   =     -33.73900190 Ry
     estimated scf accuracy    <       0.00028713 Ry

     iteration #  2     ecut=    60.00 Ry     beta=0.70
     Davidson diagonalization with overlap
     ethr =  3.59E-06,  avg # of iterations =  5.0

     negative rho (up, down):  1.479E-04 0.000E+00

     total cpu time spent up to now is       48.1 secs

     total energy              =     -33.74302249 Ry
     Harris-Foulkes estimate   =     -33.74315546 Ry
     estimated scf accuracy    <       0.00025873 Ry

     iteration #  3     ecut=    60.00 Ry     beta=0.70
     Davidson diagonalization with overlap
     ethr =  3.23E-06,  avg # of iterations =  2.0

     negative rho (up, down):  4.840E-06 0.000E+00

     total cpu time spent up to now is       50.3 secs

     total energy              =     -33.73899588 Ry
     Harris-Foulkes estimate   =     -33.73900027 Ry
     estimated scf accuracy    <       0.00000240 Ry

     iteration #  4     ecut=    60.00 Ry     beta=0.70
     Davidson diagonalization with overlap
     ethr =  3.01E-08,  avg # of iterations =  2.0

     negative rho (up, down):  1.521E-07 0.000E+00

     total cpu time spent up to now is       52.4 secs

     total energy              =     -33.74307436 Ry
     Harris-Foulkes estimate   =     -33.74307409 Ry
     estimated scf accuracy    <       0.00000005 Ry

     iteration #  5     ecut=    60.00 Ry     beta=0.70
     Davidson diagonalization with overlap
     ethr =  6.54E-10,  avg # of iterations =  2.0

     total cpu time spent up to now is       54.3 secs

     End of self-consistent calculation

          k = 0.0000 0.0000 0.0000 ( 62669 PWs)   bands (ev):

   -25.3743 -12.7942  -9.2158  -7.0427  -0.9411   0.4116   0.7785   1.1089

     the Fermi energy is    -5.1718 ev

!    total energy              =     -33.74307440 Ry
     Harris-Foulkes estimate   =     -33.74307437 Ry
     estimated scf accuracy    <          3.2E-09 Ry

     convergence has been achieved in   5 iterations

     Forces acting on atoms (Ry/au):

     atom    1 type  2   force =    -0.00003255   -0.01865645    0.02934840
     atom    2 type  1   force =     0.00000559    0.02393731   -0.02201639
     atom    3 type  1   force =     0.00002696   -0.00528086   -0.00733202

     Total force =     0.048464     Total SCF correction =     0.001112

     Entering Dynamics:    iteration =     2
                           time      =   0.0010 pico-seconds


     Andersen thermostat:    3 collisions

ATOMIC_POSITIONS (angstrom)
O       -0.000087338   0.000193715   0.120642202
H       -0.002723740   0.768932371  -0.486149966
H        0.004107311  -0.772001131  -0.489808625


     kinetic energy (Ekin) =     0.00100110 Ry
     temperature           =    52.68696115 K 
     Ekin + Etot (const)   =   -33.74207330 Ry
     Message from routine dynamics:
     Total linear momentum <> 0

     Linear momentum :   -0.0296891001    0.0258612327    0.1074406108

     Writing output data file pwscf.save

     first order wave-functions extrapolation
     Check: negative starting charge=   -0.071157
     first order charge density extrapolation
     Check: negative starting charge=   -0.071161

     negative rho (up, down):  1.416E-03 0.000E+00

     total cpu time spent up to now is       68.5 secs

     per-process dynamical memory:    32.5 Mb

     Self-consistent Calculation

     iteration #  1     ecut=    60.00 Ry     beta=0.70
     Davidson diagonalization with overlap
     ethr =  1.00E-06,  avg # of iterations = 12.0

     negative rho (up, down):  3.227E-04 0.000E+00

     total cpu time spent up to now is       72.4 secs

     total energy              =     -33.73925207 Ry
     Harris-Foulkes estimate   =     -33.73922109 Ry
     estimated scf accuracy    <       0.00020512 Ry

     iteration #  2     ecut=    60.00 Ry     beta=0.70
     Davidson diagonalization with overlap
     ethr =  2.56E-06,  avg # of iterations =  7.0

     negative rho (up, down):  1.663E-04 0.000E+00

     total cpu time spent up to now is       75.4 secs

     total energy              =     -33.73928606 Ry
     Harris-Foulkes estimate   =     -33.73936165 Ry
     estimated scf accuracy    <       0.00014781 Ry

     iteration #  3     ecut=    60.00 Ry     beta=0.70
     Davidson diagonalization with overlap
     ethr =  1.85E-06,  avg # of iterations =  2.0

     negative rho (up, down):  7.196E-06 0.000E+00

     total cpu time spent up to now is       77.7 secs

     total energy              =     -33.74339540 Ry
     Harris-Foulkes estimate   =     -33.74339890 Ry
     estimated scf accuracy    <       0.00000423 Ry

     iteration #  4     ecut=    60.00 Ry     beta=0.70
     Davidson diagonalization with overlap
     ethr =  5.28E-08,  avg # of iterations =  3.0

     negative rho (up, down):  1.794E-07 0.000E+00

     total cpu time spent up to now is       79.9 secs

     total energy              =     -33.74339618 Ry
     Harris-Foulkes estimate   =     -33.74339632 Ry
     estimated scf accuracy    <       0.00000006 Ry

     iteration #  5     ecut=    60.00 Ry     beta=0.70
     Davidson diagonalization with overlap
     ethr =  7.21E-10,  avg # of iterations =  2.0

     total cpu time spent up to now is       81.7 secs

     End of self-consistent calculation

          k = 0.0000 0.0000 0.0000 ( 62669 PWs)   bands (ev):

   -25.3461 -12.7628  -9.2180  -7.0380  -0.9485   0.4095   0.7733   1.1081

     the Fermi energy is    -5.1653 ev

!    total energy              =     -33.74339616 Ry
     Harris-Foulkes estimate   =     -33.74339620 Ry
     estimated scf accuracy    <          3.2E-09 Ry

     convergence has been achieved in   5 iterations

     Forces acting on atoms (Ry/au):

     atom    1 type  2   force =    -0.00016933   -0.00588739    0.02434254
     atom    2 type  1   force =     0.00003856    0.01394216   -0.01476677
     atom    3 type  1   force =     0.00013076   -0.00805477   -0.00957578

     Total force =     0.034587     Total SCF correction =     0.001157

     Entering Dynamics:    iteration =     3
                           time      =   0.0015 pico-seconds


     Andersen thermostat:    3 collisions

ATOMIC_POSITIONS (angstrom)
O       -0.000314300   0.001268892   0.121071815
H       -0.001390747   0.761962397  -0.494397006
H        0.006369763  -0.782063653  -0.488367327


     kinetic energy (Ekin) =     0.00421692 Ry
     temperature           =   221.93263800 K 
     Ekin + Etot (const)   =   -33.73917924 Ry
     Message from routine dynamics:
     Total linear momentum <> 0

     Linear momentum :   -0.1287882948    0.0165280762   -0.0174137238

     Writing output data file pwscf.save

     second order wave-functions extrapolation
     Check: negative starting charge=   -0.071161
     second order charge density extrapolation
     Check: negative starting charge=   -0.071163

     negative rho (up, down):  8.326E-04 0.000E+00

     total cpu time spent up to now is       97.2 secs

     per-process dynamical memory:    32.5 Mb

     Self-consistent Calculation

     iteration #  1     ecut=    60.00 Ry     beta=0.70
     Davidson diagonalization with overlap
     ethr =  1.00E-06,  avg # of iterations =  4.0

     negative rho (up, down):  1.756E-04 0.000E+00

     total cpu time spent up to now is      100.0 secs

     total energy              =     -33.73933490 Ry
     Harris-Foulkes estimate   =     -33.73938707 Ry
     estimated scf accuracy    <       0.00010960 Ry

     iteration #  2     ecut=    60.00 Ry     beta=0.70
     Davidson diagonalization with overlap
     ethr =  1.37E-06,  avg # of iterations =  4.0

     negative rho (up, down):  9.065E-05 0.000E+00

     total cpu time spent up to now is      102.6 secs

     total energy              =     -33.74343003 Ry
     Harris-Foulkes estimate   =     -33.74348305 Ry
     estimated scf accuracy    <       0.00009946 Ry

     iteration #  3     ecut=    60.00 Ry     beta=0.70
     Davidson diagonalization with overlap
     ethr =  1.24E-06,  avg # of iterations =  2.0

     negative rho (up, down):  6.129E-07 0.000E+00

     total cpu time spent up to now is      104.7 secs

     total energy              =     -33.74344882 Ry
     Harris-Foulkes estimate   =     -33.74345133 Ry
     estimated scf accuracy    <       0.00000114 Ry

     iteration #  4     ecut=    60.00 Ry     beta=0.70
     Davidson diagonalization with overlap
     ethr =  1.43E-08,  avg # of iterations =  2.0

     negative rho (up, down):  1.043E-08 0.000E+00

     total cpu time spent up to now is      106.8 secs

     total energy              =     -33.74344933 Ry
     Harris-Foulkes estimate   =     -33.74344918 Ry
     estimated scf accuracy    <       0.00000002 Ry

     iteration #  5     ecut=    60.00 Ry     beta=0.70
     Davidson diagonalization with overlap
     ethr =  2.46E-10,  avg # of iterations =  2.0

     total cpu time spent up to now is      108.6 secs

     End of self-consistent calculation

          k = 0.0000 0.0000 0.0000 ( 62669 PWs)   bands (ev):

   -25.3120 -12.7180  -9.2252  -7.0324  -0.9599   0.4051   0.7663   1.1074

     the Fermi energy is    -5.1573 ev

!    total energy              =     -33.74344941 Ry
     Harris-Foulkes estimate   =     -33.74344933 Ry
     estimated scf accuracy    <          1.0E-09 Ry

     convergence has been achieved in   5 iterations

     Forces acting on atoms (Ry/au):

     atom    1 type  2   force =    -0.00009923   -0.01772031    0.01657064
     atom    2 type  1   force =     0.00004867    0.01574367   -0.01550015
     atom    3 type  1   force =     0.00005057    0.00197664   -0.00107049

     Total force =     0.032890     Total SCF correction =     0.000500

     Entering Dynamics:    iteration =     4
                           time      =   0.0019 pico-seconds


     Andersen thermostat:    3 collisions

ATOMIC_POSITIONS (angstrom)
O       -0.000765486   0.001042769   0.121386702
H        0.002822827   0.761730562  -0.493181790
H        0.009303684  -0.778249677  -0.494570860


     kinetic energy (Ekin) =     0.00183762 Ry
     temperature           =    96.71230355 K 
     Ekin + Etot (const)   =   -33.74161179 Ry
     Message from routine dynamics:
     Total linear momentum <> 0

     Linear momentum :    0.0121201256    0.0589153544   -0.1732136272

     Writing output data file pwscf.save

     second order wave-functions extrapolation
     Check: negative starting charge=   -0.071163
     second order charge density extrapolation
     Check: negative starting charge=   -0.071171

     negative rho (up, down):  5.277E-04 0.000E+00

     total cpu time spent up to now is      124.3 secs

     per-process dynamical memory:    32.6 Mb

     Self-consistent Calculation

     iteration #  1     ecut=    60.00 Ry     beta=0.70
     Davidson diagonalization with overlap
     ethr =  1.00E-06,  avg # of iterations =  8.0

     negative rho (up, down):  1.009E-04 0.000E+00

     total cpu time spent up to now is      128.0 secs

     total energy              =     -33.73935440 Ry
     Harris-Foulkes estimate   =     -33.73935734 Ry
     estimated scf accuracy    <       0.00000875 Ry

     iteration #  2     ecut=    60.00 Ry     beta=0.70
     Davidson diagonalization with overlap
     ethr =  1.09E-07,  avg # of iterations =  3.0

     negative rho (up, down):  4.082E-05 0.000E+00

     total cpu time spent up to now is      130.3 secs

     total energy              =     -33.74343106 Ry
     Harris-Foulkes estimate   =     -33.74343557 Ry
     estimated scf accuracy    <       0.00000490 Ry

     iteration #  3     ecut=    60.00 Ry     beta=0.70
     Davidson diagonalization with overlap
     ethr =  6.12E-08,  avg # of iterations =  2.0

     negative rho (up, down):  1.153E-08 0.000E+00

     total cpu time spent up to now is      132.3 secs

     total energy              =     -33.74343218 Ry
     Harris-Foulkes estimate   =     -33.74343242 Ry
     estimated scf accuracy    <       0.00000044 Ry

     iteration #  4     ecut=    60.00 Ry     beta=0.70
     Davidson diagonalization with overlap
     ethr =  5.47E-09,  avg # of iterations =  2.0

     total cpu time spent up to now is      134.1 secs

     End of self-consistent calculation

          k = 0.0000 0.0000 0.0000 ( 62669 PWs)   bands (ev):

   -25.3174 -12.6972  -9.2454  -7.0340  -0.9612   0.4045   0.7669   1.1068

     the Fermi energy is    -5.1591 ev

!    total energy              =     -33.74343239 Ry
     Harris-Foulkes estimate   =     -33.74343229 Ry
     estimated scf accuracy    <          3.6E-09 Ry

     convergence has been achieved in   4 iterations

     Forces acting on atoms (Ry/au):

     atom    1 type  2   force =    -0.00011731   -0.01945538    0.01488550
     atom    2 type  1   force =     0.00011378    0.01753140   -0.01539208
     atom    3 type  1   force =     0.00000353    0.00192398    0.00050658

     Total force =     0.033887     Total SCF correction =     0.000464

     Entering Dynamics:    iteration =     5
                           time      =   0.0024 pico-seconds


     Andersen thermostat:    3 collisions

ATOMIC_POSITIONS (angstrom)
O       -0.001018360   0.000850263   0.121584401
H        0.002037408   0.760450513  -0.497520815
H        0.014095022  -0.773920030  -0.493363689


     kinetic energy (Ekin) =     0.00107570 Ry
     temperature           =    56.61326181 K 
     Ekin + Etot (const)   =   -33.74235669 Ry
     Message from routine dynamics:
     Total linear momentum <> 0

     Linear momentum :   -0.0436690710   -0.0122293632   -0.0238129050

     Writing output data file pwscf.save

     second order wave-functions extrapolation
     Check: negative starting charge=   -0.071171
     second order charge density extrapolation
     Check: negative starting charge=   -0.071180

     negative rho (up, down):  2.347E-04 0.000E+00

     total cpu time spent up to now is      150.7 secs

     per-process dynamical memory:    32.6 Mb

     Self-consistent Calculation

     iteration #  1     ecut=    60.00 Ry     beta=0.70
     Davidson diagonalization with overlap
     ethr =  1.00E-06,  avg # of iterations =  3.0

     negative rho (up, down):  3.548E-05 0.000E+00

     total cpu time spent up to now is      153.4 secs

     total energy              =     -33.74349789 Ry
     Harris-Foulkes estimate   =     -33.74350559 Ry
     estimated scf accuracy    <       0.00001202 Ry

     iteration #  2     ecut=    60.00 Ry     beta=0.70
     Davidson diagonalization with overlap
     ethr =  1.50E-07,  avg # of iterations =  2.0

     negative rho (up, down):  8.609E-06 0.000E+00

     total cpu time spent up to now is      155.5 secs

     total energy              =     -33.74349909 Ry
     Harris-Foulkes estimate   =     -33.74350110 Ry
     estimated scf accuracy    <       0.00000360 Ry

     iteration #  3     ecut=    60.00 Ry     beta=0.70
     Davidson diagonalization with overlap
     ethr =  4.51E-08,  avg # of iterations =  2.0

     negative rho (up, down):  1.364E-07 0.000E+00

     total cpu time spent up to now is      157.6 secs

     total energy              =     -33.74350028 Ry
     Harris-Foulkes estimate   =     -33.74350039 Ry
     estimated scf accuracy    <       0.00000086 Ry

     iteration #  4     ecut=    60.00 Ry     beta=0.70
     Davidson diagonalization with overlap
     ethr =  1.08E-08,  avg # of iterations =  2.0

     total cpu time spent up to now is      159.7 secs

     total energy              =     -33.74350059 Ry
     Harris-Foulkes estimate   =     -33.74350046 Ry
     estimated scf accuracy    <       0.00000001 Ry

     iteration #  5     ecut=    60.00 Ry     beta=0.70
     Davidson diagonalization with overlap
     ethr =  1.54E-10,  avg # of iterations =  2.0

     total cpu time spent up to now is      161.5 secs

     End of self-consistent calculation

          k = 0.0000 0.0000 0.0000 ( 62669 PWs)   bands (ev):

   -25.3339 -12.6887  -9.2653  -7.0376  -0.9583   0.4054   0.7700   1.1066

     the Fermi energy is    -5.1634 ev

!    total energy              =     -33.74350056 Ry
     Harris-Foulkes estimate   =     -33.74350060 Ry
     estimated scf accuracy    <          4.8E-10 Ry

     convergence has been achieved in   5 iterations

     Forces acting on atoms (Ry/au):

     atom    1 type  2   force =    -0.00044666   -0.01159927    0.01535872
     atom    2 type  1   force =     0.00021680    0.01580043   -0.01255686
     atom    3 type  1   force =     0.00022985   -0.00420116   -0.00280186

     Total force =     0.028347     Total SCF correction =     0.000208

     Entering Dynamics:    iteration =     6
                           time      =   0.0029 pico-seconds


     Andersen thermostat:    3 collisions

ATOMIC_POSITIONS (angstrom)
O       -0.000192982   0.001387736   0.122015874
H       -0.005352054   0.752590201  -0.502013928
H        0.008409196  -0.774574139  -0.495705804


     kinetic energy (Ekin) =     0.00326637 Ry
     temperature           =   171.90632030 K 
     Ekin + Etot (const)   =   -33.74023418 Ry
     Message from routine dynamics:
     Total linear momentum <> 0

     Linear momentum :    0.0093245773    0.0344279344   -0.0316005309

     Writing output data file pwscf.save

     second order wave-functions extrapolation
     Check: negative starting charge=   -0.071180
     second order charge density extrapolation
     Check: negative starting charge=   -0.071191

     negative rho (up, down):  8.604E-04 0.000E+00

     total cpu time spent up to now is      177.6 secs

     per-process dynamical memory:    32.6 Mb

     Self-consistent Calculation

     iteration #  1     ecut=    60.00 Ry     beta=0.70
     Davidson diagonalization with overlap
     c_bands:  1 eigenvalues not converged
     ethr =  1.00E-06,  avg # of iterations = 20.0

     negative rho (up, down):  1.814E-04 0.000E+00

     total cpu time spent up to now is      181.8 secs

     total energy              =     -33.73925141 Ry
     Harris-Foulkes estimate   =     -33.73924007 Ry
     estimated scf accuracy    <       0.00001567 Ry

     iteration #  2     ecut=    60.00 Ry     beta=0.70
     Davidson diagonalization with overlap
     ethr =  1.96E-07,  avg # of iterations =  4.0

     negative rho (up, down):  1.688E-05 0.000E+00

     total cpu time spent up to now is      184.2 secs

     total energy              =     -33.74332707 Ry
     Harris-Foulkes estimate   =     -33.74333108 Ry
     estimated scf accuracy    <       0.00000156 Ry

     iteration #  3     ecut=    60.00 Ry     beta=0.70
     Davidson diagonalization with overlap
     ethr =  1.95E-08,  avg # of iterations =  2.0

     negative rho (up, down):  7.301E-07 0.000E+00

     total cpu time spent up to now is      186.3 secs

     total energy              =     -33.74332739 Ry
     Harris-Foulkes estimate   =     -33.74332764 Ry
     estimated scf accuracy    <       0.00000065 Ry

     iteration #  4     ecut=    60.00 Ry     beta=0.70
     Davidson diagonalization with overlap
     ethr =  8.09E-09,  avg # of iterations =  2.0

     total cpu time spent up to now is      188.4 secs

     total energy              =     -33.74332781 Ry
     Harris-Foulkes estimate   =     -33.74332758 Ry
     estimated scf accuracy    <       0.00000005 Ry

     iteration #  5     ecut=    60.00 Ry     beta=0.70
     Davidson diagonalization with overlap
     ethr =  5.91E-10,  avg # of iterations =  2.0

     total cpu time spent up to now is      190.2 secs

     End of self-consistent calculation

          k = 0.0000 0.0000 0.0000 ( 62669 PWs)   bands (ev):

   -25.3491 -12.6620  -9.2970  -7.0411  -0.9588   0.4048   0.7725   1.1085

     the Fermi energy is    -5.1657 ev

!    total energy              =     -33.74332785 Ry
     Harris-Foulkes estimate   =     -33.74332783 Ry
     estimated scf accuracy    <          4.0E-10 Ry

     convergence has been achieved in   5 iterations

     Forces acting on atoms (Ry/au):

     atom    1 type  2   force =    -0.00004731   -0.01930085    0.01429962
     atom    2 type  1   force =    -0.00006887    0.02192471   -0.01522200
     atom    3 type  1   force =     0.00011619   -0.00262386    0.00092238

     Total force =     0.036016     Total SCF correction =     0.000301

     Entering Dynamics:    iteration =     7
                           time      =   0.0034 pico-seconds


     Andersen thermostat:    3 collisions

ATOMIC_POSITIONS (angstrom)
O       -0.000817557   0.001379922   0.122413061
H        0.002754573   0.755097092  -0.510295551
H        0.010196826  -0.776957235  -0.493716252


     kinetic energy (Ekin) =     0.00308391 Ry
     temperature           =   162.30340022 K 
     Ekin + Etot (const)   =   -33.74024394 Ry
     Message from routine dynamics:
     Total linear momentum <> 0

     Linear momentum :    0.0522254078    0.0675284444    0.2035172234

     Writing output data file pwscf.save

     second order wave-functions extrapolation
     Check: negative starting charge=   -0.071191
     second order charge density extrapolation
     Check: negative starting charge=   -0.071194

     negative rho (up, down):  4.964E-04 0.000E+00

     total cpu time spent up to now is      205.8 secs

     per-process dynamical memory:    32.6 Mb

     Self-consistent Calculation

     iteration #  1     ecut=    60.00 Ry     beta=0.70
     Davidson diagonalization with overlap
     ethr =  1.00E-06,  avg # of iterations = 10.0

     negative rho (up, down):  9.367E-05 0.000E+00

     total cpu time spent up to now is      209.1 secs

     total energy              =     -33.73950120 Ry
     Harris-Foulkes estimate   =     -33.73953373 Ry
     estimated scf accuracy    <       0.00005250 Ry

     iteration #  2     ecut=    60.00 Ry     beta=0.70
     Davidson diagonalization with overlap
     ethr =  6.56E-07,  avg # of iterations =  3.0

     negative rho (up, down):  4.482E-05 0.000E+00

     total cpu time spent up to now is      211.4 secs

     total energy              =     -33.74358640 Ry
     Harris-Foulkes estimate   =     -33.74361211 Ry
     estimated scf accuracy    <       0.00004755 Ry

     iteration #  3     ecut=    60.00 Ry     beta=0.70
     Davidson diagonalization with overlap
     ethr =  5.94E-07,  avg # of iterations =  2.0

     negative rho (up, down):  1.508E-07 0.000E+00

     total cpu time spent up to now is      213.4 secs

     total energy              =     -33.74359590 Ry
     Harris-Foulkes estimate   =     -33.74359661 Ry
     estimated scf accuracy    <       0.00000062 Ry

     iteration #  4     ecut=    60.00 Ry     beta=0.70
     Davidson diagonalization with overlap
     ethr =  7.76E-09,  avg # of iterations =  2.0

     total cpu time spent up to now is      215.5 secs

     total energy              =     -33.74359619 Ry
     Harris-Foulkes estimate   =     -33.74359609 Ry
     estimated scf accuracy    <       0.00000001 Ry

     iteration #  5     ecut=    60.00 Ry     beta=0.70
     Davidson diagonalization with overlap
     ethr =  1.45E-10,  avg # of iterations =  2.0

     total cpu time spent up to now is      217.3 secs

     End of self-consistent calculation

          k = 0.0000 0.0000 0.0000 ( 62669 PWs)   bands (ev):

   -25.3058 -12.6179  -9.2981  -7.0340  -0.9707   0.4011   0.7639   1.1048

     the Fermi energy is    -5.1577 ev

!    total energy              =     -33.74359616 Ry
     Harris-Foulkes estimate   =     -33.74359619 Ry
     estimated scf accuracy    <          6.0E-10 Ry

     convergence has been achieved in   5 iterations

     Forces acting on atoms (Ry/au):

     atom    1 type  2   force =    -0.00018114   -0.01057198    0.00568035
     atom    2 type  1   force =     0.00010457    0.01228079   -0.00731295
     atom    3 type  1   force =     0.00007657   -0.00170881    0.00163260

     Total force =     0.018814     Total SCF correction =     0.000333

     Entering Dynamics:    iteration =     8
                           time      =   0.0039 pico-seconds


     Andersen thermostat:    3 collisions

ATOMIC_POSITIONS (angstrom)
O       -0.000463936   0.001017395   0.121973077
H       -0.006635340   0.759409847  -0.501340995
H        0.013984824  -0.775526991  -0.495700764


     kinetic energy (Ekin) =     0.00387789 Ry
     temperature           =   204.08992040 K 
     Ekin + Etot (const)   =   -33.73971827 Ry
     Message from routine dynamics:
     Total linear momentum <> 0

     Linear momentum :   -0.1095743669   -0.1166277655   -0.0425821965

     Writing output data file pwscf.save

     second order wave-functions extrapolation
     Check: negative starting charge=   -0.071194
     second order charge density extrapolation
     Check: negative starting charge=   -0.071185

     negative rho (up, down):  1.814E-04 0.000E+00

     total cpu time spent up to now is      233.4 secs

     per-process dynamical memory:    32.6 Mb

     Self-consistent Calculation

     iteration #  1     ecut=    60.00 Ry     beta=0.70
     Davidson diagonalization with overlap
     ethr =  1.00E-06,  avg # of iterations =  3.0

     negative rho (up, down):  2.512E-05 0.000E+00

     total cpu time spent up to now is      235.9 secs

     total energy              =     -33.73947556 Ry
     Harris-Foulkes estimate   =     -33.73949154 Ry
     estimated scf accuracy    <       0.00002158 Ry

     iteration #  2     ecut=    60.00 Ry     beta=0.70
     Davidson diagonalization with overlap
     ethr =  2.70E-07,  avg # of iterations =  2.0

     negative rho (up, down):  1.004E-05 0.000E+00

     total cpu time spent up to now is      238.0 secs

     total energy              =     -33.74355642 Ry
     Harris-Foulkes estimate   =     -33.74356635 Ry
     estimated scf accuracy    <       0.00001858 Ry

     iteration #  3     ecut=    60.00 Ry     beta=0.70
     Davidson diagonalization with overlap
     ethr =  2.32E-07,  avg # of iterations =  2.0

     negative rho (up, down):  6.319E-08 0.000E+00

     total cpu time spent up to now is      240.1 secs

     total energy              =     -33.74356087 Ry
     Harris-Foulkes estimate   =     -33.74356051 Ry
     estimated scf accuracy    <       0.00000028 Ry

     iteration #  4     ecut=    60.00 Ry     beta=0.70
     Davidson diagonalization with overlap
     ethr =  3.48E-09,  avg # of iterations =  2.0

     total cpu time spent up to now is      241.9 secs

     End of self-consistent calculation

          k = 0.0000 0.0000 0.0000 ( 62669 PWs)   bands (ev):

   -25.3132 -12.6535  -9.2765  -7.0346  -0.9660   0.4029   0.7655   1.1058

     the Fermi energy is    -5.1588 ev

!    total energy              =     -33.74356102 Ry
     Harris-Foulkes estimate   =     -33.74356095 Ry
     estimated scf accuracy    <          5.0E-09 Ry

     convergence has been achieved in   4 iterations

     Forces acting on atoms (Ry/au):

     atom    1 type  2   force =    -0.00014691   -0.01293097    0.00971355
     atom    2 type  1   force =     0.00001727    0.01405711   -0.01033725
     atom    3 type  1   force =     0.00012964   -0.00112614    0.00062370

     Total force =     0.023827     Total SCF correction =     0.000701

     Entering Dynamics:    iteration =     9
                           time      =   0.0044 pico-seconds


     Andersen thermostat:    3 collisions

ATOMIC_POSITIONS (angstrom)
O       -0.000654395   0.000713987   0.121825633
H       -0.002478874   0.765529881  -0.499339259
H        0.012845527  -0.776840564  -0.495366746


     kinetic energy (Ekin) =     0.00110037 Ry
     temperature           =    57.91141980 K 
     Ekin + Etot (const)   =   -33.74246065 Ry
     Message from routine dynamics:
     Total linear momentum <> 0

     Linear momentum :    0.0132318219    0.0862198073    0.0325421324

     Writing output data file pwscf.save

     second order wave-functions extrapolation
     Check: negative starting charge=   -0.071185
     second order charge density extrapolation
     Check: negative starting charge=   -0.071177

     negative rho (up, down):  2.045E-04 0.000E+00

     total cpu time spent up to now is      257.2 secs

     per-process dynamical memory:    32.6 Mb

     Self-consistent Calculation

     iteration #  1     ecut=    60.00 Ry     beta=0.70
     Davidson diagonalization with overlap
     ethr =  1.00E-06,  avg # of iterations =  3.0

     Threshold (ethr) on eigenvalues was too large:
     Diagonalizing with lowered threshold

     Davidson diagonalization with overlap
     ethr =  3.45E-08,  avg # of iterations =  2.0

     negative rho (up, down):  2.945E-05 0.000E+00

     total cpu time spent up to now is      260.7 secs

     total energy              =     -33.74366847 Ry
     Harris-Foulkes estimate   =     -33.74367200 Ry
     estimated scf accuracy    <       0.00000280 Ry

     iteration #  2     ecut=    60.00 Ry     beta=0.70
     Davidson diagonalization with overlap
     ethr =  3.50E-08,  avg # of iterations =  1.0

     negative rho (up, down):  1.666E-08 0.000E+00

     total cpu time spent up to now is      262.6 secs

     total energy              =     -33.74366776 Ry
     Harris-Foulkes estimate   =     -33.74366864 Ry
     estimated scf accuracy    <       0.00000024 Ry

     iteration #  3     ecut=    60.00 Ry     beta=0.70
     Davidson diagonalization with overlap
     ethr =  3.02E-09,  avg # of iterations =  2.0

     total cpu time spent up to now is      264.4 secs

     End of self-consistent calculation

          k = 0.0000 0.0000 0.0000 ( 62669 PWs)   bands (ev):

   -25.2845 -12.6540  -9.2533  -7.0287  -0.9709   0.4015   0.7603   1.1051

     the Fermi energy is    -5.1522 ev

!    total energy              =     -33.74366776 Ry
     Harris-Foulkes estimate   =     -33.74366780 Ry
     estimated scf accuracy    <          7.5E-09 Ry

     convergence has been achieved in   3 iterations

     Forces acting on atoms (Ry/au):

     atom    1 type  2   force =    -0.00026272   -0.00899675    0.00788705
     atom    2 type  1   force =     0.00011797    0.00837180   -0.00773748
     atom    3 type  1   force =     0.00014475    0.00062495   -0.00014957

     Total force =     0.016541     Total SCF correction =     0.000685

     Entering Dynamics:    iteration =    10
                           time      =   0.0048 pico-seconds


     Andersen thermostat:    3 collisions

ATOMIC_POSITIONS (angstrom)
O       -0.000960827   0.000853196   0.121289537
H        0.002984334   0.766815523  -0.493936207
H        0.012236687  -0.780331504  -0.492277183


     kinetic energy (Ekin) =     0.00177822 Ry
     temperature           =    93.58624479 K 
     Ekin + Etot (const)   =   -33.74188954 Ry
     Message from routine dynamics:
     Total linear momentum <> 0

     Linear momentum :   -0.0199238358   -0.1470114690    0.0234321051

     Writing output data file pwscf.save

     second order wave-functions extrapolation
     Check: negative starting charge=   -0.071177
     second order charge density extrapolation
     Check: negative starting charge=   -0.071164

     negative rho (up, down):  4.598E-04 0.000E+00

     total cpu time spent up to now is      279.9 secs

     per-process dynamical memory:    32.6 Mb

     Self-consistent Calculation

     iteration #  1     ecut=    60.00 Ry     beta=0.70
     Davidson diagonalization with overlap
     ethr =  1.00E-06,  avg # of iterations =  4.0

     negative rho (up, down):  8.472E-05 0.000E+00

     total cpu time spent up to now is      282.6 secs

     total energy              =     -33.73949936 Ry
     Harris-Foulkes estimate   =     -33.73951819 Ry
     estimated scf accuracy    <       0.00002426 Ry

     iteration #  2     ecut=    60.00 Ry     beta=0.70
     Davidson diagonalization with overlap
     ethr =  3.03E-07,  avg # of iterations =  3.0

     negative rho (up, down):  3.922E-05 0.000E+00

     total cpu time spent up to now is      284.8 secs

     total energy              =     -33.73950377 Ry
     Harris-Foulkes estimate   =     -33.73951431 Ry
     estimated scf accuracy    <       0.00002084 Ry

     iteration #  3     ecut=    60.00 Ry     beta=0.70
     Davidson diagonalization with overlap
     ethr =  2.60E-07,  avg # of iterations =  2.0

     negative rho (up, down):  3.322E-07 0.000E+00

     total cpu time spent up to now is      286.9 secs

     total energy              =     -33.74358493 Ry
     Harris-Foulkes estimate   =     -33.74358586 Ry
     estimated scf accuracy    <       0.00000033 Ry

     iteration #  4     ecut=    60.00 Ry     beta=0.70
     Davidson diagonalization with overlap
     ethr =  4.09E-09,  avg # of iterations =  2.0

     total cpu time spent up to now is      288.7 secs

     End of self-consistent calculation

          k = 0.0000 0.0000 0.0000 ( 62669 PWs)   bands (ev):

   -25.2864 -12.6927  -9.2245  -7.0280  -0.9666   0.4033   0.7615   1.1057

     the Fermi energy is    -5.1522 ev

!    total energy              =     -33.74358496 Ry
     Harris-Foulkes estimate   =     -33.74358504 Ry
     estimated scf accuracy    <          6.3E-09 Ry

     convergence has been achieved in   4 iterations

     Forces acting on atoms (Ry/au):

     atom    1 type  2   force =    -0.00026299   -0.01419141    0.01272577
     atom    2 type  1   force =     0.00018237    0.01090603   -0.01188992
     atom    3 type  1   force =     0.00008062    0.00328538   -0.00083585

     Total force =     0.025204     Total SCF correction =     0.001507

     Entering Dynamics:    iteration =    11
                           time      =   0.0053 pico-seconds


     Andersen thermostat:    3 collisions

ATOMIC_POSITIONS (angstrom)
O       -0.001196124   0.000671132   0.121302089
H        0.003202328   0.774162869  -0.493446202
H        0.015746168  -0.784794670  -0.492966044


     kinetic energy (Ekin) =     0.00154304 Ry
     temperature           =    81.20893270 K 
     Ekin + Etot (const)   =   -33.74204192 Ry
     Message from routine dynamics:
     Total linear momentum <> 0

     Linear momentum :    0.0964709212   -0.0506679389   -0.0111058845

     Writing output data file pwscf.save

     second order wave-functions extrapolation
     Check: negative starting charge=   -0.071164
     second order charge density extrapolation
     Check: negative starting charge=   -0.071153

     negative rho (up, down):  1.678E-04 0.000E+00

     total cpu time spent up to now is      304.3 secs

     per-process dynamical memory:    32.6 Mb

     Self-consistent Calculation

     iteration #  1     ecut=    60.00 Ry     beta=0.70
     Davidson diagonalization with overlap
     ethr =  1.00E-06,  avg # of iterations =  3.0

     negative rho (up, down):  2.292E-05 0.000E+00

     total cpu time spent up to now is      307.0 secs

     total energy              =     -33.73953834 Ry
     Harris-Foulkes estimate   =     -33.73954787 Ry
     estimated scf accuracy    <       0.00001308 Ry

     iteration #  2     ecut=    60.00 Ry     beta=0.70
     Davidson diagonalization with overlap
     ethr =  1.63E-07,  avg # of iterations =  2.0

     negative rho (up, down):  8.562E-06 0.000E+00

     total cpu time spent up to now is      309.1 secs

     total energy              =     -33.74361728 Ry
     Harris-Foulkes estimate   =     -33.74362294 Ry
     estimated scf accuracy    <       0.00000959 Ry

     iteration #  3     ecut=    60.00 Ry     beta=0.70
     Davidson diagonalization with overlap
     ethr =  1.20E-07,  avg # of iterations =  2.0

     negative rho (up, down):  4.501E-08 0.000E+00

     total cpu time spent up to now is      311.1 secs

     total energy              =     -33.74361952 Ry
     Harris-Foulkes estimate   =     -33.74361956 Ry
     estimated scf accuracy    <       0.00000030 Ry

     iteration #  4     ecut=    60.00 Ry     beta=0.70
     Davidson diagonalization with overlap
     ethr =  3.77E-09,  avg # of iterations =  2.0

     total cpu time spent up to now is      313.0 secs

     End of self-consistent calculation

          k = 0.0000 0.0000 0.0000 ( 62669 PWs)   bands (ev):

   -25.2301 -12.6709  -9.1970  -7.0176  -0.9803   0.3990   0.7497   1.1057

     the Fermi energy is    -5.1381 ev

!    total energy              =     -33.74361950 Ry
     Harris-Foulkes estimate   =     -33.74361958 Ry
     estimated scf accuracy    <          3.6E-09 Ry

     convergence has been achieved in   4 iterations

     Forces acting on atoms (Ry/au):

     atom    1 type  2   force =    -0.00028416   -0.01141335    0.00501704
     atom    2 type  1   force =     0.00025745    0.00235015   -0.00696551
     atom    3 type  1   force =     0.00002671    0.00906320    0.00194847

     Total force =     0.017192     Total SCF correction =     0.000564

     Entering Dynamics:    iteration =    12
                           time      =   0.0058 pico-seconds


     Andersen thermostat:    3 collisions

ATOMIC_POSITIONS (angstrom)
O       -0.000997859   0.000371171   0.121907160
H       -0.002037615   0.776555613  -0.499365760
H        0.017845286  -0.782435551  -0.496631763


     kinetic energy (Ekin) =     0.00172791 Ry
     temperature           =    90.93849460 K 
     Ekin + Etot (const)   =   -33.74189159 Ry
     Message from routine dynamics:
     Total linear momentum <> 0

     Linear momentum :   -0.0696183025    0.0879778344    0.0010149052

     Writing output data file pwscf.save

     second order wave-functions extrapolation
     Check: negative starting charge=   -0.071153
     second order charge density extrapolation
     Check: negative starting charge=   -0.071159

     negative rho (up, down):  2.237E-05 0.000E+00

     total cpu time spent up to now is      329.2 secs

     per-process dynamical memory:    32.6 Mb

     Self-consistent Calculation

     iteration #  1     ecut=    60.00 Ry     beta=0.70
     Davidson diagonalization with overlap
     ethr =  1.00E-06,  avg # of iterations =  2.0

     Threshold (ethr) on eigenvalues was too large:
     Diagonalizing with lowered threshold

     Davidson diagonalization with overlap
     ethr =  1.92E-09,  avg # of iterations =  3.0

     negative rho (up, down):  1.532E-06 0.000E+00

     total cpu time spent up to now is      333.1 secs

     total energy              =     -33.74366306 Ry
     Harris-Foulkes estimate   =     -33.74366305 Ry
     estimated scf accuracy    <       0.00000017 Ry

     iteration #  2     ecut=    60.00 Ry     beta=0.70
     Davidson diagonalization with overlap
     ethr =  2.16E-09,  avg # of iterations =  2.0

     negative rho (up, down):  2.497E-07 0.000E+00

     total cpu time spent up to now is      335.2 secs

     total energy              =     -33.74366327 Ry
     Harris-Foulkes estimate   =     -33.74366311 Ry
     estimated scf accuracy    <       0.00000005 Ry

     iteration #  3     ecut=    60.00 Ry     beta=0.70
     Davidson diagonalization with overlap
     ethr =  6.79E-10,  avg # of iterations =  2.0

     total cpu time spent up to now is      337.2 secs

     total energy              =     -33.74366320 Ry
     Harris-Foulkes estimate   =     -33.74366329 Ry
     estimated scf accuracy    <       0.00000001 Ry

     iteration #  4     ecut=    60.00 Ry     beta=0.70
     Davidson diagonalization with overlap
     ethr =  1.52E-10,  avg # of iterations =  2.0

     total cpu time spent up to now is      339.0 secs

     End of self-consistent calculation

          k = 0.0000 0.0000 0.0000 ( 62669 PWs)   bands (ev):

   -25.2020 -12.6179  -9.2161  -7.0134  -0.9908   0.3954   0.7434   1.1045

     the Fermi energy is    -5.1320 ev

!    total energy              =     -33.74366323 Ry
     Harris-Foulkes estimate   =     -33.74366320 Ry
     estimated scf accuracy    <          1.3E-10 Ry

     convergence has been achieved in   4 iterations

     Forces acting on atoms (Ry/au):

     atom    1 type  2   force =    -0.00021157   -0.00418123   -0.00264570
     atom    2 type  1   force =     0.00020713   -0.00424377   -0.00039188
     atom    3 type  1   force =     0.00000444    0.00842501    0.00303757

     Total force =     0.011088     Total SCF correction =     0.000214

     Entering Dynamics:    iteration =    13
                           time      =   0.0063 pico-seconds


     Andersen thermostat:    3 collisions

ATOMIC_POSITIONS (angstrom)
O       -0.001309315   0.000523486   0.121699378
H        0.001246952   0.773045672  -0.500304442
H        0.019494671  -0.781338521  -0.492401486


     kinetic energy (Ekin) =     0.00099766 Ry
     temperature           =    52.50585016 K 
     Ekin + Etot (const)   =   -33.74266558 Ry
     Message from routine dynamics:
     Total linear momentum <> 0

     Linear momentum :   -0.1135591368    0.0157463450   -0.0793573976

     Writing output data file pwscf.save

     second order wave-functions extrapolation
     Check: negative starting charge=   -0.071159
     second order charge density extrapolation
     Check: negative starting charge=   -0.071163

     negative rho (up, down):  2.211E-04 0.000E+00

     total cpu time spent up to now is      354.8 secs

     per-process dynamical memory:    32.6 Mb

     Self-consistent Calculation

     iteration #  1     ecut=    60.00 Ry     beta=0.70
     Davidson diagonalization with overlap
     ethr =  1.00E-06,  avg # of iterations =  3.0

     Threshold (ethr) on eigenvalues was too large:
     Diagonalizing with lowered threshold

     Davidson diagonalization with overlap
     ethr =  4.06E-08,  avg # of iterations =  1.0

     negative rho (up, down):  3.310E-05 0.000E+00

     total cpu time spent up to now is      358.2 secs

     total energy              =     -33.74371392 Ry
     Harris-Foulkes estimate   =     -33.74371911 Ry
     estimated scf accuracy    <       0.00000337 Ry

     iteration #  2     ecut=    60.00 Ry     beta=0.70
     Davidson diagonalization with overlap
     ethr =  4.21E-08,  avg # of iterations =  2.0

     negative rho (up, down):  5.319E-06 0.000E+00

     total cpu time spent up to now is      360.3 secs

     total energy              =     -33.74371400 Ry
     Harris-Foulkes estimate   =     -33.74371462 Ry
     estimated scf accuracy    <       0.00000073 Ry

     iteration #  3     ecut=    60.00 Ry     beta=0.70
     Davidson diagonalization with overlap
     ethr =  9.12E-09,  avg # of iterations =  2.0

     negative rho (up, down):  2.266E-08 0.000E+00

     total cpu time spent up to now is      362.4 secs

     total energy              =     -33.74371395 Ry
     Harris-Foulkes estimate   =     -33.74371431 Ry
     estimated scf accuracy    <       0.00000032 Ry

     iteration #  4     ecut=    60.00 Ry     beta=0.70
     Davidson diagonalization with overlap
     ethr =  3.98E-09,  avg # of iterations =  2.0

     total cpu time spent up to now is      364.3 secs

     End of self-consistent calculation

          k = 0.0000 0.0000 0.0000 ( 62669 PWs)   bands (ev):

   -25.2324 -12.6434  -9.2204  -7.0186  -0.9819   0.3983   0.7500   1.1049

     the Fermi energy is    -5.1393 ev

!    total energy              =     -33.74371399 Ry
     Harris-Foulkes estimate   =     -33.74371402 Ry
     estimated scf accuracy    <          4.1E-09 Ry

     convergence has been achieved in   4 iterations

     Forces acting on atoms (Ry/au):

     atom    1 type  2   force =    -0.00012575   -0.00311159    0.00237087
     atom    2 type  1   force =     0.00011848   -0.00114660   -0.00242034
     atom    3 type  1   force =     0.00000727    0.00425819    0.00004948

     Total force =     0.006375     Total SCF correction =     0.000550

     Entering Dynamics:    iteration =    14
                           time      =   0.0068 pico-seconds


     Andersen thermostat:    3 collisions

ATOMIC_POSITIONS (angstrom)
O       -0.000940978   0.000799461   0.122030175
H       -0.000050900   0.767258549  -0.509689857
H        0.014957477  -0.779923284  -0.488256417


     kinetic energy (Ekin) =     0.00282327 Ry
     temperature           =   148.58597814 K 
     Ekin + Etot (const)   =   -33.74089072 Ry
     Message from routine dynamics:
     Total linear momentum <> 0

     Linear momentum :   -0.0716563075   -0.0040950756   -0.0497378730

     Writing output data file pwscf.save

     second order wave-functions extrapolation
     Check: negative starting charge=   -0.071163
     second order charge density extrapolation
     Check: negative starting charge=   -0.071175

     negative rho (up, down):  5.907E-04 0.000E+00

     total cpu time spent up to now is      380.0 secs

     per-process dynamical memory:    32.6 Mb

     Self-consistent Calculation

     iteration #  1     ecut=    60.00 Ry     beta=0.70
     Davidson diagonalization with overlap
     ethr =  1.00E-06,  avg # of iterations =  4.0

     Threshold (ethr) on eigenvalues was too large:
     Diagonalizing with lowered threshold

     Davidson diagonalization with overlap
     ethr =  8.14E-08,  avg # of iterations =  1.0

     negative rho (up, down):  1.159E-04 0.000E+00

     total cpu time spent up to now is      384.2 secs

     total energy              =     -33.73965978 Ry
     Harris-Foulkes estimate   =     -33.73965641 Ry
     estimated scf accuracy    <       0.00000651 Ry

     iteration #  2     ecut=    60.00 Ry     beta=0.70
     Davidson diagonalization with overlap
     ethr =  8.14E-08,  avg # of iterations =  3.0

     negative rho (up, down):  1.848E-06 0.000E+00

     total cpu time spent up to now is      386.4 secs

     total energy              =     -33.74373518 Ry
     Harris-Foulkes estimate   =     -33.74373800 Ry
     estimated scf accuracy    <       0.00000065 Ry

     iteration #  3     ecut=    60.00 Ry     beta=0.70
     Davidson diagonalization with overlap
     ethr =  8.10E-09,  avg # of iterations =  2.0

     total cpu time spent up to now is      388.5 secs

     total energy              =     -33.74373560 Ry
     Harris-Foulkes estimate   =     -33.74373538 Ry
     estimated scf accuracy    <       0.00000017 Ry

     iteration #  4     ecut=    60.00 Ry     beta=0.70
     Davidson diagonalization with overlap
     ethr =  2.14E-09,  avg # of iterations =  2.0

     total cpu time spent up to now is      390.4 secs

     End of self-consistent calculation

          k = 0.0000 0.0000 0.0000 ( 62669 PWs)   bands (ev):

   -25.2515 -12.6273  -9.2487  -7.0234  -0.9800   0.3987   0.7534   1.1044

     the Fermi energy is    -5.1444 ev

!    total energy              =     -33.74373556 Ry
     Harris-Foulkes estimate   =     -33.74373564 Ry
     estimated scf accuracy    <          7.8E-09 Ry

     convergence has been achieved in   4 iterations

     Forces acting on atoms (Ry/au):

     atom    1 type  2   force =    -0.00063262    0.00265424    0.00186513
     atom    2 type  1   force =     0.00029718   -0.00146711    0.00013519
     atom    3 type  1   force =     0.00033543   -0.00118713   -0.00200032

     Total force =     0.004325     Total SCF correction =     0.000523
     SCF correction compared to forces is large: reduce conv_thr to get better values

     Entering Dynamics:    iteration =    15
                           time      =   0.0073 pico-seconds


     Andersen thermostat:    3 collisions

ATOMIC_POSITIONS (angstrom)
O       -0.000628428   0.001581288   0.121583262
H        0.001108263   0.755743667  -0.498870003
H        0.008847029  -0.780793780  -0.491996467


     kinetic energy (Ekin) =     0.00530129 Ry
     temperature           =   279.00216704 K 
     Ekin + Etot (const)   =   -33.73843427 Ry
     Message from routine dynamics:
     Total linear momentum <> 0

     Linear momentum :   -0.0639355487   -0.0647622569   -0.0233736921

     Writing output data file pwscf.save

     second order wave-functions extrapolation
     Check: negative starting charge=   -0.071175
     second order charge density extrapolation
     Check: negative starting charge=   -0.071176

     negative rho (up, down):  9.368E-04 0.000E+00

     total cpu time spent up to now is      406.1 secs

     per-process dynamical memory:    32.6 Mb

     Self-consistent Calculation

     iteration #  1     ecut=    60.00 Ry     beta=0.70
     Davidson diagonalization with overlap
     ethr =  1.00E-06,  avg # of iterations =  4.0

     negative rho (up, down):  2.002E-04 0.000E+00

     total cpu time spent up to now is      409.5 secs

     total energy              =     -33.73925128 Ry
     Harris-Foulkes estimate   =     -33.73929357 Ry
     estimated scf accuracy    <       0.00012178 Ry

     iteration #  2     ecut=    60.00 Ry     beta=0.70
     Davidson diagonalization with overlap
     ethr =  1.52E-06,  avg # of iterations =  3.0

     negative rho (up, down):  9.353E-05 0.000E+00

     total cpu time spent up to now is      411.9 secs

     total energy              =     -33.73926858 Ry
     Harris-Foulkes estimate   =     -33.73930810 Ry
     estimated scf accuracy    <       0.00007470 Ry

     iteration #  3     ecut=    60.00 Ry     beta=0.70
     Davidson diagonalization with overlap
     ethr =  9.34E-07,  avg # of iterations =  2.0

     negative rho (up, down):  2.954E-06 0.000E+00

     total cpu time spent up to now is      414.0 secs

     total energy              =     -33.74336255 Ry
     Harris-Foulkes estimate   =     -33.74336538 Ry
     estimated scf accuracy    <       0.00000376 Ry

     iteration #  4     ecut=    60.00 Ry     beta=0.70
     Davidson diagonalization with overlap
     ethr =  4.70E-08,  avg # of iterations =  2.0

     negative rho (up, down):  6.078E-08 0.000E+00

     total cpu time spent up to now is      416.2 secs

     total energy              =     -33.74336334 Ry
     Harris-Foulkes estimate   =     -33.74336332 Ry
     estimated scf accuracy    <       0.00000005 Ry

     iteration #  5     ecut=    60.00 Ry     beta=0.70
     Davidson diagonalization with overlap
     ethr =  5.85E-10,  avg # of iterations =  2.0

     total cpu time spent up to now is      418.0 secs

     End of self-consistent calculation

          k = 0.0000 0.0000 0.0000 ( 62669 PWs)   bands (ev):

   -25.3247 -12.6847  -9.2602  -7.0357  -0.9612   0.4044   0.7683   1.1055

     the Fermi energy is    -5.1619 ev

!    total energy              =     -33.74336334 Ry
     Harris-Foulkes estimate   =     -33.74336336 Ry
     estimated scf accuracy    <          2.6E-09 Ry

     convergence has been achieved in   5 iterations

     Forces acting on atoms (Ry/au):

     atom    1 type  2   force =    -0.00048047   -0.02262031    0.01487904
     atom    2 type  1   force =     0.00027175    0.02017533   -0.01666579
     atom    3 type  1   force =     0.00020872    0.00244498    0.00178675

     Total force =     0.037781     Total SCF correction =     0.000696

     Entering Dynamics:    iteration =    16
                           time      =   0.0077 pico-seconds


     Andersen thermostat:    3 collisions

ATOMIC_POSITIONS (angstrom)
O       -0.001059354   0.001580415   0.121994265
H        0.005788887   0.758551065  -0.500913736
H        0.010992958  -0.783587346  -0.496463664


     kinetic energy (Ekin) =     0.00131769 Ry
     temperature           =    69.34877167 K 
     Ekin + Etot (const)   =   -33.74204565 Ry
     Message from routine dynamics:
     Total linear momentum <> 0

     Linear momentum :    0.0254017649   -0.0623216072    0.1106849389

     Writing output data file pwscf.save

     second order wave-functions extrapolation
     Check: negative starting charge=   -0.071176
     second order charge density extrapolation
     Check: negative starting charge=   -0.071175

     negative rho (up, down):  4.190E-04 0.000E+00

     total cpu time spent up to now is      433.5 secs

     per-process dynamical memory:    32.6 Mb

     Self-consistent Calculation

     iteration #  1     ecut=    60.00 Ry     beta=0.70
     Davidson diagonalization with overlap
     ethr =  1.00E-06,  avg # of iterations =  3.0

     negative rho (up, down):  7.555E-05 0.000E+00

     total cpu time spent up to now is      436.3 secs

     total energy              =     -33.73936129 Ry
     Harris-Foulkes estimate   =     -33.73938098 Ry
     estimated scf accuracy    <       0.00002531 Ry

     iteration #  2     ecut=    60.00 Ry     beta=0.70
     Davidson diagonalization with overlap
     ethr =  3.16E-07,  avg # of iterations =  2.0

     negative rho (up, down):  3.522E-05 0.000E+00

     total cpu time spent up to now is      438.4 secs

     total energy              =     -33.74344192 Ry
     Harris-Foulkes estimate   =     -33.74345524 Ry
     estimated scf accuracy    <       0.00002306 Ry

     iteration #  3     ecut=    60.00 Ry     beta=0.70
     Davidson diagonalization with overlap
     ethr =  2.88E-07,  avg # of iterations =  2.0

     negative rho (up, down):  1.603E-07 0.000E+00

     total cpu time spent up to now is      440.5 secs

     total energy              =     -33.74344653 Ry
     Harris-Foulkes estimate   =     -33.74344688 Ry
     estimated scf accuracy    <       0.00000029 Ry

     iteration #  4     ecut=    60.00 Ry     beta=0.70
     Davidson diagonalization with overlap
     ethr =  3.61E-09,  avg # of iterations =  2.0

     total cpu time spent up to now is      442.4 secs

     End of self-consistent calculation

          k = 0.0000 0.0000 0.0000 ( 62669 PWs)   bands (ev):

   -25.2796 -12.6387  -9.2606  -7.0282  -0.9749   0.3999   0.7588   1.1049

     the Fermi energy is    -5.1511 ev

!    total energy              =     -33.74344664 Ry
     Harris-Foulkes estimate   =     -33.74344664 Ry
     estimated scf accuracy    <          6.9E-09 Ry

     convergence has been achieved in   4 iterations

     Forces acting on atoms (Ry/au):

     atom    1 type  2   force =    -0.00001432   -0.02371981    0.00551179
     atom    2 type  1   force =     0.00013460    0.01527274   -0.01236277
     atom    3 type  1   force =    -0.00012028    0.00844707    0.00685099

     Total force =     0.033127     Total SCF correction =     0.001173

     Entering Dynamics:    iteration =    17
                           time      =   0.0082 pico-seconds


     Andersen thermostat:    3 collisions

ATOMIC_POSITIONS (angstrom)
O       -0.001468934   0.001632685   0.121654791
H        0.010004011   0.760771596  -0.500522039
H        0.013266236  -0.786635911  -0.491477563


     kinetic energy (Ekin) =     0.00125564 Ry
     temperature           =    66.08327364 K 
     Ekin + Etot (const)   =   -33.74219100 Ry
     Message from routine dynamics:
     Total linear momentum <> 0

     Linear momentum :   -0.0084478999   -0.1091817990   -0.0563468105

     Writing output data file pwscf.save

     second order wave-functions extrapolation
     Check: negative starting charge=   -0.071175
     second order charge density extrapolation
     Check: negative starting charge=   -0.071166

     negative rho (up, down):  4.519E-04 0.000E+00

     total cpu time spent up to now is      458.4 secs

     per-process dynamical memory:    32.6 Mb

     Self-consistent Calculation

     iteration #  1     ecut=    60.00 Ry     beta=0.70
     Davidson diagonalization with overlap
     ethr =  1.00E-06,  avg # of iterations =  3.0

     negative rho (up, down):  8.303E-05 0.000E+00

     total cpu time spent up to now is      461.3 secs

     total energy              =     -33.73942669 Ry
     Harris-Foulkes estimate   =     -33.73943383 Ry
     estimated scf accuracy    <       0.00000860 Ry

     iteration #  2     ecut=    60.00 Ry     beta=0.70
     Davidson diagonalization with overlap
     ethr =  1.08E-07,  avg # of iterations =  2.0

     negative rho (up, down):  3.762E-05 0.000E+00

     total cpu time spent up to now is      463.5 secs

     total energy              =     -33.74350474 Ry
     Harris-Foulkes estimate   =     -33.74350910 Ry
     estimated scf accuracy    <       0.00000697 Ry

     iteration #  3     ecut=    60.00 Ry     beta=0.70
     Davidson diagonalization with overlap
     ethr =  8.72E-08,  avg # of iterations =  2.0

     total cpu time spent up to now is      465.6 secs

     total energy              =     -33.74350510 Ry
     Harris-Foulkes estimate   =     -33.74350635 Ry
     estimated scf accuracy    <       0.00000022 Ry

     iteration #  4     ecut=    60.00 Ry     beta=0.70
     Davidson diagonalization with overlap
     ethr =  2.69E-09,  avg # of iterations =  2.0

     total cpu time spent up to now is      467.6 secs

     End of self-consistent calculation

          k = 0.0000 0.0000 0.0000 ( 62669 PWs)   bands (ev):

   -25.2687 -12.6583  -9.2367  -7.0254  -0.9743   0.4001   0.7573   1.1048

     the Fermi energy is    -5.1484 ev

!    total energy              =     -33.74350506 Ry
     Harris-Foulkes estimate   =     -33.74350516 Ry
     estimated scf accuracy    <          3.4E-09 Ry

     convergence has been achieved in   4 iterations

     Forces acting on atoms (Ry/au):

     atom    1 type  2   force =    -0.00056523   -0.02091537    0.00744091
     atom    2 type  1   force =     0.00045859    0.01228553   -0.01224435
     atom    3 type  1   force =     0.00010664    0.00862985    0.00480344

     Total force =     0.029862     Total SCF correction =     0.000148

     Entering Dynamics:    iteration =    18
                           time      =   0.0087 pico-seconds


     Andersen thermostat:    3 collisions

ATOMIC_POSITIONS (angstrom)
O       -0.001471141   0.002093000   0.121941748
H        0.007465449   0.757925132  -0.503048692
H        0.015839749  -0.791081563  -0.493496761


     kinetic energy (Ekin) =     0.00111438 Ry
     temperature           =    58.64905657 K 
     Ekin + Etot (const)   =   -33.74239068 Ry
     Message from routine dynamics:
     Total linear momentum <> 0

     Linear momentum :   -0.0754195055    0.0706366216    0.0000863933

     Writing output data file pwscf.save

     second order wave-functions extrapolation
     Check: negative starting charge=   -0.071166
     second order charge density extrapolation
     Check: negative starting charge=   -0.071164

     negative rho (up, down):  3.671E-04 0.000E+00

     total cpu time spent up to now is      483.4 secs

     per-process dynamical memory:    32.6 Mb

     Self-consistent Calculation

     iteration #  1     ecut=    60.00 Ry     beta=0.70
     Davidson diagonalization with overlap
     ethr =  1.00E-06,  avg # of iterations =  3.0

     Threshold (ethr) on eigenvalues was too large:
     Diagonalizing with lowered threshold

     Davidson diagonalization with overlap
     ethr =  9.83E-08,  avg # of iterations =  1.0

     negative rho (up, down):  6.441E-05 0.000E+00

     total cpu time spent up to now is      489.5 secs

     total energy              =     -33.73926188 Ry
     Harris-Foulkes estimate   =     -33.73926948 Ry
     estimated scf accuracy    <       0.00000792 Ry

     iteration #  2     ecut=    60.00 Ry     beta=0.70
     Davidson diagonalization with overlap
     ethr =  9.90E-08,  avg # of iterations =  2.0

     negative rho (up, down):  2.205E-05 0.000E+00

     total cpu time spent up to now is      491.6 secs

     total energy              =     -33.74333945 Ry
     Harris-Foulkes estimate   =     -33.74334216 Ry
     estimated scf accuracy    <       0.00000349 Ry

     iteration #  3     ecut=    60.00 Ry     beta=0.70
     Davidson diagonalization with overlap
     ethr =  4.36E-08,  avg # of iterations =  2.0

     negative rho (up, down):  2.271E-07 0.000E+00

     total cpu time spent up to now is      493.8 secs

     total energy              =     -33.74334038 Ry
     Harris-Foulkes estimate   =     -33.74334052 Ry
     estimated scf accuracy    <       0.00000046 Ry

     iteration #  4     ecut=    60.00 Ry     beta=0.70
     Davidson diagonalization with overlap
     ethr =  5.72E-09,  avg # of iterations =  2.0

     total cpu time spent up to now is      495.6 secs

     End of self-consistent calculation

          k = 0.0000 0.0000 0.0000 ( 62669 PWs)   bands (ev):

   -25.2495 -12.6299  -9.2428  -7.0224  -0.9823   0.3974   0.7528   1.1046

     the Fermi energy is    -5.1438 ev

!    total energy              =     -33.74334040 Ry
     Harris-Foulkes estimate   =     -33.74334048 Ry
     estimated scf accuracy    <          6.8E-09 Ry

     convergence has been achieved in   4 iterations

     Forces acting on atoms (Ry/au):

     atom    1 type  2   force =    -0.00041877   -0.02878016    0.00294805
     atom    2 type  1   force =     0.00046168    0.01399661   -0.01283515
     atom    3 type  1   force =    -0.00004290    0.01478355    0.00988710

     Total force =     0.038914     Total SCF correction =     0.001497

     Entering Dynamics:    iteration =    19
                           time      =   0.0092 pico-seconds


     Andersen thermostat:    3 collisions

ATOMIC_POSITIONS (angstrom)
O       -0.001318800   0.001705124   0.122169585
H        0.000469486   0.757672252  -0.500471241
H        0.020422392  -0.784684112  -0.499683505


     kinetic energy (Ekin) =     0.00275540 Ry
     temperature           =   145.01409543 K 
     Ekin + Etot (const)   =   -33.74058501 Ry
     Message from routine dynamics:
     Total linear momentum <> 0

     Linear momentum :   -0.0437427236    0.0860727238    0.0366129036

     Writing output data file pwscf.save

     second order wave-functions extrapolation
     Check: negative starting charge=   -0.071164
     second order charge density extrapolation
     Check: negative starting charge=   -0.071175

     negative rho (up, down):  3.754E-04 0.000E+00

     total cpu time spent up to now is      511.6 secs

     per-process dynamical memory:    32.6 Mb

     Self-consistent Calculation

     iteration #  1     ecut=    60.00 Ry     beta=0.70
     Davidson diagonalization with overlap
     ethr =  1.00E-06,  avg # of iterations =  3.0

     Threshold (ethr) on eigenvalues was too large:
     Diagonalizing with lowered threshold

     Davidson diagonalization with overlap
     ethr =  9.33E-08,  avg # of iterations =  1.0

     negative rho (up, down):  6.543E-05 0.000E+00

     total cpu time spent up to now is      515.5 secs

     total energy              =     -33.73924704 Ry
     Harris-Foulkes estimate   =     -33.73925084 Ry
     estimated scf accuracy    <       0.00000747 Ry

     iteration #  2     ecut=    60.00 Ry     beta=0.70
     Davidson diagonalization with overlap
     ethr =  9.33E-08,  avg # of iterations =  2.0

     negative rho (up, down):  1.975E-05 0.000E+00

     total cpu time spent up to now is      517.6 secs

     total energy              =     -33.74332410 Ry
     Harris-Foulkes estimate   =     -33.74332660 Ry
     estimated scf accuracy    <       0.00000287 Ry

     iteration #  3     ecut=    60.00 Ry     beta=0.70
     Davidson diagonalization with overlap
     ethr =  3.59E-08,  avg # of iterations =  2.0

     total cpu time spent up to now is      519.7 secs

     total energy              =     -33.74332471 Ry
     Harris-Foulkes estimate   =     -33.74332506 Ry
     estimated scf accuracy    <       0.00000056 Ry

     iteration #  4     ecut=    60.00 Ry     beta=0.70
     Davidson diagonalization with overlap
     ethr =  7.04E-09,  avg # of iterations =  2.0

     total cpu time spent up to now is      521.4 secs

     End of self-consistent calculation

          k = 0.0000 0.0000 0.0000 ( 62669 PWs)   bands (ev):

   -25.2703 -12.6217  -9.2653  -7.0265  -0.9787   0.3982   0.7570   1.1045

     the Fermi energy is    -5.1490 ev

!    total energy              =     -33.74332481 Ry
     Harris-Foulkes estimate   =     -33.74332483 Ry
     estimated scf accuracy    <          2.5E-09 Ry

     convergence has been achieved in   4 iterations

     Forces acting on atoms (Ry/au):

     atom    1 type  2   force =     0.00004233   -0.02822209    0.00416421
     atom    2 type  1   force =     0.00016659    0.01663876   -0.01369463
     atom    3 type  1   force =    -0.00020893    0.01158333    0.00953042

     Total force =     0.038772     Total SCF correction =     0.000527

     Entering Dynamics:    iteration =    20
                           time      =   0.0097 pico-seconds


     Andersen thermostat:    3 collisions

ATOMIC_POSITIONS (angstrom)
O       -0.001479119   0.002411528   0.122421710
H        0.005425838   0.754997098  -0.506660232
H        0.018005749  -0.793199518  -0.497488577


     kinetic energy (Ekin) =     0.00275114 Ry
     temperature           =   144.78999760 K 
     Ekin + Etot (const)   =   -33.74057367 Ry
     Message from routine dynamics:
     Total linear momentum <> 0

     Linear momentum :   -0.0217415566    0.0209066126   -0.0235707868

     Writing output data file pwscf.save

     second order wave-functions extrapolation
     Check: negative starting charge=   -0.071175
     second order charge density extrapolation
     Check: negative starting charge=   -0.071167

     negative rho (up, down):  1.113E-04 0.000E+00

     total cpu time spent up to now is      538.0 secs

     per-process dynamical memory:    32.6 Mb

     Self-consistent Calculation

     iteration #  1     ecut=    60.00 Ry     beta=0.70
     Davidson diagonalization with overlap
     ethr =  1.00E-06,  avg # of iterations =  3.0

     Threshold (ethr) on eigenvalues was too large:
     Diagonalizing with lowered threshold

     Davidson diagonalization with overlap
     ethr =  1.68E-08,  avg # of iterations =  2.0

     negative rho (up, down):  1.313E-05 0.000E+00

     total cpu time spent up to now is      541.9 secs

     total energy              =     -33.74315722 Ry
     Harris-Foulkes estimate   =     -33.74316123 Ry
     estimated scf accuracy    <       0.00000159 Ry

     iteration #  2     ecut=    60.00 Ry     beta=0.70
     Davidson diagonalization with overlap
     ethr =  1.98E-08,  avg # of iterations =  2.0

     negative rho (up, down):  4.828E-06 0.000E+00

     total cpu time spent up to now is      544.0 secs

     total energy              =     -33.74315737 Ry
     Harris-Foulkes estimate   =     -33.74315816 Ry
     estimated scf accuracy    <       0.00000132 Ry

     iteration #  3     ecut=    60.00 Ry     beta=0.70
     Davidson diagonalization with overlap
     ethr =  1.65E-08,  avg # of iterations =  2.0

     total cpu time spent up to now is      546.0 secs

     total energy              =     -33.74315788 Ry
     Harris-Foulkes estimate   =     -33.74315767 Ry
     estimated scf accuracy    <       0.00000003 Ry

     iteration #  4     ecut=    60.00 Ry     beta=0.70
     Davidson diagonalization with overlap
     ethr =  4.33E-10,  avg # of iterations =  2.0

     total cpu time spent up to now is      547.8 secs

     End of self-consistent calculation

          k = 0.0000 0.0000 0.0000 ( 62669 PWs)   bands (ev):

   -25.2321 -12.5883  -9.2604  -7.0198  -0.9909   0.3940   0.7486   1.1038

     the Fermi energy is    -5.1400 ev

!    total energy              =     -33.74315790 Ry
     Harris-Foulkes estimate   =     -33.74315789 Ry
     estimated scf accuracy    <          7.3E-10 Ry

     convergence has been achieved in   4 iterations

     Forces acting on atoms (Ry/au):

     atom    1 type  2   force =    -0.00010305   -0.03298163   -0.00211762
     atom    2 type  1   force =     0.00034732    0.01441638   -0.01235122
     atom    3 type  1   force =    -0.00024427    0.01856525    0.01446884

     Total force =     0.044798     Total SCF correction =     0.000168

     Entering Dynamics:    iteration =    21
                           time      =   0.0102 pico-seconds


     Andersen thermostat:    3 collisions

ATOMIC_POSITIONS (angstrom)
O       -0.001505260   0.002616104   0.122270828
H        0.011266696   0.757302836  -0.503884208
H        0.012579000  -0.798746072  -0.497874399


     kinetic energy (Ekin) =     0.00261555 Ry
     temperature           =   137.65391449 K 
     Ekin + Etot (const)   =   -33.74054235 Ry
     Message from routine dynamics:
     Total linear momentum <> 0

     Linear momentum :   -0.0141709198    0.1577418217   -0.1826639592

     Writing output data file pwscf.save

     second order wave-functions extrapolation
     Check: negative starting charge=   -0.071167
     second order charge density extrapolation
     Check: negative starting charge=   -0.071151

     negative rho (up, down):  1.321E-04 0.000E+00

     total cpu time spent up to now is      562.7 secs

     per-process dynamical memory:    32.6 Mb

     Self-consistent Calculation

     iteration #  1     ecut=    60.00 Ry     beta=0.70
     Davidson diagonalization with overlap
     ethr =  1.00E-06,  avg # of iterations =  3.0

     negative rho (up, down):  1.663E-05 0.000E+00

     total cpu time spent up to now is      565.5 secs

     total energy              =     -33.74290716 Ry
     Harris-Foulkes estimate   =     -33.74291457 Ry
     estimated scf accuracy    <       0.00001261 Ry

     iteration #  2     ecut=    60.00 Ry     beta=0.70
     Davidson diagonalization with overlap
     ethr =  1.58E-07,  avg # of iterations =  2.0

     negative rho (up, down):  5.331E-06 0.000E+00

     total cpu time spent up to now is      567.5 secs

     total energy              =     -33.74290799 Ry
     Harris-Foulkes estimate   =     -33.74291247 Ry
     estimated scf accuracy    <       0.00000717 Ry

     iteration #  3     ecut=    60.00 Ry     beta=0.70
     Davidson diagonalization with overlap
     ethr =  8.96E-08,  avg # of iterations =  2.0

     negative rho (up, down):  2.851E-08 0.000E+00

     total cpu time spent up to now is      569.6 secs

     total energy              =     -33.74290990 Ry
     Harris-Foulkes estimate   =     -33.74290995 Ry
     estimated scf accuracy    <       0.00000052 Ry

     iteration #  4     ecut=    60.00 Ry     beta=0.70
     Davidson diagonalization with overlap
     ethr =  6.51E-09,  avg # of iterations =  2.0

     total cpu time spent up to now is      571.4 secs

     End of self-consistent calculation

          k = 0.0000 0.0000 0.0000 ( 62669 PWs)   bands (ev):

   -25.2042 -12.5883  -9.2371  -7.0141  -0.9978   0.3916   0.7430   1.1036

     the Fermi energy is    -5.1332 ev

!    total energy              =     -33.74290999 Ry
[...]
     Check: negative starting charge=   -0.071182

     negative rho (up, down):  3.939E-04 0.000E+00

     total cpu time spent up to now is     8412.3 secs

     per-process dynamical memory:    32.8 Mb

     Self-consistent Calculation

     iteration #  1     ecut=    60.00 Ry     beta=0.70
     Davidson diagonalization with overlap
     ethr =  1.00E-06,  avg # of iterations =  3.0

     negative rho (up, down):  6.972E-05 0.000E+00

     total cpu time spent up to now is     8415.2 secs

     total energy              =     -33.73933527 Ry
     Harris-Foulkes estimate   =     -33.73934221 Ry
     estimated scf accuracy    <       0.00000858 Ry

     iteration #  2     ecut=    60.00 Ry     beta=0.70
     Davidson diagonalization with overlap
     ethr =  1.07E-07,  avg # of iterations =  2.0

     negative rho (up, down):  6.767E-06 0.000E+00

     total cpu time spent up to now is     8417.2 secs

     total energy              =     -33.74341250 Ry
     Harris-Foulkes estimate   =     -33.74341409 Ry
     estimated scf accuracy    <       0.00000085 Ry

     iteration #  3     ecut=    60.00 Ry     beta=0.70
     Davidson diagonalization with overlap
     ethr =  1.06E-08,  avg # of iterations =  2.0

     negative rho (up, down):  2.922E-07 0.000E+00

     total cpu time spent up to now is     8419.3 secs

     total energy              =     -33.74341249 Ry
     Harris-Foulkes estimate   =     -33.74341279 Ry
     estimated scf accuracy    <       0.00000033 Ry

     iteration #  4     ecut=    60.00 Ry     beta=0.70
     Davidson diagonalization with overlap
     ethr =  4.12E-09,  avg # of iterations =  2.0

     total cpu time spent up to now is     8421.4 secs

     total energy              =     -33.74341259 Ry
     Harris-Foulkes estimate   =     -33.74341259 Ry
     estimated scf accuracy    <       0.00000003 Ry

     iteration #  5     ecut=    60.00 Ry     beta=0.70
     Davidson diagonalization with overlap
     ethr =  3.81E-10,  avg # of iterations =  2.0

     total cpu time spent up to now is     8423.2 secs

     End of self-consistent calculation

          k = 0.0000 0.0000 0.0000 ( 62669 PWs)   bands (ev):

   -25.3494 -12.6904  -9.2757  -7.0407  -0.9553   0.4062   0.7718   1.1052

     the Fermi energy is    -5.1683 ev

!    total energy              =     -33.74341255 Ry
     Harris-Foulkes estimate   =     -33.74341260 Ry
     estimated scf accuracy    <          2.5E-10 Ry

     convergence has been achieved in   5 iterations

     Forces acting on atoms (Ry/au):

     atom    1 type  2   force =    -0.00127112    0.01796496    0.01432455
     atom    2 type  1   force =     0.00101571    0.00355934   -0.00149771
     atom    3 type  1   force =     0.00025541   -0.02152430   -0.01282684

     Total force =     0.034255     Total SCF correction =     0.000268

     Entering Dynamics:    iteration =   324
                           time      =   0.1567 pico-seconds


     Andersen thermostat:    3 collisions

ATOMIC_POSITIONS (angstrom)
O       -0.006343304   0.005100134   0.120790775
H        0.115564245   0.721477564  -0.541160994
H       -0.015076257  -0.802271765  -0.437151232


     kinetic energy (Ekin) =     0.00236451 Ry
     temperature           =   124.44180316 K 
     Ekin + Etot (const)   =   -33.74104805 Ry
     Message from routine dynamics:
     Total linear momentum <> 0

     Linear momentum :   -0.0163506871    0.0502463444   -0.0568474634

     Writing output data file pwscf.save

     second order wave-functions extrapolation
     Check: negative starting charge=   -0.071182
     second order charge density extrapolation
     Check: negative starting charge=   -0.071175

     negative rho (up, down):  5.327E-04 0.000E+00

     total cpu time spent up to now is     8438.6 secs

     per-process dynamical memory:    32.8 Mb

     Self-consistent Calculation

     iteration #  1     ecut=    60.00 Ry     beta=0.70
     Davidson diagonalization with overlap
     ethr =  1.00E-06,  avg # of iterations =  3.0

     negative rho (up, down):  1.022E-04 0.000E+00

     total cpu time spent up to now is     8441.5 secs

     total energy              =     -33.73939263 Ry
     Harris-Foulkes estimate   =     -33.73941255 Ry
     estimated scf accuracy    <       0.00002997 Ry

     iteration #  2     ecut=    60.00 Ry     beta=0.70
     Davidson diagonalization with overlap
     ethr =  3.75E-07,  avg # of iterations =  2.0

     negative rho (up, down):  4.968E-05 0.000E+00

     total cpu time spent up to now is     8443.7 secs

     total energy              =     -33.73939774 Ry
     Harris-Foulkes estimate   =     -33.73941228 Ry
     estimated scf accuracy    <       0.00002786 Ry

     iteration #  3     ecut=    60.00 Ry     beta=0.70
     Davidson diagonalization with overlap
     ethr =  3.48E-07,  avg # of iterations =  2.0

     negative rho (up, down):  7.533E-08 0.000E+00

     total cpu time spent up to now is     8445.8 secs

     total energy              =     -33.74347926 Ry
     Harris-Foulkes estimate   =     -33.74348113 Ry
     estimated scf accuracy    <       0.00000032 Ry

     iteration #  4     ecut=    60.00 Ry     beta=0.70
     Davidson diagonalization with overlap
     ethr =  4.05E-09,  avg # of iterations =  2.0

     total cpu time spent up to now is     8447.6 secs

     End of self-consistent calculation

          k = 0.0000 0.0000 0.0000 ( 62669 PWs)   bands (ev):

   -25.3556 -12.7200  -9.2583  -7.0413  -0.9505   0.4083   0.7735   1.1057

     the Fermi energy is    -5.1695 ev

!    total energy              =     -33.74347909 Ry
     Harris-Foulkes estimate   =     -33.74347938 Ry
     estimated scf accuracy    <          7.6E-09 Ry

     convergence has been achieved in   4 iterations

     Forces acting on atoms (Ry/au):

     atom    1 type  2   force =    -0.00298841    0.00406773    0.01923757
     atom    2 type  1   force =     0.00253626    0.01058260   -0.00966929
     atom    3 type  1   force =     0.00045215   -0.01465034   -0.00956827

     Total force =     0.030230     Total SCF correction =     0.000847

     Entering Dynamics:    iteration =   325
                           time      =   0.1572 pico-seconds


     Andersen thermostat:    3 collisions

ATOMIC_POSITIONS (angstrom)
O       -0.006474846   0.004705175   0.120847404
H        0.111345964   0.725993199  -0.546679679
H       -0.008774154  -0.800530632  -0.432529630


     kinetic energy (Ekin) =     0.00226804 Ry
     temperature           =   119.36476847 K 
     Ekin + Etot (const)   =   -33.74121106 Ry
     Message from routine dynamics:
     Total linear momentum <> 0

     Linear momentum :    0.0523014482   -0.0363925251    0.0211676620

     Writing output data file pwscf.save

     second order wave-functions extrapolation
     Check: negative starting charge=   -0.071175
     second order charge density extrapolation
     Check: negative starting charge=   -0.071173

     negative rho (up, down):  3.009E-04 0.000E+00

     total cpu time spent up to now is     8462.4 secs

     per-process dynamical memory:    32.8 Mb

     Self-consistent Calculation

     iteration #  1     ecut=    60.00 Ry     beta=0.70
     Davidson diagonalization with overlap
     ethr =  1.00E-06,  avg # of iterations =  3.0

     negative rho (up, down):  4.940E-05 0.000E+00

     total cpu time spent up to now is     8464.7 secs

     total energy              =     -33.73934260 Ry
     Harris-Foulkes estimate   =     -33.73934769 Ry
     estimated scf accuracy    <       0.00000806 Ry

     iteration #  2     ecut=    60.00 Ry     beta=0.70
     Davidson diagonalization with overlap
     ethr =  1.01E-07,  avg # of iterations =  2.0

     negative rho (up, down):  1.433E-05 0.000E+00

     total cpu time spent up to now is     8466.8 secs

     total energy              =     -33.74341960 Ry
     Harris-Foulkes estimate   =     -33.74342248 Ry
     estimated scf accuracy    <       0.00000310 Ry

     iteration #  3     ecut=    60.00 Ry     beta=0.70
     Davidson diagonalization with overlap
     ethr =  3.87E-08,  avg # of iterations =  2.0

     negative rho (up, down):  3.814E-08 0.000E+00

     total cpu time spent up to now is     8468.9 secs

     total energy              =     -33.74341982 Ry
     Harris-Foulkes estimate   =     -33.74342062 Ry
     estimated scf accuracy    <       0.00000059 Ry

     iteration #  4     ecut=    60.00 Ry     beta=0.70
     Davidson diagonalization with overlap
     ethr =  7.40E-09,  avg # of iterations =  2.0

     total cpu time spent up to now is     8470.6 secs

     End of self-consistent calculation

          k = 0.0000 0.0000 0.0000 ( 62669 PWs)   bands (ev):

   -25.3425 -12.7125  -9.2536  -7.0389  -0.9544   0.4068   0.7708   1.1053

     the Fermi energy is    -5.1665 ev

!    total energy              =     -33.74341981 Ry
     Harris-Foulkes estimate   =     -33.74341993 Ry
     estimated scf accuracy    <          4.7E-09 Ry

     convergence has been achieved in   4 iterations

     Forces acting on atoms (Ry/au):

     atom    1 type  2   force =    -0.00186746    0.01846329    0.01593865
     atom    2 type  1   force =     0.00121467    0.00219045   -0.00212715
     atom    3 type  1   force =     0.00065279   -0.02065374   -0.01381150

     Total force =     0.035028     Total SCF correction =     0.000674

     Entering Dynamics:    iteration =   326
                           time      =   0.1577 pico-seconds


     Andersen thermostat:    3 collisions

ATOMIC_POSITIONS (angstrom)
O       -0.006872833   0.004457690   0.120999233
H        0.117340270   0.719190571  -0.546073995
H       -0.008463713  -0.789807441  -0.435540535


     kinetic energy (Ekin) =     0.00379943 Ry
     temperature           =   199.96082185 K 
     Ekin + Etot (const)   =   -33.73962038 Ry
     Message from routine dynamics:
     Total linear momentum <> 0

     Linear momentum :   -0.0015243433   -0.0547104416    0.0964629694

     Writing output data file pwscf.save

     second order wave-functions extrapolation
     Check: negative starting charge=   -0.071173
     second order charge density extrapolation
     Check: negative starting charge=   -0.071188

     negative rho (up, down):  3.718E-04 0.000E+00

     total cpu time spent up to now is     8485.4 secs

     per-process dynamical memory:    32.8 Mb

     Self-consistent Calculation

     iteration #  1     ecut=    60.00 Ry     beta=0.70
     Davidson diagonalization with overlap
     ethr =  1.00E-06,  avg # of iterations =  4.0

     negative rho (up, down):  6.460E-05 0.000E+00

     total cpu time spent up to now is     8488.1 secs

     total energy              =     -33.74286208 Ry
     Harris-Foulkes estimate   =     -33.74291502 Ry
     estimated scf accuracy    <       0.00007497 Ry

     iteration #  2     ecut=    60.00 Ry     beta=0.70
     Davidson diagonalization with overlap
     ethr =  9.37E-07,  avg # of iterations =  2.0

     negative rho (up, down):  2.893E-05 0.000E+00

     total cpu time spent up to now is     8490.2 secs

     total energy              =     -33.73880047 Ry
     Harris-Foulkes estimate   =     -33.73883202 Ry
     estimated scf accuracy    <       0.00006420 Ry

     iteration #  3     ecut=    60.00 Ry     beta=0.70
     Davidson diagonalization with overlap
     ethr =  8.02E-07,  avg # of iterations =  2.0

     negative rho (up, down):  6.401E-07 0.000E+00

     total cpu time spent up to now is     8492.3 secs

     total energy              =     -33.74289102 Ry
     Harris-Foulkes estimate   =     -33.74289197 Ry
     estimated scf accuracy    <       0.00000071 Ry

     iteration #  4     ecut=    60.00 Ry     beta=0.70
     Davidson diagonalization with overlap
     ethr =  8.91E-09,  avg # of iterations =  2.0

     total cpu time spent up to now is     8494.4 secs

     total energy              =     -33.74289109 Ry
     Harris-Foulkes estimate   =     -33.74289122 Ry
     estimated scf accuracy    <       0.00000001 Ry

     iteration #  5     ecut=    60.00 Ry     beta=0.70
     Davidson diagonalization with overlap
     ethr =  1.77E-10,  avg # of iterations =  3.0

     total cpu time spent up to now is     8496.2 secs

     End of self-consistent calculation

          k = 0.0000 0.0000 0.0000 ( 62669 PWs)   bands (ev):

   -25.4184 -12.7261  -9.3013  -7.0531  -0.9399   0.4110   0.7846   1.1059

     the Fermi energy is    -5.1850 ev

!    total energy              =     -33.74289116 Ry
     Harris-Foulkes estimate   =     -33.74289110 Ry
     estimated scf accuracy    <          7.7E-10 Ry

     convergence has been achieved in   5 iterations

     Forces acting on atoms (Ry/au):

     atom    1 type  2   force =    -0.00207351    0.02362547    0.02416327
     atom    2 type  1   force =     0.00196743    0.00976209   -0.00497477
     atom    3 type  1   force =     0.00010608   -0.03338756   -0.01918851

     Total force =     0.052471     Total SCF correction =     0.000393

     Entering Dynamics:    iteration =   327
                           time      =   0.1582 pico-seconds


     Andersen thermostat:    3 collisions

ATOMIC_POSITIONS (angstrom)
O       -0.006368136   0.004945149   0.121746461
H        0.108979200   0.716654864  -0.549543790
H       -0.008097831  -0.794993852  -0.443908004


     kinetic energy (Ekin) =     0.00306037 Ry
     temperature           =   161.06450456 K 
     Ekin + Etot (const)   =   -33.73983079 Ry
     Message from routine dynamics:
     Total linear momentum <> 0

     Linear momentum :   -0.0246993575    0.0209171514    0.0435767189

     Writing output data file pwscf.save

     second order wave-functions extrapolation
     Check: negative starting charge=   -0.071188
     second order charge density extrapolation
     Check: negative starting charge=   -0.071200

     negative rho (up, down):  8.430E-04 0.000E+00

     total cpu time spent up to now is     8511.5 secs

     per-process dynamical memory:    32.8 Mb

     Self-consistent Calculation

     iteration #  1     ecut=    60.00 Ry     beta=0.70
     Davidson diagonalization with overlap
     ethr =  1.00E-06,  avg # of iterations =  5.0

     negative rho (up, down):  1.776E-04 0.000E+00

     total cpu time spent up to now is     8514.7 secs

     total energy              =     -33.73927443 Ry
     Harris-Foulkes estimate   =     -33.73928000 Ry
     estimated scf accuracy    <       0.00003839 Ry

     iteration #  2     ecut=    60.00 Ry     beta=0.70
     Davidson diagonalization with overlap
     ethr =  4.80E-07,  avg # of iterations =  3.0

     negative rho (up, down):  8.588E-05 0.000E+00

     total cpu time spent up to now is     8517.0 secs

     total energy              =     -33.74335472 Ry
     Harris-Foulkes estimate   =     -33.74337197 Ry
     estimated scf accuracy    <       0.00002761 Ry

     iteration #  3     ecut=    60.00 Ry     beta=0.70
     Davidson diagonalization with overlap
     ethr =  3.45E-07,  avg # of iterations =  2.0

     negative rho (up, down):  3.675E-07 0.000E+00

     total cpu time spent up to now is     8519.1 secs

     total energy              =     -33.74335962 Ry
     Harris-Foulkes estimate   =     -33.74336131 Ry
     estimated scf accuracy    <       0.00000098 Ry

     iteration #  4     ecut=    60.00 Ry     beta=0.70
     Davidson diagonalization with overlap
     ethr =  1.23E-08,  avg # of iterations =  2.0

     total cpu time spent up to now is     8521.2 secs

     total energy              =     -33.74336004 Ry
     Harris-Foulkes estimate   =     -33.74335988 Ry
     estimated scf accuracy    <       0.00000002 Ry

     iteration #  5     ecut=    60.00 Ry     beta=0.70
     Davidson diagonalization with overlap
     ethr =  1.88E-10,  avg # of iterations =  3.0

     total cpu time spent up to now is     8523.1 secs

     End of self-consistent calculation

          k = 0.0000 0.0000 0.0000 ( 62669 PWs)   bands (ev):

   -25.3749 -12.6573  -9.3213  -7.0466  -0.9538   0.4065   0.7764   1.1049

     the Fermi energy is    -5.1749 ev

!    total energy              =     -33.74335999 Ry
     Harris-Foulkes estimate   =     -33.74336005 Ry
     estimated scf accuracy    <          8.3E-10 Ry

     convergence has been achieved in   5 iterations

     Forces acting on atoms (Ry/au):

     atom    1 type  2   force =    -0.00187555    0.00840403    0.01367668
     atom    2 type  1   force =     0.00192701    0.01162924   -0.00505672
     atom    3 type  1   force =    -0.00005145   -0.02003327   -0.00861997

     Total force =     0.030023     Total SCF correction =     0.000422

     Entering Dynamics:    iteration =   328
                           time      =   0.1587 pico-seconds


     Andersen thermostat:    3 collisions

ATOMIC_POSITIONS (angstrom)
O       -0.006014179   0.004323151   0.121692351
H        0.110397524   0.725750880  -0.550831364
H       -0.015123400  -0.794236434  -0.441763242


     kinetic energy (Ekin) =     0.00271814 Ry
     temperature           =   143.05341276 K 
     Ekin + Etot (const)   =   -33.74064184 Ry
     Message from routine dynamics:
     Total linear momentum <> 0

     Linear momentum :    0.0440866516   -0.1060777000    0.1177240817

     Writing output data file pwscf.save

     second order wave-functions extrapolation
     Check: negative starting charge=   -0.071200
     second order charge density extrapolation
     Check: negative starting charge=   -0.071191

     negative rho (up, down):  6.189E-04 0.000E+00

     total cpu time spent up to now is     8538.4 secs

     per-process dynamical memory:    32.8 Mb

     Self-consistent Calculation

     iteration #  1     ecut=    60.00 Ry     beta=0.70
     Davidson diagonalization with overlap
     ethr =  1.00E-06,  avg # of iterations =  3.0

     negative rho (up, down):  1.221E-04 0.000E+00

     total cpu time spent up to now is     8540.9 secs

     total energy              =     -33.73930949 Ry
     Harris-Foulkes estimate   =     -33.73931838 Ry
     estimated scf accuracy    <       0.00002379 Ry

     iteration #  2     ecut=    60.00 Ry     beta=0.70
     Davidson diagonalization with overlap
     ethr =  2.97E-07,  avg # of iterations =  3.0

     negative rho (up, down):  5.329E-05 0.000E+00

     total cpu time spent up to now is     8543.2 secs

     total energy              =     -33.74338846 Ry
     Harris-Foulkes estimate   =     -33.74339819 Ry
     estimated scf accuracy    <       0.00001456 Ry

     iteration #  3     ecut=    60.00 Ry     beta=0.70
     Davidson diagonalization with overlap
     ethr =  1.82E-07,  avg # of iterations =  2.0

     negative rho (up, down):  5.965E-07 0.000E+00

     total cpu time spent up to now is     8545.2 secs

     total energy              =     -33.74339125 Ry
     Harris-Foulkes estimate   =     -33.74339222 Ry
     estimated scf accuracy    <       0.00000080 Ry

     iteration #  4     ecut=    60.00 Ry     beta=0.70
     Davidson diagonalization with overlap
     ethr =  1.00E-08,  avg # of iterations =  2.0

     total cpu time spent up to now is     8547.2 secs

     total energy              =     -33.74339144 Ry
     Harris-Foulkes estimate   =     -33.74339144 Ry
     estimated scf accuracy    <       0.00000001 Ry

     iteration #  5     ecut=    60.00 Ry     beta=0.70
     Davidson diagonalization with overlap
     ethr =  1.52E-10,  avg # of iterations =  2.0

     total cpu time spent up to now is     8549.0 secs

     End of self-consistent calculation

          k = 0.0000 0.0000 0.0000 ( 62669 PWs)   bands (ev):

   -25.3379 -12.6540  -9.2945  -7.0394  -0.9615   0.4039   0.7694   1.1047

     the Fermi energy is    -5.1658 ev

!    total energy              =     -33.74339137 Ry
     Harris-Foulkes estimate   =     -33.74339145 Ry
     estimated scf accuracy    <          6.1E-10 Ry

     convergence has been achieved in   5 iterations
