
     Program PWSCF v.6.0 (svn rev. 13079) starts on 13Apr2018 at  4:18:27 

     This program is part of the open-source Quantum ESPRESSO suite
     for quantum simulation of materials; please cite
         "P. Giannozzi et al., J. Phys.:Condens. Matter 21 395502 (2009);
          URL http://www.quantum-espresso.org", 
     in publications or presentations arising from this work. More details at
     http://www.quantum-espresso.org/quote

     Parallel version (MPI), running on    28 processors
     R & G space division:  proc/nbgrp/npool/nimage =      28
     Reading input from ../H2O-1000x.in

     Current dimensions of program PWSCF are:
     Max number of different atomic species (ntypx) = 10
     Max number of k-points (npk) =  40000
     Max angular momentum in pseudopotentials (lmaxx) =  3

     Subspace diagonalization in iterative solution of the eigenvalue problem:
     a serial algorithm will be used

 
     Parallelization info
     --------------------
     sticks:   dense  smooth     PW     G-vecs:    dense   smooth      PW
     Min         273     273     67                17945    17945    2235
     Max         274     274     68                17950    17950    2240
     Sum        7645    7645   1901               502479   502479   62669
 


     bravais-lattice index     =            1
     lattice parameter (alat)  =      20.0000  a.u.
     unit-cell volume          =    8000.0000 (a.u.)^3
     number of atoms/cell      =            3
     number of atomic types    =            2
     number of electrons       =         8.00
     number of Kohn-Sham states=            4
     kinetic-energy cutoff     =      60.0000  Ry
     charge density cutoff     =     240.0000  Ry
     convergence threshold     =      1.0E-08
     mixing beta               =       0.7000
     number of iterations used =            8  plain     mixing
     Exchange-correlation      = BLYP ( 1  3  1  3 0 0)
     nstep                     =         1000


     celldm(1)=  20.000000  celldm(2)=   0.000000  celldm(3)=   0.000000
     celldm(4)=   0.000000  celldm(5)=   0.000000  celldm(6)=   0.000000

     crystal axes: (cart. coord. in units of alat)
               a(1) = (   1.000000   0.000000   0.000000 )  
               a(2) = (   0.000000   1.000000   0.000000 )  
               a(3) = (   0.000000   0.000000   1.000000 )  

     reciprocal axes: (cart. coord. in units 2 pi/alat)
               b(1) = (  1.000000  0.000000  0.000000 )  
               b(2) = (  0.000000  1.000000  0.000000 )  
               b(3) = (  0.000000  0.000000  1.000000 )  


     PseudoPot. # 1 for  H read from file:
     ./H.blyp-hgh.UPF
     MD5 check sum: c576e69559cde411e611be972c763230
     Pseudo is Norm-conserving, Zval =  1.0
     Generated in analytical, separable form
     Using radial grid of  929 points,  0 beta functions with: 

     PseudoPot. # 2 for  O read from file:
     ./O.blyp-hgh.UPF
     MD5 check sum: d0b7156309aa9befef28faac7bc56342
     Pseudo is Norm-conserving, Zval =  6.0
     Generated in analytical, separable form
     Using radial grid of 1095 points,  1 beta functions with: 
                l(1) =   0

     atomic species   valence    mass     pseudopotential
        H              1.00     1.01000      H( 1.00)
        O              6.00    16.00000      O( 1.00)

     No symmetry found



   Cartesian axes

     site n.     atom                  positions (alat units)
         1           O   tau(   1) = (   0.0000000   0.0000000   0.0112686  )
         2           H   tau(   2) = (   0.0000000   0.0721156  -0.0450744  )
         3           H   tau(   3) = (   0.0000000  -0.0721156  -0.0450744  )

     number of k points=     1
                       cart. coord. in units 2pi/alat
        k(    1) = (   0.0000000   0.0000000   0.0000000), wk =   2.0000000

     Dense  grid:   502479 G-vectors     FFT dimensions: ( 100, 100, 100)

     Estimated max dynamical RAM per process >      17.25Mb

     Estimated total allocated dynamical RAM >     483.03Mb

     Initial potential from superposition of free atoms
     Check: negative starting charge=   -0.071145

     starting charge    7.99998, renormalised to    8.00000

     negative rho (up, down):  7.115E-02 0.000E+00
     Starting wfc are    6 randomized atomic wfcs

     total cpu time spent up to now is       10.5 secs

     per-process dynamical memory:    29.7 Mb

     Self-consistent Calculation

     iteration #  1     ecut=    60.00 Ry     beta=0.70
     Davidson diagonalization with overlap
     ethr =  1.00E-02,  avg # of iterations =  2.0

     negative rho (up, down):  2.059E-02 0.000E+00

     total cpu time spent up to now is       12.6 secs

     total energy              =     -33.64323775 Ry
     Harris-Foulkes estimate   =     -33.72909278 Ry
     estimated scf accuracy    <       0.22787228 Ry

     iteration #  2     ecut=    60.00 Ry     beta=0.70
     Davidson diagonalization with overlap
     ethr =  2.85E-03,  avg # of iterations =  2.0

     negative rho (up, down):  1.213E-02 0.000E+00

     total cpu time spent up to now is       14.4 secs

     total energy              =     -33.68611622 Ry
     Harris-Foulkes estimate   =     -33.76840859 Ry
     estimated scf accuracy    <       0.18751303 Ry

     iteration #  3     ecut=    60.00 Ry     beta=0.70
     Davidson diagonalization with overlap
     ethr =  2.34E-03,  avg # of iterations =  2.0

     negative rho (up, down):  1.497E-06 0.000E+00

     total cpu time spent up to now is       16.0 secs

     total energy              =     -33.74057551 Ry
     Harris-Foulkes estimate   =     -33.72921113 Ry
     estimated scf accuracy    <       0.00536983 Ry

     iteration #  4     ecut=    60.00 Ry     beta=0.70
     Davidson diagonalization with overlap
     ethr =  6.71E-05,  avg # of iterations =  2.0

     negative rho (up, down):  2.387E-04 0.000E+00

     total cpu time spent up to now is       17.7 secs

     total energy              =     -33.74204427 Ry
     Harris-Foulkes estimate   =     -33.74213841 Ry
     estimated scf accuracy    <       0.00025821 Ry

     iteration #  5     ecut=    60.00 Ry     beta=0.70
     Davidson diagonalization with overlap
     ethr =  3.23E-06,  avg # of iterations =  2.0

     negative rho (up, down):  2.476E-05 0.000E+00

     total cpu time spent up to now is       19.2 secs

     total energy              =     -33.74205302 Ry
     Harris-Foulkes estimate   =     -33.74206588 Ry
     estimated scf accuracy    <       0.00002870 Ry

     iteration #  6     ecut=    60.00 Ry     beta=0.70
     Davidson diagonalization with overlap
     ethr =  3.59E-07,  avg # of iterations =  2.0

     negative rho (up, down):  2.915E-08 0.000E+00

     total cpu time spent up to now is       20.9 secs

     total energy              =     -33.74205624 Ry
     Harris-Foulkes estimate   =     -33.74205759 Ry
     estimated scf accuracy    <       0.00000158 Ry

     iteration #  7     ecut=    60.00 Ry     beta=0.70
     Davidson diagonalization with overlap
     ethr =  1.98E-08,  avg # of iterations =  2.0

     total cpu time spent up to now is       22.6 secs

     total energy              =     -33.74205625 Ry
     Harris-Foulkes estimate   =     -33.74205646 Ry
     estimated scf accuracy    <       0.00000004 Ry

     iteration #  8     ecut=    60.00 Ry     beta=0.70
     Davidson diagonalization with overlap
     ethr =  5.15E-10,  avg # of iterations =  2.0

     total cpu time spent up to now is       24.3 secs

     total energy              =     -33.74205615 Ry
     Harris-Foulkes estimate   =     -33.74205625 Ry
     estimated scf accuracy    <       0.00000002 Ry

     iteration #  9     ecut=    60.00 Ry     beta=0.70
     Davidson diagonalization with overlap
     ethr =  2.13E-10,  avg # of iterations =  2.0

     total cpu time spent up to now is       25.5 secs

     End of self-consistent calculation

          k = 0.0000 0.0000 0.0000 ( 62669 PWs)   bands (ev):

   -25.4809 -12.9152  -9.2076  -7.0606

     highest occupied level (ev):    -7.0606

!    total energy              =     -33.74205614 Ry
     Harris-Foulkes estimate   =     -33.74205615 Ry
     estimated scf accuracy    <          1.2E-09 Ry

     convergence has been achieved in   9 iterations

     Forces acting on atoms (Ry/au):

     atom    1 type  2   force =     0.00000000   -0.00000007    0.05215844
     atom    2 type  1   force =    -0.00000001    0.02845865   -0.02607930
     atom    3 type  1   force =     0.00000000   -0.02845858   -0.02607914

     Total force =     0.075502     Total SCF correction =     0.000067

     Molecular Dynamics Calculation

     Starting temperature  =    10.00 K

     temperature is controlled by Andersen thermostat
     Collision frequency = 1.0000/timestep
     mass H                =     1.01
     mass O                =    16.00
     Time step             =    10.00 a.u.,  0.4838 femto-seconds

     Entering Dynamics:    iteration =     1
                           time      =   0.0005 pico-seconds


     Andersen thermostat:    3 collisions

ATOMIC_POSITIONS (angstrom)
O       -0.000066196  -0.000039320   0.119241637
H        0.000008111   0.765011881  -0.478311650
H        0.001040538  -0.764388995  -0.475459764


     kinetic energy (Ekin) =     0.00013370 Ry
     temperature           =     7.03661245 K 
     Ekin + Etot (const)   =   -33.74192244 Ry

     Linear momentum :    0.0000000000   -0.0000000000   -0.0000000000

     Writing output data file pwscf.save
     Check: negative starting charge=   -0.071145
     NEW-OLD atomic charge density approx. for the potential
     Check: negative starting charge=   -0.071144

     negative rho (up, down):  4.374E-05 0.000E+00

     total cpu time spent up to now is       33.2 secs

     per-process dynamical memory:    32.0 Mb

     Self-consistent Calculation

     iteration #  1     ecut=    60.00 Ry     beta=0.70
     Davidson diagonalization with overlap
     ethr =  1.00E-06,  avg # of iterations =  2.0

     Threshold (ethr) on eigenvalues was too large:
     Diagonalizing with lowered threshold

     Davidson diagonalization with overlap
     ethr =  2.97E-08,  avg # of iterations =  2.0

     negative rho (up, down):  3.632E-06 0.000E+00

     total cpu time spent up to now is       35.3 secs

     total energy              =     -33.74218684 Ry
     Harris-Foulkes estimate   =     -33.74218912 Ry
     estimated scf accuracy    <       0.00000308 Ry

     iteration #  2     ecut=    60.00 Ry     beta=0.70
     Davidson diagonalization with overlap
     ethr =  3.84E-08,  avg # of iterations =  2.0

     negative rho (up, down):  9.280E-07 0.000E+00

     total cpu time spent up to now is       36.8 secs

     total energy              =     -33.74218703 Ry
     Harris-Foulkes estimate   =     -33.74218809 Ry
     estimated scf accuracy    <       0.00000154 Ry

     iteration #  3     ecut=    60.00 Ry     beta=0.70
     Davidson diagonalization with overlap
     ethr =  1.93E-08,  avg # of iterations =  2.0

     total cpu time spent up to now is       38.4 secs

     total energy              =     -33.74218721 Ry
     Harris-Foulkes estimate   =     -33.74218745 Ry
     estimated scf accuracy    <       0.00000010 Ry

     iteration #  4     ecut=    60.00 Ry     beta=0.70
     Davidson diagonalization with overlap
     ethr =  1.29E-09,  avg # of iterations =  2.0

     total cpu time spent up to now is       39.7 secs

     End of self-consistent calculation

          k = 0.0000 0.0000 0.0000 ( 62669 PWs)   bands (ev):

   -25.4674 -12.9117  -9.1999  -7.0582

     highest occupied level (ev):    -7.0582

!    total energy              =     -33.74218713 Ry
     Harris-Foulkes estimate   =     -33.74218723 Ry
     estimated scf accuracy    <          1.2E-09 Ry

     convergence has been achieved in   4 iterations

     Forces acting on atoms (Ry/au):

     atom    1 type  2   force =     0.00003176    0.00345041    0.05048751
     atom    2 type  1   force =    -0.00003340    0.02486116   -0.02394891
     atom    3 type  1   force =     0.00000164   -0.02831156   -0.02653860

     Total force =     0.072515     Total SCF correction =     0.000279

     Entering Dynamics:    iteration =     2
                           time      =   0.0010 pico-seconds


     Andersen thermostat:    3 collisions

ATOMIC_POSITIONS (angstrom)
O       -0.000052800  -0.000109766   0.119403159
H        0.000237950   0.765776654  -0.478925633
H        0.000598494  -0.764037782  -0.477404546


     kinetic energy (Ekin) =     0.00007279 Ry
     temperature           =     3.83103661 K 
     Ekin + Etot (const)   =   -33.74211434 Ry
     Message from routine dynamics:
     Total linear momentum <> 0

     Linear momentum :    0.0031640920    0.0367678347    0.0178187929

     Writing output data file pwscf.save

     first order wave-functions extrapolation
     Check: negative starting charge=   -0.071144
     first order charge density extrapolation
     Check: negative starting charge=   -0.071147

     negative rho (up, down):  1.270E-04 0.000E+00

     total cpu time spent up to now is       49.8 secs

     per-process dynamical memory:    32.0 Mb

     Self-consistent Calculation

     iteration #  1     ecut=    60.00 Ry     beta=0.70
     Davidson diagonalization with overlap
     ethr =  1.00E-06,  avg # of iterations =  2.0

     Threshold (ethr) on eigenvalues was too large:
     Diagonalizing with lowered threshold

     Davidson diagonalization with overlap
     ethr =  2.13E-08,  avg # of iterations =  3.0

     negative rho (up, down):  1.569E-05 0.000E+00

     total cpu time spent up to now is       52.1 secs

     total energy              =     -33.74233248 Ry
     Harris-Foulkes estimate   =     -33.74233416 Ry
     estimated scf accuracy    <       0.00000179 Ry

     iteration #  2     ecut=    60.00 Ry     beta=0.70
     Davidson diagonalization with overlap
     ethr =  2.24E-08,  avg # of iterations =  2.0

     negative rho (up, down):  8.686E-07 0.000E+00

     total cpu time spent up to now is       53.9 secs

     total energy              =     -33.74233293 Ry
     Harris-Foulkes estimate   =     -33.74233270 Ry
     estimated scf accuracy    <       0.00000025 Ry

     iteration #  3     ecut=    60.00 Ry     beta=0.70
     Davidson diagonalization with overlap
     ethr =  3.14E-09,  avg # of iterations =  2.0

     total cpu time spent up to now is       55.6 secs

     total energy              =     -33.74233329 Ry
     Harris-Foulkes estimate   =     -33.74233303 Ry
     estimated scf accuracy    <       0.00000013 Ry

     iteration #  4     ecut=    60.00 Ry     beta=0.70
     Davidson diagonalization with overlap
     ethr =  1.62E-09,  avg # of iterations =  2.0

     total cpu time spent up to now is       56.8 secs

     End of self-consistent calculation

          k = 0.0000 0.0000 0.0000 ( 62669 PWs)   bands (ev):

   -25.4579 -12.8961  -9.2043  -7.0568

     highest occupied level (ev):    -7.0568

!    total energy              =     -33.74233335 Ry
     Harris-Foulkes estimate   =     -33.74233332 Ry
     estimated scf accuracy    <          1.4E-09 Ry

     convergence has been achieved in   4 iterations

     Forces acting on atoms (Ry/au):

     atom    1 type  2   force =    -0.00013936    0.00355663    0.04771170
     atom    2 type  1   force =     0.00006121    0.02354361   -0.02245697
     atom    3 type  1   force =     0.00007815   -0.02710024   -0.02525473

     Total force =     0.068702     Total SCF correction =     0.000259

     Entering Dynamics:    iteration =     3
                           time      =   0.0015 pico-seconds


     Andersen thermostat:    3 collisions

ATOMIC_POSITIONS (angstrom)
O       -0.000134173  -0.000062954   0.119565080
H        0.000918664   0.767585991  -0.478683855
H        0.001206857  -0.766588705  -0.480211418


     kinetic energy (Ekin) =     0.00021112 Ry
     temperature           =    11.11122981 K 
     Ekin + Etot (const)   =   -33.74212222 Ry
     Message from routine dynamics:
     Total linear momentum <> 0

     Linear momentum :    0.0367942434   -0.0405924037    0.0065539017

     Writing output data file pwscf.save

     second order wave-functions extrapolation
     Check: negative starting charge=   -0.071147
     second order charge density extrapolation
     Check: negative starting charge=   -0.071147

     negative rho (up, down):  8.909E-05 0.000E+00

     total cpu time spent up to now is       68.0 secs

     per-process dynamical memory:    32.0 Mb

     Self-consistent Calculation

     iteration #  1     ecut=    60.00 Ry     beta=0.70
     Davidson diagonalization with overlap
     ethr =  1.00E-06,  avg # of iterations =  3.0

     negative rho (up, down):  9.562E-06 0.000E+00

     total cpu time spent up to now is       69.7 secs

     total energy              =     -33.74264449 Ry
     Harris-Foulkes estimate   =     -33.74265243 Ry
     estimated scf accuracy    <       0.00001168 Ry

     iteration #  2     ecut=    60.00 Ry     beta=0.70
     Davidson diagonalization with overlap
     ethr =  1.46E-07,  avg # of iterations =  2.0

     negative rho (up, down):  3.171E-06 0.000E+00

     total cpu time spent up to now is       71.2 secs

     total energy              =     -33.74264638 Ry
     Harris-Foulkes estimate   =     -33.74265107 Ry
     estimated scf accuracy    <       0.00000804 Ry

     iteration #  3     ecut=    60.00 Ry     beta=0.70
     Davidson diagonalization with overlap
     ethr =  1.01E-07,  avg # of iterations =  2.0

     negative rho (up, down):  3.179E-08 0.000E+00

     total cpu time spent up to now is       72.8 secs

     total energy              =     -33.74264834 Ry
     Harris-Foulkes estimate   =     -33.74264827 Ry
     estimated scf accuracy    <       0.00000015 Ry

     iteration #  4     ecut=    60.00 Ry     beta=0.70
     Davidson diagonalization with overlap
     ethr =  1.90E-09,  avg # of iterations =  2.0

     total cpu time spent up to now is       74.0 secs

     End of self-consistent calculation

          k = 0.0000 0.0000 0.0000 ( 62669 PWs)   bands (ev):

   -25.4288 -12.8731  -9.1991  -7.0516

     highest occupied level (ev):    -7.0516

!    total energy              =     -33.74264850 Ry
     Harris-Foulkes estimate   =     -33.74264839 Ry
     estimated scf accuracy    <          2.8E-09 Ry

     convergence has been achieved in   4 iterations

     Forces acting on atoms (Ry/au):

     atom    1 type  2   force =     0.00002020   -0.00030367    0.04242387
     atom    2 type  1   force =    -0.00001365    0.02157415   -0.02122695
     atom    3 type  1   force =    -0.00000655   -0.02127048   -0.02119692

     Total force =     0.060147     Total SCF correction =     0.000519

     Entering Dynamics:    iteration =     4
                           time      =   0.0019 pico-seconds


     Andersen thermostat:    3 collisions

ATOMIC_POSITIONS (angstrom)
O       -0.000305977  -0.000166475   0.119838752
H        0.000355265   0.767569562  -0.480986305
H        0.004491894  -0.764932340  -0.482244354


     kinetic energy (Ekin) =     0.00039342 Ry
     temperature           =    20.70517437 K 
     Ekin + Etot (const)   =   -33.74225508 Ry
     Message from routine dynamics:
     Total linear momentum <> 0

     Linear momentum :    0.0286873754    0.0052705005   -0.0261793953

     Writing output data file pwscf.save

     second order wave-functions extrapolation
     Check: negative starting charge=   -0.071147
     second order charge density extrapolation
     Check: negative starting charge=   -0.071153

     negative rho (up, down):  1.527E-04 0.000E+00

     total cpu time spent up to now is       85.1 secs

     per-process dynamical memory:    32.0 Mb

     Self-consistent Calculation

     iteration #  1     ecut=    60.00 Ry     beta=0.70
     Davidson diagonalization with overlap
     ethr =  1.00E-06,  avg # of iterations =  2.0

     Threshold (ethr) on eigenvalues was too large:
     Diagonalizing with lowered threshold

     Davidson diagonalization with overlap
     ethr =  1.71E-08,  avg # of iterations =  4.0

     negative rho (up, down):  2.003E-05 0.000E+00

     total cpu time spent up to now is       87.4 secs

     total energy              =     -33.74275879 Ry
     Harris-Foulkes estimate   =     -33.74276078 Ry
     estimated scf accuracy    <       0.00000160 Ry

     iteration #  2     ecut=    60.00 Ry     beta=0.70
     Davidson diagonalization with overlap
     ethr =  2.00E-08,  avg # of iterations =  2.0

     negative rho (up, down):  2.798E-06 0.000E+00

     total cpu time spent up to now is       88.8 secs

     total energy              =     -33.74275904 Ry
     Harris-Foulkes estimate   =     -33.74275911 Ry
     estimated scf accuracy    <       0.00000038 Ry

     iteration #  3     ecut=    60.00 Ry     beta=0.70
     Davidson diagonalization with overlap
     ethr =  4.78E-09,  avg # of iterations =  2.0

     total cpu time spent up to now is       90.3 secs

     total energy              =     -33.74275938 Ry
     Harris-Foulkes estimate   =     -33.74275919 Ry
     estimated scf accuracy    <       0.00000014 Ry

     iteration #  4     ecut=    60.00 Ry     beta=0.70
     Davidson diagonalization with overlap
     ethr =  1.74E-09,  avg # of iterations =  2.0

     total cpu time spent up to now is       91.6 secs

     End of self-consistent calculation

          k = 0.0000 0.0000 0.0000 ( 62669 PWs)   bands (ev):

   -25.4242 -12.8510  -9.2121  -7.0512

     highest occupied level (ev):    -7.0512

!    total energy              =     -33.74275940 Ry
     Harris-Foulkes estimate   =     -33.74275941 Ry
     estimated scf accuracy    <          6.4E-10 Ry

     convergence has been achieved in   4 iterations

     Forces acting on atoms (Ry/au):

     atom    1 type  2   force =    -0.00027770    0.00206864    0.03999326
     atom    2 type  1   force =     0.00007886    0.01988304   -0.01911143
     atom    3 type  1   force =     0.00019884   -0.02195169   -0.02088184

     Total force =     0.057292     Total SCF correction =     0.000156

     Entering Dynamics:    iteration =     5
                           time      =   0.0024 pico-seconds


     Andersen thermostat:    3 collisions

ATOMIC_POSITIONS (angstrom)
O       -0.000311892  -0.000154213   0.120163775
H       -0.001984039   0.769506228  -0.483933393
H        0.006924901  -0.767063245  -0.484446145


     kinetic energy (Ekin) =     0.00042354 Ry
     temperature           =    22.29077759 K 
     Ekin + Etot (const)   =   -33.74233585 Ry
     Message from routine dynamics:
     Total linear momentum <> 0

     Linear momentum :   -0.0121090047    0.0309070967    0.0136243577

     Writing output data file pwscf.save

     second order wave-functions extrapolation
     Check: negative starting charge=   -0.071153
     second order charge density extrapolation
     Check: negative starting charge=   -0.071157

     negative rho (up, down):  9.625E-05 0.000E+00

     total cpu time spent up to now is      102.9 secs

     per-process dynamical memory:    32.0 Mb

     Self-consistent Calculation

     iteration #  1     ecut=    60.00 Ry     beta=0.70
     Davidson diagonalization with overlap
     ethr =  1.00E-06,  avg # of iterations =  2.0

     Threshold (ethr) on eigenvalues was too large:
     Diagonalizing with lowered threshold

     Davidson diagonalization with overlap
     ethr =  2.58E-08,  avg # of iterations =  2.0

     negative rho (up, down):  1.069E-05 0.000E+00

     total cpu time spent up to now is      105.2 secs

     total energy              =     -33.74308924 Ry
     Harris-Foulkes estimate   =     -33.74309209 Ry
     estimated scf accuracy    <       0.00000296 Ry

     iteration #  2     ecut=    60.00 Ry     beta=0.70
     Davidson diagonalization with overlap
     ethr =  3.70E-08,  avg # of iterations =  2.0

     negative rho (up, down):  3.446E-06 0.000E+00

     total cpu time spent up to now is      106.7 secs

     total energy              =     -33.74308949 Ry
     Harris-Foulkes estimate   =     -33.74309067 Ry
     estimated scf accuracy    <       0.00000189 Ry

     iteration #  3     ecut=    60.00 Ry     beta=0.70
     Davidson diagonalization with overlap
     ethr =  2.36E-08,  avg # of iterations =  2.0

     total cpu time spent up to now is      108.3 secs

     total energy              =     -33.74308990 Ry
     Harris-Foulkes estimate   =     -33.74308996 Ry
     estimated scf accuracy    <       0.00000008 Ry

     iteration #  4     ecut=    60.00 Ry     beta=0.70
     Davidson diagonalization with overlap
     ethr =  9.73E-10,  avg # of iterations =  2.0

     total cpu time spent up to now is      109.9 secs

     End of self-consistent calculation

          k = 0.0000 0.0000 0.0000 ( 62669 PWs)   bands (ev):

   -25.3892 -12.8140  -9.2130  -7.0452

     highest occupied level (ev):    -7.0452

!    total energy              =     -33.74308996 Ry
     Harris-Foulkes estimate   =     -33.74308992 Ry
     estimated scf accuracy    <          1.4E-09 Ry

     convergence has been achieved in   4 iterations

     Forces acting on atoms (Ry/au):

     atom    1 type  2   force =    -0.00050927    0.00233801    0.03293172
     atom    2 type  1   force =     0.00015537    0.01521563   -0.01546521
     atom    3 type  1   force =     0.00035390   -0.01755364   -0.01746651

     Total force =     0.046629     Total SCF correction =     0.000275

     Entering Dynamics:    iteration =     6
                           time      =   0.0029 pico-seconds


     Andersen thermostat:    3 collisions

ATOMIC_POSITIONS (angstrom)
O       -0.000246767  -0.000205462   0.120248010
H       -0.003788987   0.769883475  -0.483051943
H        0.007698166  -0.766628634  -0.486662017


     kinetic energy (Ekin) =     0.00020115 Ry
     temperature           =    10.58652099 K 
     Ekin + Etot (const)   =   -33.74288880 Ry
     Message from routine dynamics:
     Total linear momentum <> 0

     Linear momentum :   -0.0071386751   -0.0577689788   -0.0148378974

     Writing output data file pwscf.save

     second order wave-functions extrapolation
     Check: negative starting charge=   -0.071157
     second order charge density extrapolation
     Check: negative starting charge=   -0.071158

     negative rho (up, down):  4.921E-05 0.000E+00

     total cpu time spent up to now is      121.5 secs

     per-process dynamical memory:    32.0 Mb

     Self-consistent Calculation

     iteration #  1     ecut=    60.00 Ry     beta=0.70
     Davidson diagonalization with overlap
     ethr =  1.00E-06,  avg # of iterations =  2.0

     Threshold (ethr) on eigenvalues was too large:
     Diagonalizing with lowered threshold

     Davidson diagonalization with overlap
     ethr =  1.01E-08,  avg # of iterations =  3.0

     negative rho (up, down):  4.261E-06 0.000E+00

     total cpu time spent up to now is      123.7 secs

     total energy              =     -33.74313398 Ry
     Harris-Foulkes estimate   =     -33.74313481 Ry
     estimated scf accuracy    <       0.00000085 Ry

     iteration #  2     ecut=    60.00 Ry     beta=0.70
     Davidson diagonalization with overlap
     ethr =  1.06E-08,  avg # of iterations =  2.0

     negative rho (up, down):  4.452E-07 0.000E+00

     total cpu time spent up to now is      125.2 secs

     total energy              =     -33.74313392 Ry
     Harris-Foulkes estimate   =     -33.74313413 Ry
     estimated scf accuracy    <       0.00000018 Ry

     iteration #  3     ecut=    60.00 Ry     beta=0.70
     Davidson diagonalization with overlap
     ethr =  2.29E-09,  avg # of iterations =  2.0

     total cpu time spent up to now is      126.7 secs

     total energy              =     -33.74313395 Ry
     Harris-Foulkes estimate   =     -33.74313399 Ry
     estimated scf accuracy    <       0.00000007 Ry

     iteration #  4     ecut=    60.00 Ry     beta=0.70
     Davidson diagonalization with overlap
     ethr =  8.65E-10,  avg # of iterations =  2.0

     total cpu time spent up to now is      128.0 secs

     End of self-consistent calculation

          k = 0.0000 0.0000 0.0000 ( 62669 PWs)   bands (ev):

   -25.3853 -12.8062  -9.2157  -7.0446

     highest occupied level (ev):    -7.0446

!    total energy              =     -33.74313392 Ry
     Harris-Foulkes estimate   =     -33.74313396 Ry
     estimated scf accuracy    <          4.1E-10 Ry

     convergence has been achieved in   4 iterations

     Forces acting on atoms (Ry/au):

     atom    1 type  2   force =    -0.00034111    0.00074883    0.03190158
     atom    2 type  1   force =     0.00004951    0.01555852   -0.01557890
     atom    3 type  1   force =     0.00029161   -0.01630735   -0.01632268

     Total force =     0.045118     Total SCF correction =     0.000145

     Entering Dynamics:    iteration =     7
                           time      =   0.0034 pico-seconds


     Andersen thermostat:    3 collisions

ATOMIC_POSITIONS (angstrom)
O       -0.000300237  -0.000147906   0.120263154
H       -0.003850525   0.769886209  -0.482310360
H        0.008606759  -0.767543140  -0.487643499


     kinetic energy (Ekin) =     0.00008543 Ry
     temperature           =     4.49624376 K 
     Ekin + Etot (const)   =   -33.74304849 Ry
     Message from routine dynamics:
     Total linear momentum <> 0

     Linear momentum :    0.0033627790   -0.0011931947    0.0542122174

     Writing output data file pwscf.save

     second order wave-functions extrapolation
     Check: negative starting charge=   -0.071158
     second order charge density extrapolation
     Check: negative starting charge=   -0.071158

     negative rho (up, down):  3.594E-05 0.000E+00

     total cpu time spent up to now is      139.1 secs

     per-process dynamical memory:    32.0 Mb

     Self-consistent Calculation

     iteration #  1     ecut=    60.00 Ry     beta=0.70
     Davidson diagonalization with overlap
     ethr =  1.00E-06,  avg # of iterations =  2.0

     Threshold (ethr) on eigenvalues was too large:
     Diagonalizing with lowered threshold

     Davidson diagonalization with overlap
     ethr =  3.62E-09,  avg # of iterations =  3.0

     negative rho (up, down):  2.782E-06 0.000E+00

     total cpu time spent up to now is      141.4 secs

     total energy              =     -33.74316804 Ry
     Harris-Foulkes estimate   =     -33.74316876 Ry
     estimated scf accuracy    <       0.00000037 Ry

     iteration #  2     ecut=    60.00 Ry     beta=0.70
     Davidson diagonalization with overlap
     ethr =  4.67E-09,  avg # of iterations =  2.0

     negative rho (up, down):  1.434E-07 0.000E+00

     total cpu time spent up to now is      142.9 secs

     total energy              =     -33.74316794 Ry
     Harris-Foulkes estimate   =     -33.74316810 Ry
     estimated scf accuracy    <       0.00000004 Ry

     iteration #  3     ecut=    60.00 Ry     beta=0.70
     Davidson diagonalization with overlap
     ethr =  5.01E-10,  avg # of iterations =  2.0

     total cpu time spent up to now is      144.5 secs

     total energy              =     -33.74316789 Ry
     Harris-Foulkes estimate   =     -33.74316795 Ry
     estimated scf accuracy    <       0.00000001 Ry

     iteration #  4     ecut=    60.00 Ry     beta=0.70
     Davidson diagonalization with overlap
     ethr =  1.72E-10,  avg # of iterations =  2.0

     total cpu time spent up to now is      145.7 secs

     End of self-consistent calculation

          k = 0.0000 0.0000 0.0000 ( 62669 PWs)   bands (ev):

   -25.3803 -12.8033  -9.2142  -7.0438

     highest occupied level (ev):    -7.0438

!    total energy              =     -33.74316792 Ry
     Harris-Foulkes estimate   =     -33.74316790 Ry
     estimated scf accuracy    <          8.7E-10 Ry

     convergence has been achieved in   4 iterations

     Forces acting on atoms (Ry/au):

     atom    1 type  2   force =    -0.00016200   -0.00199803    0.03110309
     atom    2 type  1   force =    -0.00004063    0.01624213   -0.01618424
     atom    3 type  1   force =     0.00020263   -0.01424410   -0.01491884

     Total force =     0.043848     Total SCF correction =     0.000305

     Entering Dynamics:    iteration =     8
                           time      =   0.0039 pico-seconds


     Andersen thermostat:    3 collisions

ATOMIC_POSITIONS (angstrom)
O       -0.000322268  -0.000141603   0.120509261
H       -0.004473287   0.771788803  -0.485395113
H        0.009578527  -0.769545594  -0.488457474


     kinetic energy (Ekin) =     0.00026543 Ry
     temperature           =    13.96932568 K 
     Ekin + Etot (const)   =   -33.74290249 Ry
     Message from routine dynamics:
     Total linear momentum <> 0

     Linear momentum :    0.0247480131   -0.0324590273   -0.0435635997

     Writing output data file pwscf.save

     second order wave-functions extrapolation
     Check: negative starting charge=   -0.071158
     second order charge density extrapolation
     Check: negative starting charge=   -0.071159

     negative rho (up, down):  1.523E-04 0.000E+00

     total cpu time spent up to now is      157.8 secs

     per-process dynamical memory:    32.0 Mb

     Self-consistent Calculation

     iteration #  1     ecut=    60.00 Ry     beta=0.70
     Davidson diagonalization with overlap
     ethr =  1.00E-06,  avg # of iterations =  3.0

     negative rho (up, down):  2.016E-05 0.000E+00

     total cpu time spent up to now is      159.7 secs

     total energy              =     -33.74336889 Ry
     Harris-Foulkes estimate   =     -33.74338377 Ry
     estimated scf accuracy    <       0.00001707 Ry

     iteration #  2     ecut=    60.00 Ry     beta=0.70
     Davidson diagonalization with overlap
     ethr =  2.13E-07,  avg # of iterations =  2.0

     negative rho (up, down):  7.796E-06 0.000E+00

     total cpu time spent up to now is      161.7 secs

     total energy              =     -33.74337198 Ry
     Harris-Foulkes estimate   =     -33.74337964 Ry
     estimated scf accuracy    <       0.00001403 Ry

     iteration #  3     ecut=    60.00 Ry     beta=0.70
     Davidson diagonalization with overlap
     ethr =  1.75E-07,  avg # of iterations =  2.0

     negative rho (up, down):  5.870E-08 0.000E+00

     total cpu time spent up to now is      163.6 secs

     total energy              =     -33.74337556 Ry
     Harris-Foulkes estimate   =     -33.74337504 Ry
     estimated scf accuracy    <       0.00000014 Ry

     iteration #  4     ecut=    60.00 Ry     beta=0.70
     Davidson diagonalization with overlap
     ethr =  1.74E-09,  avg # of iterations =  2.0

     total cpu time spent up to now is      165.1 secs

     End of self-consistent calculation

          k = 0.0000 0.0000 0.0000 ( 62669 PWs)   bands (ev):

   -25.3500 -12.7742  -9.2128  -7.0386

     highest occupied level (ev):    -7.0386

!    total energy              =     -33.74337579 Ry
     Harris-Foulkes estimate   =     -33.74337564 Ry
     estimated scf accuracy    <          9.2E-09 Ry

     convergence has been achieved in   4 iterations

     Forces acting on atoms (Ry/au):

     atom    1 type  2   force =    -0.00028678    0.00004053    0.02484519
     atom    2 type  1   force =     0.00004013    0.01137080   -0.01236970
     atom    3 type  1   force =     0.00024666   -0.01141133   -0.01247549

     Total force =     0.034432     Total SCF correction =     0.000660

     Entering Dynamics:    iteration =     9
                           time      =   0.0044 pico-seconds


     Andersen thermostat:    3 collisions

ATOMIC_POSITIONS (angstrom)
O       -0.000167359  -0.000198708   0.120538125
H       -0.005280864   0.773579007  -0.486448365
H        0.007932097  -0.770431164  -0.487861470


     kinetic energy (Ekin) =     0.00018282 Ry
     temperature           =     9.62158355 K 
     Ekin + Etot (const)   =   -33.74319298 Ry
     Message from routine dynamics:
     Total linear momentum <> 0

     Linear momentum :    0.0386907805   -0.0192623412   -0.0527483944

     Writing output data file pwscf.save

     second order wave-functions extrapolation
     Check: negative starting charge=   -0.071159
     second order charge density extrapolation
     Check: negative starting charge=   -0.071158

     negative rho (up, down):  5.920E-05 0.000E+00

     total cpu time spent up to now is      177.4 secs

     per-process dynamical memory:    32.0 Mb

     Self-consistent Calculation

     iteration #  1     ecut=    60.00 Ry     beta=0.70
     Davidson diagonalization with overlap
     ethr =  1.00E-06,  avg # of iterations =  2.0

     Threshold (ethr) on eigenvalues was too large:
     Diagonalizing with lowered threshold

     Davidson diagonalization with overlap
     ethr =  5.30E-09,  avg # of iterations =  3.0

     negative rho (up, down):  5.432E-06 0.000E+00

     total cpu time spent up to now is      179.9 secs

     total energy              =     -33.74343686 Ry
     Harris-Foulkes estimate   =     -33.74343846 Ry
     estimated scf accuracy    <       0.00000044 Ry

     iteration #  2     ecut=    60.00 Ry     beta=0.70
     Davidson diagonalization with overlap
     ethr =  5.55E-09,  avg # of iterations =  2.0

     negative rho (up, down):  4.193E-07 0.000E+00

     total cpu time spent up to now is      181.5 secs

     total energy              =     -33.74343670 Ry
     Harris-Foulkes estimate   =     -33.74343694 Ry
     estimated scf accuracy    <       0.00000006 Ry

     iteration #  3     ecut=    60.00 Ry     beta=0.70
     Davidson diagonalization with overlap
     ethr =  7.85E-10,  avg # of iterations =  2.0

     total cpu time spent up to now is      183.2 secs

     total energy              =     -33.74343664 Ry
     Harris-Foulkes estimate   =     -33.74343673 Ry
     estimated scf accuracy    <       0.00000003 Ry

     iteration #  4     ecut=    60.00 Ry     beta=0.70
     Davidson diagonalization with overlap
     ethr =  3.39E-10,  avg # of iterations =  2.0

     total cpu time spent up to now is      184.6 secs

     End of self-consistent calculation

          k = 0.0000 0.0000 0.0000 ( 62669 PWs)   bands (ev):

   -25.3357 -12.7665  -9.2073  -7.0360

     highest occupied level (ev):    -7.0360

!    total energy              =     -33.74343661 Ry
     Harris-Foulkes estimate   =     -33.74343665 Ry
     estimated scf accuracy    <          5.0E-10 Ry

     convergence has been achieved in   4 iterations

     Forces acting on atoms (Ry/au):

     atom    1 type  2   force =    -0.00027826    0.00242548    0.02344422
     atom    2 type  1   force =     0.00005232    0.00836007   -0.01072323
     atom    3 type  1   force =     0.00022593   -0.01078555   -0.01272099

     Total force =     0.031917     Total SCF correction =     0.000200

     Entering Dynamics:    iteration =    10
                           time      =   0.0048 pico-seconds


     Andersen thermostat:    3 collisions

ATOMIC_POSITIONS (angstrom)
O       -0.000245147  -0.000333927   0.120502015
H       -0.005309303   0.775753127  -0.486192160
H        0.009192827  -0.770463198  -0.487545647


     kinetic energy (Ekin) =     0.00014004 Ry
     temperature           =     7.36997742 K 
     Ekin + Etot (const)   =   -33.74329658 Ry
     Message from routine dynamics:
     Total linear momentum <> 0

     Linear momentum :    0.0391544945    0.0221982247   -0.0215321044

     Writing output data file pwscf.save

     second order wave-functions extrapolation
     Check: negative starting charge=   -0.071158
     second order charge density extrapolation
     Check: negative starting charge=   -0.071155

     negative rho (up, down):  9.060E-05 0.000E+00

     total cpu time spent up to now is      196.9 secs

     per-process dynamical memory:    32.0 Mb

     Self-consistent Calculation

     iteration #  1     ecut=    60.00 Ry     beta=0.70
     Davidson diagonalization with overlap
     ethr =  1.00E-06,  avg # of iterations =  2.0

     Threshold (ethr) on eigenvalues was too large:
     Diagonalizing with lowered threshold

     Davidson diagonalization with overlap
     ethr =  6.62E-09,  avg # of iterations =  3.0

     negative rho (up, down):  9.628E-06 0.000E+00

     total cpu time spent up to now is      199.4 secs

     total energy              =     -33.74345367 Ry
     Harris-Foulkes estimate   =     -33.74345535 Ry
     estimated scf accuracy    <       0.00000058 Ry

     iteration #  2     ecut=    60.00 Ry     beta=0.70
     Davidson diagonalization with overlap
     ethr =  7.21E-09,  avg # of iterations =  2.0

     negative rho (up, down):  3.621E-07 0.000E+00

     total cpu time spent up to now is      201.1 secs

     total energy              =     -33.74345346 Ry
     Harris-Foulkes estimate   =     -33.74345376 Ry
     estimated scf accuracy    <       0.00000006 Ry

     iteration #  3     ecut=    60.00 Ry     beta=0.70
     Davidson diagonalization with overlap
     ethr =  6.91E-10,  avg # of iterations =  2.0

     total cpu time spent up to now is      202.7 secs

     total energy              =     -33.74345340 Ry
     Harris-Foulkes estimate   =     -33.74345348 Ry
     estimated scf accuracy    <       0.00000002 Ry

     iteration #  4     ecut=    60.00 Ry     beta=0.70
     Davidson diagonalization with overlap
     ethr =  2.12E-10,  avg # of iterations =  2.0

     total cpu time spent up to now is      204.1 secs

     End of self-consistent calculation

          k = 0.0000 0.0000 0.0000 ( 62669 PWs)   bands (ev):

   -25.3264 -12.7654  -9.2004  -7.0339

     highest occupied level (ev):    -7.0339

!    total energy              =     -33.74345346 Ry
     Harris-Foulkes estimate   =     -33.74345340 Ry
     estimated scf accuracy    <          2.0E-09 Ry

     convergence has been achieved in   4 iterations

     Forces acting on atoms (Ry/au):

     atom    1 type  2   force =    -0.00014101    0.00504652    0.02269317
     atom    2 type  1   force =    -0.00001709    0.00588203   -0.00935339
     atom    3 type  1   force =     0.00015810   -0.01092855   -0.01333977

     Total force =     0.030983     Total SCF correction =     0.000361

     Entering Dynamics:    iteration =    11
                           time      =   0.0053 pico-seconds


     Andersen thermostat:    3 collisions

ATOMIC_POSITIONS (angstrom)
O       -0.000298973  -0.000322537   0.120500484
H       -0.004397446   0.777433789  -0.485466561
H        0.009133654  -0.772324284  -0.488246992


     kinetic energy (Ekin) =     0.00016054 Ry
     temperature           =     8.44903656 K 
     Ekin + Etot (const)   =   -33.74329292 Ry
     Message from routine dynamics:
     Total linear momentum <> 0

     Linear momentum :   -0.0450541762    0.0203881231   -0.0415067389

     Writing output data file pwscf.save

     second order wave-functions extrapolation
     Check: negative starting charge=   -0.071155
     second order charge density extrapolation
     Check: negative starting charge=   -0.071153

     negative rho (up, down):  4.380E-05 0.000E+00

     total cpu time spent up to now is      216.4 secs

     per-process dynamical memory:    32.0 Mb

     Self-consistent Calculation

     iteration #  1     ecut=    60.00 Ry     beta=0.70
     Davidson diagonalization with overlap
     ethr =  1.00E-06,  avg # of iterations =  2.0

     Threshold (ethr) on eigenvalues was too large:
     Diagonalizing with lowered threshold

     Davidson diagonalization with overlap
     ethr =  1.77E-08,  avg # of iterations =  3.0

     negative rho (up, down):  3.678E-06 0.000E+00

     total cpu time spent up to now is      218.8 secs

     total energy              =     -33.74350728 Ry
     Harris-Foulkes estimate   =     -33.74350861 Ry
     estimated scf accuracy    <       0.00000185 Ry

     iteration #  2     ecut=    60.00 Ry     beta=0.70
     Davidson diagonalization with overlap
     ethr =  2.31E-08,  avg # of iterations =  2.0

     negative rho (up, down):  9.300E-07 0.000E+00

     total cpu time spent up to now is      220.4 secs

     total energy              =     -33.74350731 Ry
     Harris-Foulkes estimate   =     -33.74350802 Ry
     estimated scf accuracy    <       0.00000091 Ry

     iteration #  3     ecut=    60.00 Ry     beta=0.70
     Davidson diagonalization with overlap
     ethr =  1.14E-08,  avg # of iterations =  2.0

     total cpu time spent up to now is      222.0 secs

     total energy              =     -33.74350762 Ry
     Harris-Foulkes estimate   =     -33.74350757 Ry
     estimated scf accuracy    <       0.00000007 Ry

     iteration #  4     ecut=    60.00 Ry     beta=0.70
     Davidson diagonalization with overlap
     ethr =  8.40E-10,  avg # of iterations =  2.0

     total cpu time spent up to now is      223.3 secs

     End of self-consistent calculation

          k = 0.0000 0.0000 0.0000 ( 62669 PWs)   bands (ev):

   -25.3098 -12.7593  -9.1921  -7.0310

     highest occupied level (ev):    -7.0310

!    total energy              =     -33.74350758 Ry
     Harris-Foulkes estimate   =     -33.74350764 Ry
     estimated scf accuracy    <          9.3E-10 Ry

     convergence has been achieved in   4 iterations

     Forces acting on atoms (Ry/au):

     atom    1 type  2   force =    -0.00016594    0.00327508    0.02045454
     atom    2 type  1   force =     0.00001791    0.00456712   -0.00879166
     atom    3 type  1   force =     0.00014803   -0.00784220   -0.01166288

     Total force =     0.026923     Total SCF correction =     0.000367

     Entering Dynamics:    iteration =    12
                           time      =   0.0058 pico-seconds


     Andersen thermostat:    3 collisions

ATOMIC_POSITIONS (angstrom)
O       -0.000323608  -0.000195984   0.120738760
H       -0.004126036   0.776447728  -0.487612193
H        0.009252493  -0.773343026  -0.489876027


     kinetic energy (Ekin) =     0.00015188 Ry
     temperature           =     7.99330076 K 
     Ekin + Etot (const)   =   -33.74335570 Ry
     Message from routine dynamics:
     Total linear momentum <> 0

     Linear momentum :   -0.0306928970   -0.0139916622   -0.0199492383

     Writing output data file pwscf.save

     second order wave-functions extrapolation
     Check: negative starting charge=   -0.071153
     second order charge density extrapolation
     Check: negative starting charge=   -0.071156

     negative rho (up, down):  1.243E-04 0.000E+00

     total cpu time spent up to now is      235.2 secs

     per-process dynamical memory:    32.0 Mb

     Self-consistent Calculation

     iteration #  1     ecut=    60.00 Ry     beta=0.70
     Davidson diagonalization with overlap
     ethr =  1.00E-06,  avg # of iterations =  2.0

     Threshold (ethr) on eigenvalues was too large:
     Diagonalizing with lowered threshold

     Davidson diagonalization with overlap
     ethr =  4.14E-08,  avg # of iterations =  2.0

     negative rho (up, down):  1.524E-05 0.000E+00

     total cpu time spent up to now is      237.6 secs

     total energy              =     -33.74357753 Ry
     Harris-Foulkes estimate   =     -33.74358369 Ry
     estimated scf accuracy    <       0.00000446 Ry

     iteration #  2     ecut=    60.00 Ry     beta=0.70
     Davidson diagonalization with overlap
     ethr =  5.58E-08,  avg # of iterations =  3.0

     negative rho (up, down):  5.876E-06 0.000E+00

     total cpu time spent up to now is      239.3 secs

     total energy              =     -33.74357812 Ry
     Harris-Foulkes estimate   =     -33.74358046 Ry
     estimated scf accuracy    <       0.00000401 Ry

     iteration #  3     ecut=    60.00 Ry     beta=0.70
     Davidson diagonalization with overlap
     ethr =  5.01E-08,  avg # of iterations =  2.0

     total cpu time spent up to now is      241.0 secs

     total energy              =     -33.74357939 Ry
     Harris-Foulkes estimate   =     -33.74357899 Ry
     estimated scf accuracy    <       0.00000005 Ry

     iteration #  4     ecut=    60.00 Ry     beta=0.70
     Davidson diagonalization with overlap
     ethr =  5.72E-10,  avg # of iterations =  2.0

     total cpu time spent up to now is      242.7 secs

     End of self-consistent calculation

          k = 0.0000 0.0000 0.0000 ( 62669 PWs)   bands (ev):

   -25.2988 -12.7381  -9.2000  -7.0294

     highest occupied level (ev):    -7.0294

!    total energy              =     -33.74357942 Ry
     Harris-Foulkes estimate   =     -33.74357941 Ry
     estimated scf accuracy    <          1.3E-09 Ry

     convergence has been achieved in   4 iterations

     Forces acting on atoms (Ry/au):

     atom    1 type  2   force =    -0.00016986    0.00154839    0.01705674
     atom    2 type  1   force =     0.00003817    0.00416496   -0.00785267
     atom    3 type  1   force =     0.00013168   -0.00571335   -0.00920407

     Total force =     0.022130     Total SCF correction =     0.000443

     Entering Dynamics:    iteration =    13
                           time      =   0.0063 pico-seconds


     Andersen thermostat:    3 collisions

ATOMIC_POSITIONS (angstrom)
O       -0.000370306  -0.000188923   0.120806802
H       -0.004894387   0.777917346  -0.488914246
H        0.010760629  -0.774924507  -0.489651858


     kinetic energy (Ekin) =     0.00016932 Ry
     temperature           =     8.91095652 K 
     Ekin + Etot (const)   =   -33.74341010 Ry
     Message from routine dynamics:
     Total linear momentum <> 0

     Linear momentum :   -0.0086992849    0.0372279384    0.0381566743

     Writing output data file pwscf.save

     second order wave-functions extrapolation
     Check: negative starting charge=   -0.071156
     second order charge density extrapolation
     Check: negative starting charge=   -0.071154

     negative rho (up, down):  2.339E-05 0.000E+00

     total cpu time spent up to now is      253.9 secs

     per-process dynamical memory:    32.0 Mb

     Self-consistent Calculation

     iteration #  1     ecut=    60.00 Ry     beta=0.70
     Davidson diagonalization with overlap
     ethr =  1.00E-06,  avg # of iterations =  2.0

     Threshold (ethr) on eigenvalues was too large:
     Diagonalizing with lowered threshold

     Davidson diagonalization with overlap
     ethr =  1.38E-08,  avg # of iterations =  3.0

     negative rho (up, down):  1.624E-06 0.000E+00

     total cpu time spent up to now is      256.1 secs

     total energy              =     -33.74361565 Ry
     Harris-Foulkes estimate   =     -33.74361648 Ry
     estimated scf accuracy    <       0.00000145 Ry

     iteration #  2     ecut=    60.00 Ry     beta=0.70
     Davidson diagonalization with overlap
     ethr =  1.81E-08,  avg # of iterations =  2.0

     negative rho (up, down):  3.934E-07 0.000E+00

     total cpu time spent up to now is      257.7 secs

     total energy              =     -33.74361564 Ry
     Harris-Foulkes estimate   =     -33.74361622 Ry
     estimated scf accuracy    <       0.00000076 Ry

     iteration #  3     ecut=    60.00 Ry     beta=0.70
     Davidson diagonalization with overlap
     ethr =  9.53E-09,  avg # of iterations =  2.0

     total cpu time spent up to now is      259.2 secs

     total energy              =     -33.74361578 Ry
     Harris-Foulkes estimate   =     -33.74361585 Ry
     estimated scf accuracy    <       0.00000006 Ry

     iteration #  4     ecut=    60.00 Ry     beta=0.70
     Davidson diagonalization with overlap
     ethr =  7.28E-10,  avg # of iterations =  2.0

     total cpu time spent up to now is      260.4 secs

     End of self-consistent calculation

          k = 0.0000 0.0000 0.0000 ( 62669 PWs)   bands (ev):

   -25.2810 -12.7264  -9.1947  -7.0262

     highest occupied level (ev):    -7.0262

!    total energy              =     -33.74361576 Ry
     Harris-Foulkes estimate   =     -33.74361580 Ry
     estimated scf accuracy    <          7.6E-10 Ry

     convergence has been achieved in   4 iterations

     Forces acting on atoms (Ry/au):

     atom    1 type  2   force =    -0.00025796    0.00271036    0.01469764
     atom    2 type  1   force =     0.00009694    0.00136842   -0.00626866
     atom    3 type  1   force =     0.00016102   -0.00407879   -0.00842898

     Total force =     0.018770     Total SCF correction =     0.000123

     Entering Dynamics:    iteration =    14
                           time      =   0.0068 pico-seconds


     Andersen thermostat:    3 collisions

ATOMIC_POSITIONS (angstrom)
O       -0.000399797  -0.000155832   0.120859350
H       -0.004637347   0.778494534  -0.489797672
H        0.010970769  -0.776025906  -0.489600878


     kinetic energy (Ekin) =     0.00003784 Ry
     temperature           =     1.99135998 K 
     Ekin + Etot (const)   =   -33.74357793 Ry
     Message from routine dynamics:
     Total linear momentum <> 0

     Linear momentum :   -0.0164445641    0.0110117945   -0.0063616847

     Writing output data file pwscf.save

     second order wave-functions extrapolation
     Check: negative starting charge=   -0.071154
     second order charge density extrapolation
     Check: negative starting charge=   -0.071153

     negative rho (up, down):  2.061E-06 0.000E+00

     total cpu time spent up to now is      271.4 secs

     per-process dynamical memory:    32.0 Mb

     Self-consistent Calculation

     iteration #  1     ecut=    60.00 Ry     beta=0.70
     Davidson diagonalization with overlap
     ethr =  1.00E-06,  avg # of iterations =  2.0

     Threshold (ethr) on eigenvalues was too large:
     Diagonalizing with lowered threshold

     Davidson diagonalization with overlap
     ethr =  4.61E-10,  avg # of iterations =  3.0

     negative rho (up, down):  8.973E-08 0.000E+00

     total cpu time spent up to now is      273.7 secs

     total energy              =     -33.74363279 Ry
     Harris-Foulkes estimate   =     -33.74363306 Ry
     estimated scf accuracy    <       0.00000007 Ry

     iteration #  2     ecut=    60.00 Ry     beta=0.70
     Davidson diagonalization with overlap
     ethr =  8.13E-10,  avg # of iterations =  2.0

     negative rho (up, down):  1.267E-08 0.000E+00

     total cpu time spent up to now is      275.2 secs

     total energy              =     -33.74363267 Ry
     Harris-Foulkes estimate   =     -33.74363281 Ry
     estimated scf accuracy    <       0.00000002 Ry

     iteration #  3     ecut=    60.00 Ry     beta=0.70
     Davidson diagonalization with overlap
     ethr =  2.63E-10,  avg # of iterations =  2.0

     total cpu time spent up to now is      276.5 secs

     End of self-consistent calculation

          k = 0.0000 0.0000 0.0000 ( 62669 PWs)   bands (ev):

   -25.2703 -12.7183  -9.1921  -7.0240

     highest occupied level (ev):    -7.0240

!    total energy              =     -33.74363262 Ry
     Harris-Foulkes estimate   =     -33.74363268 Ry
     estimated scf accuracy    <          4.3E-09 Ry

     convergence has been achieved in   3 iterations

     Forces acting on atoms (Ry/au):

     atom    1 type  2   force =    -0.00019791    0.00266727    0.01325238
     atom    2 type  1   force =     0.00006668    0.00012016   -0.00550146
     atom    3 type  1   force =     0.00013122   -0.00278742   -0.00775092

     Total force =     0.016761     Total SCF correction =     0.000296

     Entering Dynamics:    iteration =    15
                           time      =   0.0073 pico-seconds


     Andersen thermostat:    3 collisions

ATOMIC_POSITIONS (angstrom)
O       -0.000264489  -0.000277054   0.120768870
H       -0.005262980   0.778933679  -0.489342073
H        0.009452904  -0.774544706  -0.488623141


     kinetic energy (Ekin) =     0.00014251 Ry
     temperature           =     7.49996231 K 
     Ekin + Etot (const)   =   -33.74349012 Ry
     Message from routine dynamics:
     Total linear momentum <> 0

     Linear momentum :    0.0279705447    0.0157675835   -0.0007276610

     Writing output data file pwscf.save

     second order wave-functions extrapolation
     Check: negative starting charge=   -0.071153
     second order charge density extrapolation
     Check: negative starting charge=   -0.071153

     negative rho (up, down):  6.788E-05 0.000E+00

     total cpu time spent up to now is      287.8 secs

     per-process dynamical memory:    32.0 Mb

     Self-consistent Calculation

     iteration #  1     ecut=    60.00 Ry     beta=0.70
     Davidson diagonalization with overlap
     ethr =  1.00E-06,  avg # of iterations =  2.0

     Threshold (ethr) on eigenvalues was too large:
     Diagonalizing with lowered threshold

     Davidson diagonalization with overlap
     ethr =  8.24E-09,  avg # of iterations =  3.0

     negative rho (up, down):  6.536E-06 0.000E+00

     total cpu time spent up to now is      290.1 secs

     total energy              =     -33.74360024 Ry
     Harris-Foulkes estimate   =     -33.74360188 Ry
     estimated scf accuracy    <       0.00000072 Ry

     iteration #  2     ecut=    60.00 Ry     beta=0.70
     Davidson diagonalization with overlap
     ethr =  8.96E-09,  avg # of iterations =  2.0

     negative rho (up, down):  3.354E-07 0.000E+00

     total cpu time spent up to now is      291.7 secs

     total energy              =     -33.74360026 Ry
     Harris-Foulkes estimate   =     -33.74360035 Ry
     estimated scf accuracy    <       0.00000007 Ry

     iteration #  3     ecut=    60.00 Ry     beta=0.70
     Davidson diagonalization with overlap
     ethr =  9.25E-10,  avg # of iterations =  2.0

     total cpu time spent up to now is      293.2 secs

     total energy              =     -33.74360024 Ry
     Harris-Foulkes estimate   =     -33.74360029 Ry
     estimated scf accuracy    <       0.00000003 Ry

     iteration #  4     ecut=    60.00 Ry     beta=0.70
     Davidson diagonalization with overlap
     ethr =  3.42E-10,  avg # of iterations =  2.0

     total cpu time spent up to now is      294.5 secs

     End of self-consistent calculation

          k = 0.0000 0.0000 0.0000 ( 62669 PWs)   bands (ev):

   -25.2796 -12.7284  -9.1917  -7.0256

     highest occupied level (ev):    -7.0256

!    total energy              =     -33.74360029 Ry
     Harris-Foulkes estimate   =     -33.74360025 Ry
     estimated scf accuracy    <          1.9E-09 Ry

     convergence has been achieved in   4 iterations

     Forces acting on atoms (Ry/au):

     atom    1 type  2   force =    -0.00038915    0.00554545    0.01497803
     atom    2 type  1   force =     0.00015820   -0.00020721   -0.00533049
     atom    3 type  1   force =     0.00023094   -0.00533824   -0.00964754

     Total force =     0.020133     Total SCF correction =     0.000380

     Entering Dynamics:    iteration =    16
                           time      =   0.0077 pico-seconds


     Andersen thermostat:    3 collisions

ATOMIC_POSITIONS (angstrom)
O       -0.000217152  -0.000298307   0.120832431
H       -0.005777813   0.780667590  -0.489090312
H        0.009217848  -0.775941933  -0.489881800


     kinetic energy (Ekin) =     0.00012662 Ry
     temperature           =     6.66368511 K 
     Ekin + Etot (const)   =   -33.74347367 Ry
     Message from routine dynamics:
     Total linear momentum <> 0

     Linear momentum :   -0.0062109132   -0.0374888041    0.0267700994

     Writing output data file pwscf.save

     second order wave-functions extrapolation
     Check: negative starting charge=   -0.071153
     second order charge density extrapolation
     Check: negative starting charge=   -0.071151

     negative rho (up, down):  3.505E-05 0.000E+00

     total cpu time spent up to now is      305.7 secs

     per-process dynamical memory:    32.0 Mb

     Self-consistent Calculation

     iteration #  1     ecut=    60.00 Ry     beta=0.70
     Davidson diagonalization with overlap
     ethr =  1.00E-06,  avg # of iterations =  2.0

     Threshold (ethr) on eigenvalues was too large:
     Diagonalizing with lowered threshold

     Davidson diagonalization with overlap
     ethr =  1.05E-08,  avg # of iterations =  3.0

     negative rho (up, down):  2.724E-06 0.000E+00

     total cpu time spent up to now is      307.9 secs

     total energy              =     -33.74362509 Ry
     Harris-Foulkes estimate   =     -33.74362592 Ry
     estimated scf accuracy    <       0.00000126 Ry

     iteration #  2     ecut=    60.00 Ry     beta=0.70
     Davidson diagonalization with overlap
     ethr =  1.58E-08,  avg # of iterations =  2.0

     negative rho (up, down):  7.699E-07 0.000E+00

     total cpu time spent up to now is      309.3 secs

     total energy              =     -33.74362509 Ry
     Harris-Foulkes estimate   =     -33.74362569 Ry
     estimated scf accuracy    <       0.00000080 Ry

     iteration #  3     ecut=    60.00 Ry     beta=0.70
     Davidson diagonalization with overlap
     ethr =  9.98E-09,  avg # of iterations =  2.0

     total cpu time spent up to now is      311.0 secs

     total energy              =     -33.74362523 Ry
     Harris-Foulkes estimate   =     -33.74362530 Ry
     estimated scf accuracy    <       0.00000003 Ry

     iteration #  4     ecut=    60.00 Ry     beta=0.70
     Davidson diagonalization with overlap
     ethr =  4.31E-10,  avg # of iterations =  2.0

     total cpu time spent up to now is      312.2 secs

     End of self-consistent calculation

          k = 0.0000 0.0000 0.0000 ( 62669 PWs)   bands (ev):

   -25.2621 -12.7173  -9.1865  -7.0226

     highest occupied level (ev):    -7.0226

!    total energy              =     -33.74362525 Ry
     Harris-Foulkes estimate   =     -33.74362524 Ry
     estimated scf accuracy    <          6.5E-10 Ry

     convergence has been achieved in   4 iterations

     Forces acting on atoms (Ry/au):

     atom    1 type  2   force =    -0.00026990    0.00457216    0.01224389
     atom    2 type  1   force =     0.00012401   -0.00194585   -0.00430875
     atom    3 type  1   force =     0.00014589   -0.00262631   -0.00793514

     Total force =     0.016222     Total SCF correction =     0.000152

     Entering Dynamics:    iteration =    17
                           time      =   0.0082 pico-seconds


     Andersen thermostat:    3 collisions

ATOMIC_POSITIONS (angstrom)
O       -0.000099015  -0.000383733   0.120798139
H       -0.004875959   0.780221048  -0.488875837
H        0.006444511  -0.774142112  -0.489553043


     kinetic energy (Ekin) =     0.00022021 Ry
     temperature           =    11.58942829 K 
     Ekin + Etot (const)   =   -33.74340505 Ry
     Message from routine dynamics:
     Total linear momentum <> 0

     Linear momentum :    0.0185509258    0.0094704493    0.0080286138

     Writing output data file pwscf.save

     second order wave-functions extrapolation
     Check: negative starting charge=   -0.071151
     second order charge density extrapolation
     Check: negative starting charge=   -0.071152

     negative rho (up, down):  2.960E-05 0.000E+00

     total cpu time spent up to now is      323.2 secs

     per-process dynamical memory:    32.0 Mb

     Self-consistent Calculation

     iteration #  1     ecut=    60.00 Ry     beta=0.70
     Davidson diagonalization with overlap
     ethr =  1.00E-06,  avg # of iterations =  2.0

     Threshold (ethr) on eigenvalues was too large:
     Diagonalizing with lowered threshold

     Davidson diagonalization with overlap
     ethr =  5.40E-09,  avg # of iterations =  2.0

     negative rho (up, down):  2.197E-06 0.000E+00

     total cpu time spent up to now is      325.4 secs

     total energy              =     -33.74360490 Ry
     Harris-Foulkes estimate   =     -33.74360496 Ry
     estimated scf accuracy    <       0.00000048 Ry

     iteration #  2     ecut=    60.00 Ry     beta=0.70
     Davidson diagonalization with overlap
     ethr =  5.99E-09,  avg # of iterations =  2.0

     negative rho (up, down):  3.541E-07 0.000E+00

     total cpu time spent up to now is      327.0 secs

     total energy              =     -33.74360507 Ry
     Harris-Foulkes estimate   =     -33.74360502 Ry
     estimated scf accuracy    <       0.00000016 Ry

     iteration #  3     ecut=    60.00 Ry     beta=0.70
     Davidson diagonalization with overlap
     ethr =  2.00E-09,  avg # of iterations =  2.0

     total cpu time spent up to now is      328.6 secs

     total energy              =     -33.74360538 Ry
     Harris-Foulkes estimate   =     -33.74360512 Ry
     estimated scf accuracy    <       0.00000004 Ry

     iteration #  4     ecut=    60.00 Ry     beta=0.70
     Davidson diagonalization with overlap
     ethr =  4.93E-10,  avg # of iterations =  2.0

     total cpu time spent up to now is      329.8 secs

     End of self-consistent calculation

          k = 0.0000 0.0000 0.0000 ( 62669 PWs)   bands (ev):

   -25.2745 -12.7244  -9.1909  -7.0249

     highest occupied level (ev):    -7.0249

!    total energy              =     -33.74360543 Ry
     Harris-Foulkes estimate   =     -33.74360538 Ry
     estimated scf accuracy    <          2.7E-10 Ry

     convergence has been achieved in   4 iterations

     Forces acting on atoms (Ry/au):

     atom    1 type  2   force =    -0.00010851    0.00613832    0.01400719
     atom    2 type  1   force =     0.00003496   -0.00117536   -0.00452518
     atom    3 type  1   force =     0.00007355   -0.00496296   -0.00948201

     Total force =     0.019243     Total SCF correction =     0.000046

     Entering Dynamics:    iteration =    18
                           time      =   0.0087 pico-seconds


     Andersen thermostat:    3 collisions

ATOMIC_POSITIONS (angstrom)
O       -0.000101690  -0.000136570   0.120893329
H       -0.004130310   0.777364687  -0.489904515
H        0.005741244  -0.775201204  -0.490032319


     kinetic energy (Ekin) =     0.00021314 Ry
     temperature           =    11.21728499 K 
     Ekin + Etot (const)   =   -33.74339229 Ry
     Message from routine dynamics:
     Total linear momentum <> 0

     Linear momentum :   -0.0138755208   -0.0205310505    0.0337389611

     Writing output data file pwscf.save

     second order wave-functions extrapolation
     Check: negative starting charge=   -0.071152
     second order charge density extrapolation
     Check: negative starting charge=   -0.071156

     negative rho (up, down):  1.600E-04 0.000E+00

     total cpu time spent up to now is      340.8 secs

     per-process dynamical memory:    32.0 Mb

     Self-consistent Calculation

     iteration #  1     ecut=    60.00 Ry     beta=0.70
     Davidson diagonalization with overlap
     ethr =  1.00E-06,  avg # of iterations =  3.0

     Threshold (ethr) on eigenvalues was too large:
     Diagonalizing with lowered threshold

     Davidson diagonalization with overlap
     ethr =  2.88E-08,  avg # of iterations =  1.0

     negative rho (up, down):  2.123E-05 0.000E+00

     total cpu time spent up to now is      342.9 secs

     total energy              =     -33.74363180 Ry
     Harris-Foulkes estimate   =     -33.74363582 Ry
     estimated scf accuracy    <       0.00000234 Ry

     iteration #  2     ecut=    60.00 Ry     beta=0.70
     Davidson diagonalization with overlap
     ethr =  2.93E-08,  avg # of iterations =  2.0

     negative rho (up, down):  5.755E-06 0.000E+00

     total cpu time spent up to now is      344.5 secs

     total energy              =     -33.74363173 Ry
     Harris-Foulkes estimate   =     -33.74363266 Ry
     estimated scf accuracy    <       0.00000094 Ry

     iteration #  3     ecut=    60.00 Ry     beta=0.70
     Davidson diagonalization with overlap
     ethr =  1.17E-08,  avg # of iterations =  2.0

     negative rho (up, down):  6.169E-08 0.000E+00

     total cpu time spent up to now is      346.0 secs

     total energy              =     -33.74363244 Ry
     Harris-Foulkes estimate   =     -33.74363201 Ry
     estimated scf accuracy    <       0.00000011 Ry

     iteration #  4     ecut=    60.00 Ry     beta=0.70
     Davidson diagonalization with overlap
     ethr =  1.39E-09,  avg # of iterations =  2.0

     total cpu time spent up to now is      347.1 secs

     End of self-consistent calculation

          k = 0.0000 0.0000 0.0000 ( 62669 PWs)   bands (ev):

   -25.2789 -12.7195  -9.1985  -7.0260

     highest occupied level (ev):    -7.0260

!    total energy              =     -33.74363249 Ry
     Harris-Foulkes estimate   =     -33.74363248 Ry
     estimated scf accuracy    <          1.9E-09 Ry

     convergence has been achieved in   4 iterations

     Forces acting on atoms (Ry/au):

     atom    1 type  2   force =    -0.00012160    0.00177244    0.01354694
     atom    2 type  1   force =     0.00004155    0.00159561   -0.00585763
     atom    3 type  1   force =     0.00008005   -0.00336806   -0.00768931

     Total force =     0.017147     Total SCF correction =     0.000896

     Entering Dynamics:    iteration =    19
                           time      =   0.0092 pico-seconds


     Andersen thermostat:    3 collisions

ATOMIC_POSITIONS (angstrom)
O       -0.000056348   0.000039958   0.120819116
H       -0.005281741   0.777375142  -0.489519627
H        0.006174386  -0.778008137  -0.489241550


     kinetic energy (Ekin) =     0.00019492 Ry
     temperature           =    10.25852293 K 
     Ekin + Etot (const)   =   -33.74343757 Ry
     Message from routine dynamics:
     Total linear momentum <> 0

     Linear momentum :   -0.0349937045   -0.0113850531    0.0017277109

     Writing output data file pwscf.save

     second order wave-functions extrapolation
     Check: negative starting charge=   -0.071156
     second order charge density extrapolation
     Check: negative starting charge=   -0.071152

     negative rho (up, down):  9.155E-05 0.000E+00

     total cpu time spent up to now is      358.3 secs

     per-process dynamical memory:    32.0 Mb

     Self-consistent Calculation

     iteration #  1     ecut=    60.00 Ry     beta=0.70
     Davidson diagonalization with overlap
     ethr =  1.00E-06,  avg # of iterations =  2.0

     Threshold (ethr) on eigenvalues was too large:
     Diagonalizing with lowered threshold

     Davidson diagonalization with overlap
     ethr =  5.56E-09,  avg # of iterations =  3.0

     negative rho (up, down):  9.735E-06 0.000E+00

     total cpu time spent up to now is      360.8 secs

     total energy              =     -33.74363127 Ry
     Harris-Foulkes estimate   =     -33.74363343 Ry
     estimated scf accuracy    <       0.00000047 Ry

     iteration #  2     ecut=    60.00 Ry     beta=0.70
     Davidson diagonalization with overlap
     ethr =  5.91E-09,  avg # of iterations =  2.0

     negative rho (up, down):  1.287E-07 0.000E+00

     total cpu time spent up to now is      362.2 secs

     total energy              =     -33.74363093 Ry
     Harris-Foulkes estimate   =     -33.74363134 Ry
     estimated scf accuracy    <       0.00000004 Ry

     iteration #  3     ecut=    60.00 Ry     beta=0.70
     Davidson diagonalization with overlap
     ethr =  4.63E-10,  avg # of iterations =  2.0

     total cpu time spent up to now is      363.5 secs

     End of self-consistent calculation

          k = 0.0000 0.0000 0.0000 ( 62669 PWs)   bands (ev):

   -25.2688 -12.7209  -9.1893  -7.0241

     highest occupied level (ev):    -7.0241

!    total energy              =     -33.74363081 Ry
     Harris-Foulkes estimate   =     -33.74363094 Ry
     estimated scf accuracy    <          4.2E-09 Ry

     convergence has been achieved in   3 iterations

     Forces acting on atoms (Ry/au):

     atom    1 type  2   force =    -0.00038334   -0.00080194    0.01355864
     atom    2 type  1   force =     0.00018188    0.00154182   -0.00697333
     atom    3 type  1   force =     0.00020146   -0.00073988   -0.00658531

     Total force =     0.016722     Total SCF correction =     0.000954

     Entering Dynamics:    iteration =    20
                           time      =   0.0097 pico-seconds


     Andersen thermostat:    3 collisions

ATOMIC_POSITIONS (angstrom)
O       -0.000247507   0.000134285   0.120962999
H       -0.005972988   0.776564160  -0.489942389
H        0.009893890  -0.778691451  -0.491098122


     kinetic energy (Ekin) =     0.00033075 Ry
     temperature           =    17.40723087 K 
     Ekin + Etot (const)   =   -33.74330006 Ry
     Message from routine dynamics:
     Total linear momentum <> 0

     Linear momentum :   -0.0300811898   -0.0165387386   -0.0061804444

     Writing output data file pwscf.save

     second order wave-functions extrapolation
     Check: negative starting charge=   -0.071152
     second order charge density extrapolation
     Check: negative starting charge=   -0.071154

     negative rho (up, down):  1.604E-04 0.000E+00

     total cpu time spent up to now is      374.9 secs

     per-process dynamical memory:    32.0 Mb

     Self-consistent Calculation

     iteration #  1     ecut=    60.00 Ry     beta=0.70
     Davidson diagonalization with overlap
     ethr =  1.00E-06,  avg # of iterations =  2.0

     Threshold (ethr) on eigenvalues was too large:
     Diagonalizing with lowered threshold

     Davidson diagonalization with overlap
     ethr =  2.53E-08,  avg # of iterations =  3.0

     negative rho (up, down):  2.142E-05 0.000E+00

     total cpu time spent up to now is      377.3 secs

     total energy              =     -33.74364959 Ry
     Harris-Foulkes estimate   =     -33.74365283 Ry
     estimated scf accuracy    <       0.00000251 Ry

     iteration #  2     ecut=    60.00 Ry     beta=0.70
     Davidson diagonalization with overlap
     ethr =  3.13E-08,  avg # of iterations =  2.0

     negative rho (up, down):  7.155E-06 0.000E+00

     total cpu time spent up to now is      378.9 secs

     total energy              =     -33.74364957 Ry
     Harris-Foulkes estimate   =     -33.74365067 Ry
     estimated scf accuracy    <       0.00000150 Ry

     iteration #  3     ecut=    60.00 Ry     beta=0.70
     Davidson diagonalization with overlap
     ethr =  1.88E-08,  avg # of iterations =  2.0

     total cpu time spent up to now is      380.4 secs

     total energy              =     -33.74365010 Ry
     Harris-Foulkes estimate   =     -33.74364998 Ry
     estimated scf accuracy    <       0.00000010 Ry

     iteration #  4     ecut=    60.00 Ry     beta=0.70
     Davidson diagonalization with overlap
     ethr =  1.27E-09,  avg # of iterations =  2.0

     total cpu time spent up to now is      381.7 secs

     End of self-consistent calculation

          k = 0.0000 0.0000 0.0000 ( 62669 PWs)   bands (ev):

   -25.2626 -12.7082  -9.1940  -7.0230

     highest occupied level (ev):    -7.0230

!    total energy              =     -33.74365017 Ry
     Harris-Foulkes estimate   =     -33.74365013 Ry
     estimated scf accuracy    <          1.9E-09 Ry

     convergence has been achieved in   4 iterations

     Forces acting on atoms (Ry/au):

     atom    1 type  2   force =    -0.00000911   -0.00327923    0.01126516
     atom    2 type  1   force =     0.00000460    0.00213203   -0.00693657
     atom    3 type  1   force =     0.00000452    0.00114720   -0.00432859

     Total force =     0.014504     Total SCF correction =     0.000180

     Entering Dynamics:    iteration =    21
                           time      =   0.0102 pico-seconds


     Andersen thermostat:    3 collisions

ATOMIC_POSITIONS (angstrom)
O       -0.000397895   0.000265331   0.121269293
H       -0.005936782   0.775843453  -0.489919018
H        0.012240067  -0.780046722  -0.495973691


     kinetic energy (Ekin) =     0.00053981 Ry
     temperature           =    28.40955558 K 
     Ekin + Etot (const)   =   -33.74311036 Ry
     Message from routine dynamics:
     Total linear momentum <> 0

     Linear momentum :    0.0102318477   -0.0092599341    0.0105899456

     Writing output data file pwscf.save

     second order wave-functions extrapolation
     Check: negative starting charge=   -0.071154
     second order charge density extrapolation
     Check: negative starting charge=   -0.071156

     negative rho (up, down):  9.041E-05 0.000E+00

     total cpu time spent up to now is      392.8 secs

     per-process dynamical memory:    32.0 Mb

     Self-consistent Calculation

     iteration #  1     ecut=    60.00 Ry     beta=0.70
     Davidson diagonalization with overlap
     ethr =  1.00E-06,  avg # of iterations =  3.0

     Threshold (ethr) on eigenvalues was too large:
     Diagonalizing with lowered threshold

     Davidson diagonalization with overlap
     ethr =  5.06E-08,  avg # of iterations =  1.0

     negative rho (up, down):  9.873E-06 0.000E+00

     total cpu time spent up to now is      395.0 secs

     total energy              =     -33.74364843 Ry
     Harris-Foulkes estimate   =     -33.74365177 Ry
     estimated scf accuracy    <       0.00000396 Ry

     iteration #  2     ecut=    60.00 Ry     beta=0.70
     Davidson diagonalization with overlap
     ethr =  4.95E-08,  avg # of iterations =  2.0

     negative rho (up, down):  3.153E-06 0.000E+00

     total cpu time spent up to now is      396.6 secs

     total energy              =     -33.74364881 Ry
     Harris-Foulkes estimate   =     -33.74365035 Ry
     estimated scf accuracy    <       0.00000252 Ry

     iteration #  3     ecut=    60.00 Ry     beta=0.70
     Davidson diagonalization with overlap
     ethr =  3.16E-08,  avg # of iterations =  2.0

     negative rho (up, down):  1.050E-08 0.000E+00

     total cpu time spent up to now is      398.1 secs

     total energy              =     -33.74364965 Ry
     Harris-Foulkes estimate   =     -33.74364945 Ry
     estimated scf accuracy    <       0.00000011 Ry

     iteration #  4     ecut=    60.00 Ry     beta=0.70
     Davidson diagonalization with overlap
     ethr =  1.41E-09,  avg # of iterations =  2.0

     total cpu time spent up to now is      399.4 secs

     End of self-consistent calculation

          k = 0.0000 0.0000 0.0000 ( 62669 PWs)   bands (ev):

   -25.2460 -12.6801  -9.2026  -7.0205

     highest occupied level (ev):    -7.0205

!    total energy              =     -33.74364966 Ry
     Harris-Foulkes estimate   =     -33.74364968 Ry
     estimated scf accuracy    <          2.0E-09 Ry

     convergence has been achieved in   4 iterations

     Forces acting on atoms (Ry/au):

     atom    1 type  2   force =    -0.00017653   -0.00934942    0.00691456
     atom    2 type  1   force =     0.00011951    0.00330376   -0.00714814
     atom    3 type  1   force =     0.00005702    0.00604566    0.00023358

     Total force =     0.015293     Total SCF correction =     0.000425

     Entering Dynamics:    iteration =    22
                           time      =   0.0106 pico-seconds


     Andersen thermostat:    3 collisions

ATOMIC_POSITIONS (angstrom)
O       -0.000496191   0.000226194   0.121160117
H       -0.005485677   0.775859749  -0.490066700
H        0.013346133  -0.779443022  -0.494096479


     kinetic energy (Ekin) =     0.00010111 Ry
     temperature           =     5.32107724 K 
     Ekin + Etot (const)   =   -33.74354855 Ry
     Message from routine dynamics:
     Total linear momentum <> 0

     Linear momentum :    0.0184567548    0.0055542941    0.0222882744

     Writing output data file pwscf.save

     second order wave-functions extrapolation
     Check: negative starting charge=   -0.071156
     second order charge density extrapolation
     Check: negative starting charge=   -0.071156

     negative rho (up, down):  1.905E-05 0.000E+00

     total cpu time spent up to now is      410.5 secs

     per-process dynamical memory:    32.0 Mb

[...]

     iteration #  3     ecut=    60.00 Ry     beta=0.70
     Davidson diagonalization with overlap
     ethr =  1.30E-09,  avg # of iterations =  2.0

     total cpu time spent up to now is     8641.4 secs

     End of self-consistent calculation

          k = 0.0000 0.0000 0.0000 ( 62669 PWs)   bands (ev):

   -25.2881 -12.6304  -9.2749  -7.0305

     highest occupied level (ev):    -7.0305

!    total energy              =     -33.74368430 Ry
     Harris-Foulkes estimate   =     -33.74368425 Ry
     estimated scf accuracy    <          4.7E-09 Ry

     convergence has been achieved in   3 iterations

     Forces acting on atoms (Ry/au):

     atom    1 type  2   force =    -0.00103205    0.00773510    0.00479935
     atom    2 type  1   force =     0.00027343    0.00071303    0.00056282
     atom    3 type  1   force =     0.00075863   -0.00844813   -0.00536217

     Total force =     0.013621     Total SCF correction =     0.000796

     Entering Dynamics:    iteration =   455
                           time      =   0.2201 pico-seconds


     Andersen thermostat:    3 collisions

ATOMIC_POSITIONS (angstrom)
O       -0.004501033  -0.000227194   0.122033139
H        0.026451152   0.769924965  -0.504137488
H        0.044852346  -0.766325849  -0.493855750


     kinetic energy (Ekin) =     0.00025519 Ry
     temperature           =    13.43067967 K 
     Ekin + Etot (const)   =   -33.74342911 Ry
     Message from routine dynamics:
     Total linear momentum <> 0

     Linear momentum :   -0.0063608895   -0.0108189226   -0.0188387713

     Writing output data file pwscf.save

     second order wave-functions extrapolation
     Check: negative starting charge=   -0.071181
     second order charge density extrapolation
     Check: negative starting charge=   -0.071182

     negative rho (up, down):  3.495E-05 0.000E+00

     total cpu time spent up to now is     8652.5 secs

     per-process dynamical memory:    32.0 Mb

     Self-consistent Calculation

     iteration #  1     ecut=    60.00 Ry     beta=0.70
     Davidson diagonalization with overlap
     ethr =  1.00E-06,  avg # of iterations =  2.0

     Threshold (ethr) on eigenvalues was too large:
     Diagonalizing with lowered threshold

     Davidson diagonalization with overlap
     ethr =  1.36E-08,  avg # of iterations =  2.0

     negative rho (up, down):  2.710E-06 0.000E+00

     total cpu time spent up to now is     8654.7 secs

     total energy              =     -33.74363274 Ry
     Harris-Foulkes estimate   =     -33.74363371 Ry
     estimated scf accuracy    <       0.00000122 Ry

     iteration #  2     ecut=    60.00 Ry     beta=0.70
     Davidson diagonalization with overlap
     ethr =  1.52E-08,  avg # of iterations =  2.0

     negative rho (up, down):  6.432E-07 0.000E+00

     total cpu time spent up to now is     8656.2 secs

     total energy              =     -33.74363306 Ry
     Harris-Foulkes estimate   =     -33.74363319 Ry
     estimated scf accuracy    <       0.00000056 Ry

     iteration #  3     ecut=    60.00 Ry     beta=0.70
     Davidson diagonalization with overlap
     ethr =  7.01E-09,  avg # of iterations =  2.0

     total cpu time spent up to now is     8657.7 secs

     total energy              =     -33.74363332 Ry
     Harris-Foulkes estimate   =     -33.74363322 Ry
     estimated scf accuracy    <       0.00000005 Ry

     iteration #  4     ecut=    60.00 Ry     beta=0.70
     Davidson diagonalization with overlap
     ethr =  6.44E-10,  avg # of iterations =  2.0

     total cpu time spent up to now is     8658.9 secs

     End of self-consistent calculation

          k = 0.0000 0.0000 0.0000 ( 62669 PWs)   bands (ev):

   -25.2973 -12.6333  -9.2794  -7.0320

     highest occupied level (ev):    -7.0320

!    total energy              =     -33.74363334 Ry
     Harris-Foulkes estimate   =     -33.74363333 Ry
     estimated scf accuracy    <          5.5E-10 Ry

     convergence has been achieved in   4 iterations

     Forces acting on atoms (Ry/au):

     atom    1 type  2   force =    -0.00153226    0.01109847    0.00589704
     atom    2 type  1   force =     0.00040115    0.00026670    0.00149006
     atom    3 type  1   force =     0.00113111   -0.01136517   -0.00738710

     Total force =     0.018649     Total SCF correction =     0.000246

     Entering Dynamics:    iteration =   456
                           time      =   0.2206 pico-seconds


     Andersen thermostat:    3 collisions

ATOMIC_POSITIONS (angstrom)
O       -0.004414802  -0.000186570   0.122191899
H        0.026347849   0.772037378  -0.505421574
H        0.043589600  -0.769081813  -0.495086670


     kinetic energy (Ekin) =     0.00026152 Ry
     temperature           =    13.76363131 K 
     Ekin + Etot (const)   =   -33.74337182 Ry
     Message from routine dynamics:
     Total linear momentum <> 0

     Linear momentum :   -0.0216619922   -0.0114471500    0.0149639158

     Writing output data file pwscf.save

     second order wave-functions extrapolation
     Check: negative starting charge=   -0.071182
     second order charge density extrapolation
     Check: negative starting charge=   -0.071179

     negative rho (up, down):  9.629E-05 0.000E+00

     total cpu time spent up to now is     8670.0 secs

     per-process dynamical memory:    32.0 Mb

     Self-consistent Calculation

     iteration #  1     ecut=    60.00 Ry     beta=0.70
     Davidson diagonalization with overlap
     ethr =  1.00E-06,  avg # of iterations =  3.0

     negative rho (up, down):  1.071E-05 0.000E+00

     total cpu time spent up to now is     8671.6 secs

     total energy              =     -33.74367862 Ry
     Harris-Foulkes estimate   =     -33.74368663 Ry
     estimated scf accuracy    <       0.00000868 Ry

     iteration #  2     ecut=    60.00 Ry     beta=0.70
     Davidson diagonalization with overlap
     ethr =  1.09E-07,  avg # of iterations =  2.0

     negative rho (up, down):  3.576E-06 0.000E+00

     total cpu time spent up to now is     8673.0 secs

     total energy              =     -33.74368051 Ry
     Harris-Foulkes estimate   =     -33.74368366 Ry
     estimated scf accuracy    <       0.00000580 Ry

     iteration #  3     ecut=    60.00 Ry     beta=0.70
     Davidson diagonalization with overlap
     ethr =  7.25E-08,  avg # of iterations =  2.0

     negative rho (up, down):  2.833E-08 0.000E+00

     total cpu time spent up to now is     8674.7 secs

     total energy              =     -33.74368221 Ry
     Harris-Foulkes estimate   =     -33.74368192 Ry
     estimated scf accuracy    <       0.00000013 Ry

     iteration #  4     ecut=    60.00 Ry     beta=0.70
     Davidson diagonalization with overlap
     ethr =  1.66E-09,  avg # of iterations =  2.0

     total cpu time spent up to now is     8675.9 secs

     End of self-consistent calculation

          k = 0.0000 0.0000 0.0000 ( 62669 PWs)   bands (ev):

   -25.2676 -12.6120  -9.2729  -7.0269

     highest occupied level (ev):    -7.0269

!    total energy              =     -33.74368234 Ry
     Harris-Foulkes estimate   =     -33.74368226 Ry
     estimated scf accuracy    <          1.9E-09 Ry

     convergence has been achieved in   4 iterations

     Forces acting on atoms (Ry/au):

     atom    1 type  2   force =    -0.00117177    0.01037393    0.00084570
     atom    2 type  1   force =     0.00029444   -0.00304743    0.00370633
     atom    3 type  1   force =     0.00087733   -0.00732650   -0.00455204

     Total force =     0.014422     Total SCF correction =     0.000606

     Entering Dynamics:    iteration =   457
                           time      =   0.2211 pico-seconds


     Andersen thermostat:    3 collisions

ATOMIC_POSITIONS (angstrom)
O       -0.004345418  -0.000229944   0.122359301
H        0.024380640   0.772333223  -0.505084836
H        0.044457668  -0.768690552  -0.498075320


     kinetic energy (Ekin) =     0.00026562 Ry
     temperature           =    13.97950374 K 
     Ekin + Etot (const)   =   -33.74341672 Ry
     Message from routine dynamics:
     Total linear momentum <> 0

     Linear momentum :   -0.0443689183    0.0301062643   -0.0121378381

     Writing output data file pwscf.save

     second order wave-functions extrapolation
     Check: negative starting charge=   -0.071179
     second order charge density extrapolation
     Check: negative starting charge=   -0.071182

     negative rho (up, down):  1.060E-04 0.000E+00

     total cpu time spent up to now is     8687.1 secs

     per-process dynamical memory:    32.0 Mb

     Self-consistent Calculation

     iteration #  1     ecut=    60.00 Ry     beta=0.70
     Davidson diagonalization with overlap
     ethr =  1.00E-06,  avg # of iterations =  2.0

     Threshold (ethr) on eigenvalues was too large:
     Diagonalizing with lowered threshold

     Davidson diagonalization with overlap
     ethr =  1.78E-08,  avg # of iterations =  3.0

     negative rho (up, down):  1.223E-05 0.000E+00

     total cpu time spent up to now is     8689.3 secs

     total energy              =     -33.74369636 Ry
     Harris-Foulkes estimate   =     -33.74369986 Ry
     estimated scf accuracy    <       0.00000211 Ry

     iteration #  2     ecut=    60.00 Ry     beta=0.70
     Davidson diagonalization with overlap
     ethr =  2.64E-08,  avg # of iterations =  3.0

     negative rho (up, down):  4.165E-06 0.000E+00

     total cpu time spent up to now is     8691.0 secs

     total energy              =     -33.74369650 Ry
     Harris-Foulkes estimate   =     -33.74369741 Ry
     estimated scf accuracy    <       0.00000151 Ry

     iteration #  3     ecut=    60.00 Ry     beta=0.70
     Davidson diagonalization with overlap
     ethr =  1.88E-08,  avg # of iterations =  2.0

     total cpu time spent up to now is     8692.5 secs

     total energy              =     -33.74369724 Ry
     Harris-Foulkes estimate   =     -33.74369687 Ry
     estimated scf accuracy    <       0.00000007 Ry

     iteration #  4     ecut=    60.00 Ry     beta=0.70
     Davidson diagonalization with overlap
     ethr =  8.56E-10,  avg # of iterations =  2.0

     total cpu time spent up to now is     8693.7 secs

     End of self-consistent calculation

          k = 0.0000 0.0000 0.0000 ( 62669 PWs)   bands (ev):

   -25.2601 -12.5976  -9.2782  -7.0257

     highest occupied level (ev):    -7.0257

!    total energy              =     -33.74369725 Ry
     Harris-Foulkes estimate   =     -33.74369726 Ry
     estimated scf accuracy    <          1.8E-09 Ry

     convergence has been achieved in   4 iterations

     Forces acting on atoms (Ry/au):

     atom    1 type  2   force =    -0.00110919    0.00824404   -0.00081730
     atom    2 type  1   force =     0.00032702   -0.00276328    0.00374251
     atom    3 type  1   force =     0.00078217   -0.00548075   -0.00292521

     Total force =     0.011438     Total SCF correction =     0.000069

     Entering Dynamics:    iteration =   458
                           time      =   0.2216 pico-seconds


     Andersen thermostat:    3 collisions

ATOMIC_POSITIONS (angstrom)
O       -0.004410958  -0.000184864   0.122139350
H        0.024823075   0.771486424  -0.503766007
H        0.045053492  -0.768557883  -0.495909775


     kinetic energy (Ekin) =     0.00015265 Ry
     temperature           =     8.03383011 K 
     Ekin + Etot (const)   =   -33.74354460 Ry
     Message from routine dynamics:
     Total linear momentum <> 0

     Linear momentum :    0.0071864300   -0.0188458434    0.0242032764

     Writing output data file pwscf.save

     second order wave-functions extrapolation
     Check: negative starting charge=   -0.071182
     second order charge density extrapolation
     Check: negative starting charge=   -0.071180

     negative rho (up, down):  3.276E-05 0.000E+00

     total cpu time spent up to now is     8704.8 secs

     per-process dynamical memory:    32.0 Mb

     Self-consistent Calculation

     iteration #  1     ecut=    60.00 Ry     beta=0.70
     Davidson diagonalization with overlap
     ethr =  1.00E-06,  avg # of iterations =  2.0

     Threshold (ethr) on eigenvalues was too large:
     Diagonalizing with lowered threshold

     Davidson diagonalization with overlap
     ethr =  2.98E-09,  avg # of iterations =  3.0

     negative rho (up, down):  2.434E-06 0.000E+00

     total cpu time spent up to now is     8707.0 secs

     total energy              =     -33.74369584 Ry
     Harris-Foulkes estimate   =     -33.74369673 Ry
     estimated scf accuracy    <       0.00000031 Ry

     iteration #  2     ecut=    60.00 Ry     beta=0.70
     Davidson diagonalization with overlap
     ethr =  3.88E-09,  avg # of iterations =  2.0

     negative rho (up, down):  5.448E-07 0.000E+00

     total cpu time spent up to now is     8708.6 secs

     total energy              =     -33.74369580 Ry
     Harris-Foulkes estimate   =     -33.74369595 Ry
     estimated scf accuracy    <       0.00000014 Ry

     iteration #  3     ecut=    60.00 Ry     beta=0.70
     Davidson diagonalization with overlap
     ethr =  1.77E-09,  avg # of iterations =  2.0

     total cpu time spent up to now is     8710.1 secs

     total energy              =     -33.74369559 Ry
     Harris-Foulkes estimate   =     -33.74369585 Ry
     estimated scf accuracy    <       0.00000002 Ry

     iteration #  4     ecut=    60.00 Ry     beta=0.70
     Davidson diagonalization with overlap
     ethr =  1.98E-10,  avg # of iterations =  2.0

     total cpu time spent up to now is     8711.4 secs

     End of self-consistent calculation

          k = 0.0000 0.0000 0.0000 ( 62669 PWs)   bands (ev):

   -25.2745 -12.6181  -9.2735  -7.0280

     highest occupied level (ev):    -7.0280

!    total energy              =     -33.74369555 Ry
     Harris-Foulkes estimate   =     -33.74369560 Ry
     estimated scf accuracy    <          2.3E-10 Ry

     convergence has been achieved in   4 iterations

     Forces acting on atoms (Ry/au):

     atom    1 type  2   force =    -0.00134274    0.00812615    0.00262450
     atom    2 type  1   force =     0.00041980   -0.00107018    0.00199482
     atom    3 type  1   force =     0.00092294   -0.00705597   -0.00461932

     Total force =     0.012329     Total SCF correction =     0.000194

     Entering Dynamics:    iteration =   459
                           time      =   0.2221 pico-seconds


     Andersen thermostat:    3 collisions

ATOMIC_POSITIONS (angstrom)
O       -0.004418990  -0.000375638   0.122221818
H        0.023187265   0.773738224  -0.503271111
H        0.046816535  -0.767787530  -0.497711091


     kinetic energy (Ekin) =     0.00027514 Ry
     temperature           =    14.48047714 K 
     Ekin + Etot (const)   =   -33.74342040 Ry
     Message from routine dynamics:
     Total linear momentum <> 0

     Linear momentum :    0.0073963129   -0.0138334932   -0.0353954142

     Writing output data file pwscf.save

     second order wave-functions extrapolation
     Check: negative starting charge=   -0.071180
     second order charge density extrapolation
     Check: negative starting charge=   -0.071179

     negative rho (up, down):  8.424E-05 0.000E+00

     total cpu time spent up to now is     8722.6 secs

     per-process dynamical memory:    32.0 Mb

     Self-consistent Calculation

     iteration #  1     ecut=    60.00 Ry     beta=0.70
     Davidson diagonalization with overlap
     ethr =  1.00E-06,  avg # of iterations =  2.0

     Threshold (ethr) on eigenvalues was too large:
     Diagonalizing with lowered threshold

     Davidson diagonalization with overlap
     ethr =  1.35E-08,  avg # of iterations =  3.0

     negative rho (up, down):  8.858E-06 0.000E+00

     total cpu time spent up to now is     8724.8 secs

     total energy              =     -33.74369148 Ry
     Harris-Foulkes estimate   =     -33.74369297 Ry
     estimated scf accuracy    <       0.00000123 Ry

     iteration #  2     ecut=    60.00 Ry     beta=0.70
     Davidson diagonalization with overlap
     ethr =  1.54E-08,  avg # of iterations =  2.0

     negative rho (up, down):  1.821E-06 0.000E+00

     total cpu time spent up to now is     8726.3 secs

     total energy              =     -33.74369163 Ry
     Harris-Foulkes estimate   =     -33.74369185 Ry
     estimated scf accuracy    <       0.00000039 Ry

     iteration #  3     ecut=    60.00 Ry     beta=0.70
     Davidson diagonalization with overlap
     ethr =  4.92E-09,  avg # of iterations =  2.0

     negative rho (up, down):  2.308E-08 0.000E+00

     total cpu time spent up to now is     8727.9 secs

     total energy              =     -33.74369165 Ry
     Harris-Foulkes estimate   =     -33.74369177 Ry
     estimated scf accuracy    <       0.00000007 Ry

     iteration #  4     ecut=    60.00 Ry     beta=0.70
     Davidson diagonalization with overlap
     ethr =  8.94E-10,  avg # of iterations =  2.0

     total cpu time spent up to now is     8729.1 secs

     End of self-consistent calculation

          k = 0.0000 0.0000 0.0000 ( 62669 PWs)   bands (ev):

   -25.2637 -12.6084  -9.2727  -7.0262

     highest occupied level (ev):    -7.0262

!    total energy              =     -33.74369167 Ry
     Harris-Foulkes estimate   =     -33.74369167 Ry
     estimated scf accuracy    <          8.4E-10 Ry

     convergence has been achieved in   4 iterations

     Forces acting on atoms (Ry/au):

     atom    1 type  2   force =    -0.00114156    0.00972698    0.00070136
     atom    2 type  1   force =     0.00030048   -0.00317608    0.00346542
     atom    3 type  1   force =     0.00084108   -0.00655089   -0.00416679

     Total force =     0.013401     Total SCF correction =     0.000589

     Entering Dynamics:    iteration =   460
                           time      =   0.2225 pico-seconds


     Andersen thermostat:    3 collisions

ATOMIC_POSITIONS (angstrom)
O       -0.004703704  -0.000386099   0.122314259
H        0.023937291   0.774640505  -0.503004047
H        0.050576832  -0.768524087  -0.499442577


     kinetic energy (Ekin) =     0.00032637 Ry
     temperature           =    17.17653604 K 
     Ekin + Etot (const)   =   -33.74336530 Ry
     Message from routine dynamics:
     Total linear momentum <> 0

     Linear momentum :    0.0001293131   -0.0048847629   -0.0030240465

     Writing output data file pwscf.save

     second order wave-functions extrapolation
     Check: negative starting charge=   -0.071179
     second order charge density extrapolation
     Check: negative starting charge=   -0.071178

     negative rho (up, down):  1.853E-04 0.000E+00

     total cpu time spent up to now is     8740.2 secs

     per-process dynamical memory:    32.0 Mb

     Self-consistent Calculation

     iteration #  1     ecut=    60.00 Ry     beta=0.70
     Davidson diagonalization with overlap
     ethr =  1.00E-06,  avg # of iterations =  2.0

     Threshold (ethr) on eigenvalues was too large:
     Diagonalizing with lowered threshold

     Davidson diagonalization with overlap
     ethr =  2.57E-08,  avg # of iterations =  2.0

     negative rho (up, down):  2.603E-05 0.000E+00

     total cpu time spent up to now is     8742.4 secs

     total energy              =     -33.74370513 Ry
     Harris-Foulkes estimate   =     -33.74371009 Ry
     estimated scf accuracy    <       0.00000278 Ry

     iteration #  2     ecut=    60.00 Ry     beta=0.70
     Davidson diagonalization with overlap
     ethr =  3.47E-08,  avg # of iterations =  2.0

     negative rho (up, down):  9.318E-06 0.000E+00

     total cpu time spent up to now is     8743.9 secs

     total energy              =     -33.74370527 Ry
     Harris-Foulkes estimate   =     -33.74370652 Ry
     estimated scf accuracy    <       0.00000179 Ry

     iteration #  3     ecut=    60.00 Ry     beta=0.70
     Davidson diagonalization with overlap
     ethr =  2.23E-08,  avg # of iterations =  2.0
