
     Program PWSCF v.6.0 (svn rev. 13079) starts on 12Apr2018 at 20: 6:54 

     This program is part of the open-source Quantum ESPRESSO suite
     for quantum simulation of materials; please cite
         "P. Giannozzi et al., J. Phys.:Condens. Matter 21 395502 (2009);
          URL http://www.quantum-espresso.org", 
     in publications or presentations arising from this work. More details at
     http://www.quantum-espresso.org/quote

     Parallel version (MPI), running on    24 processors
     R & G space division:  proc/nbgrp/npool/nimage =      24
     Reading input from H2O-1000xv3.in

     Current dimensions of program PWSCF are:
     Max number of different atomic species (ntypx) = 10
     Max number of k-points (npk) =  40000
     Max angular momentum in pseudopotentials (lmaxx) =  3

     Subspace diagonalization in iterative solution of the eigenvalue problem:
     a serial algorithm will be used

 
     Parallelization info
     --------------------
     sticks:   dense  smooth     PW     G-vecs:    dense   smooth      PW
     Min         318     318     79                20934    20934    2611
     Max         319     319     80                20939    20939    2612
     Sum        7645    7645   1901               502479   502479   62669
 


     bravais-lattice index     =            1
     lattice parameter (alat)  =      20.0000  a.u.
     unit-cell volume          =    8000.0000 (a.u.)^3
     number of atoms/cell      =            3
     number of atomic types    =            2
     number of electrons       =         8.00
     number of Kohn-Sham states=            8
     kinetic-energy cutoff     =      60.0000  Ry
     charge density cutoff     =     240.0000  Ry
     convergence threshold     =      1.0E-08
     mixing beta               =       0.7000
     number of iterations used =            8  plain     mixing
     Exchange-correlation      = BLYP ( 1  3  1  3 0 0)
     nstep                     =          100


     celldm(1)=  20.000000  celldm(2)=   0.000000  celldm(3)=   0.000000
     celldm(4)=   0.000000  celldm(5)=   0.000000  celldm(6)=   0.000000

     crystal axes: (cart. coord. in units of alat)
               a(1) = (   1.000000   0.000000   0.000000 )  
               a(2) = (   0.000000   1.000000   0.000000 )  
               a(3) = (   0.000000   0.000000   1.000000 )  

     reciprocal axes: (cart. coord. in units 2 pi/alat)
               b(1) = (  1.000000  0.000000  0.000000 )  
               b(2) = (  0.000000  1.000000  0.000000 )  
               b(3) = (  0.000000  0.000000  1.000000 )  


     PseudoPot. # 1 for  H read from file:
     ./H.blyp-hgh.UPF
     MD5 check sum: c576e69559cde411e611be972c763230
     Pseudo is Norm-conserving, Zval =  1.0
     Generated in analytical, separable form
     Using radial grid of  929 points,  0 beta functions with: 

     PseudoPot. # 2 for  O read from file:
     ./O.blyp-hgh.UPF
     MD5 check sum: d0b7156309aa9befef28faac7bc56342
     Pseudo is Norm-conserving, Zval =  6.0
     Generated in analytical, separable form
     Using radial grid of 1095 points,  1 beta functions with: 
                l(1) =   0

     atomic species   valence    mass     pseudopotential
        H              1.00     1.01000      H( 1.00)
        O              6.00    16.00000      O( 1.00)

     No symmetry found



   Cartesian axes

     site n.     atom                  positions (alat units)
         1           O   tau(   1) = (   0.0000000   0.0000000   0.0112686  )
         2           H   tau(   2) = (   0.0000000   0.0721156  -0.0450744  )
         3           H   tau(   3) = (   0.0000000  -0.0721156  -0.0450744  )

     number of k points=     1  Marzari-Vanderbilt smearing, width (Ry)=  0.0250
                       cart. coord. in units 2pi/alat
        k(    1) = (   0.0000000   0.0000000   0.0000000), wk =   2.0000000

     Dense  grid:   502479 G-vectors     FFT dimensions: ( 100, 100, 100)

     Estimated max dynamical RAM per process >      17.25Mb

     Estimated total allocated dynamical RAM >     414.03Mb

     Initial potential from superposition of free atoms
     Check: negative starting charge=   -0.071145

     starting charge    7.99998, renormalised to    8.00000

     negative rho (up, down):  7.115E-02 0.000E+00
     Starting wfc are    6 randomized atomic wfcs +    2 random wfc

     total cpu time spent up to now is        9.4 secs

     per-process dynamical memory:    33.6 Mb

     Self-consistent Calculation

     iteration #  1     ecut=    60.00 Ry     beta=0.70
     Davidson diagonalization with overlap
     ethr =  1.00E-02,  avg # of iterations =  8.0

     negative rho (up, down):  2.059E-02 0.000E+00

     total cpu time spent up to now is       13.1 secs

     total energy              =     -33.66126182 Ry
     Harris-Foulkes estimate   =     -33.73037803 Ry
     estimated scf accuracy    <       0.20696759 Ry

     iteration #  2     ecut=    60.00 Ry     beta=0.70
     Davidson diagonalization with overlap
     ethr =  2.59E-03,  avg # of iterations =  2.0

     negative rho (up, down):  5.000E-04 0.000E+00

     total cpu time spent up to now is       15.3 secs

     total energy              =     -33.70946760 Ry
     Harris-Foulkes estimate   =     -33.75046144 Ry
     estimated scf accuracy    <       0.13596108 Ry

     iteration #  3     ecut=    60.00 Ry     beta=0.70
     Davidson diagonalization with overlap
     ethr =  1.70E-03,  avg # of iterations =  3.0

     negative rho (up, down):  1.059E-05 0.000E+00

     total cpu time spent up to now is       17.6 secs

     total energy              =     -33.74219220 Ry
     Harris-Foulkes estimate   =     -33.74214483 Ry
     estimated scf accuracy    <       0.00136673 Ry

     iteration #  4     ecut=    60.00 Ry     beta=0.70
     Davidson diagonalization with overlap
     ethr =  1.71E-05,  avg # of iterations = 13.0

     negative rho (up, down):  1.025E-05 0.000E+00

     total cpu time spent up to now is       21.4 secs

     total energy              =     -33.74244080 Ry
     Harris-Foulkes estimate   =     -33.74243514 Ry
     estimated scf accuracy    <       0.00134942 Ry

     iteration #  5     ecut=    60.00 Ry     beta=0.70
     Davidson diagonalization with overlap
     ethr =  1.69E-05,  avg # of iterations =  1.0

     negative rho (up, down):  1.463E-05 0.000E+00

     total cpu time spent up to now is       23.5 secs

     total energy              =     -33.74244189 Ry
     Harris-Foulkes estimate   =     -33.74244287 Ry
     estimated scf accuracy    <       0.00139061 Ry

     iteration #  6     ecut=    60.00 Ry     beta=0.70
     Davidson diagonalization with overlap
     ethr =  1.69E-05,  avg # of iterations =  1.0

     negative rho (up, down):  1.990E-05 0.000E+00

     total cpu time spent up to now is       25.5 secs

     total energy              =     -33.74244627 Ry
     Harris-Foulkes estimate   =     -33.74244212 Ry
     estimated scf accuracy    <       0.00139780 Ry

     iteration #  7     ecut=    60.00 Ry     beta=0.70
     Davidson diagonalization with overlap
     ethr =  1.69E-05,  avg # of iterations =  1.0

     negative rho (up, down):  1.968E-05 0.000E+00

     total cpu time spent up to now is       27.6 secs

     total energy              =     -33.74244279 Ry
     Harris-Foulkes estimate   =     -33.74244633 Ry
     estimated scf accuracy    <       0.00141589 Ry

     iteration #  8     ecut=    60.00 Ry     beta=0.70
     Davidson diagonalization with overlap
     ethr =  1.69E-05,  avg # of iterations =  1.0

     negative rho (up, down):  2.057E-05 0.000E+00

     total cpu time spent up to now is       29.7 secs

     total energy              =     -33.74245015 Ry
     Harris-Foulkes estimate   =     -33.74244280 Ry
     estimated scf accuracy    <       0.00140809 Ry

     iteration #  9     ecut=    60.00 Ry     beta=0.70
     Davidson diagonalization with overlap
     ethr =  1.69E-05,  avg # of iterations =  1.0

     negative rho (up, down):  2.077E-05 0.000E+00

     total cpu time spent up to now is       31.9 secs

     total energy              =     -33.74244501 Ry
     Harris-Foulkes estimate   =     -33.74245017 Ry
     estimated scf accuracy    <       0.00143333 Ry

     iteration # 10     ecut=    60.00 Ry     beta=0.70
     Davidson diagonalization with overlap
     ethr =  1.69E-05,  avg # of iterations =  1.0

     negative rho (up, down):  7.386E-06 0.000E+00

     total cpu time spent up to now is       34.0 secs

     total energy              =     -33.74244093 Ry
     Harris-Foulkes estimate   =     -33.74244502 Ry
     estimated scf accuracy    <       0.00141731 Ry

     iteration # 11     ecut=    60.00 Ry     beta=0.70
     Davidson diagonalization with overlap
     ethr =  1.69E-05,  avg # of iterations =  1.0

     negative rho (up, down):  1.525E-06 0.000E+00

     total cpu time spent up to now is       36.1 secs

     total energy              =     -33.74245059 Ry
     Harris-Foulkes estimate   =     -33.74244094 Ry
     estimated scf accuracy    <       0.00140243 Ry

     iteration # 12     ecut=    60.00 Ry     beta=0.70
     Davidson diagonalization with overlap
     ethr =  1.69E-05,  avg # of iterations =  1.0

     negative rho (up, down):  1.825E-04 0.000E+00

     total cpu time spent up to now is       38.2 secs

     total energy              =     -33.74184590 Ry
     Harris-Foulkes estimate   =     -33.74245062 Ry
     estimated scf accuracy    <       0.00143475 Ry

     iteration # 13     ecut=    60.00 Ry     beta=0.70
     Davidson diagonalization with overlap
     ethr =  1.69E-05,  avg # of iterations =  2.0

     negative rho (up, down):  2.873E-06 0.000E+00

     total cpu time spent up to now is       40.6 secs

     total energy              =     -33.74205599 Ry
     Harris-Foulkes estimate   =     -33.74206060 Ry
     estimated scf accuracy    <       0.00002422 Ry

     iteration # 14     ecut=    60.00 Ry     beta=0.70
     Davidson diagonalization with overlap
     ethr =  3.03E-07,  avg # of iterations =  2.0

     negative rho (up, down):  1.964E-05 0.000E+00

     total cpu time spent up to now is       43.2 secs

     total energy              =     -33.74205634 Ry
     Harris-Foulkes estimate   =     -33.74206080 Ry
     estimated scf accuracy    <       0.00000170 Ry

     iteration # 15     ecut=    60.00 Ry     beta=0.70
     Davidson diagonalization with overlap
     ethr =  2.12E-08,  avg # of iterations =  2.0

     negative rho (up, down):  2.292E-07 0.000E+00

     total cpu time spent up to now is       45.7 secs

     total energy              =     -33.74205618 Ry
     Harris-Foulkes estimate   =     -33.74205673 Ry
     estimated scf accuracy    <       0.00000010 Ry

     iteration # 16     ecut=    60.00 Ry     beta=0.70
     Davidson diagonalization with overlap
     ethr =  1.26E-09,  avg # of iterations =  2.0

     total cpu time spent up to now is       47.6 secs

     End of self-consistent calculation

          k = 0.0000 0.0000 0.0000 ( 62669 PWs)   bands (ev):

   -25.4809 -12.9152  -9.2077  -7.0608  -0.9109   0.4221   0.7968   1.1285

     the Fermi energy is    -5.1837 ev

!    total energy              =     -33.74205613 Ry
     Harris-Foulkes estimate   =     -33.74205620 Ry
     estimated scf accuracy    <          2.7E-09 Ry

     convergence has been achieved in  16 iterations

     Forces acting on atoms (Ry/au):

     atom    1 type  2   force =     0.00000780   -0.00000773    0.05214234
     atom    2 type  1   force =    -0.00000416    0.02845379   -0.02607297
     atom    3 type  1   force =    -0.00000365   -0.02844605   -0.02606938

     Total force =     0.075479     Total SCF correction =     0.000117

     Entering Dynamics:    iteration =     4
                           time      =   0.0019 pico-seconds


     Andersen thermostat:    3 collisions

ATOMIC_POSITIONS (angstrom)
O        0.000113014   0.001079933   0.119182592
H       -0.007694632   0.754197709  -0.477149512
H        0.005904308  -0.771305559  -0.475686538


     kinetic energy (Ekin) =     0.00446252 Ry
     temperature           =   234.85831572 K 
     Ekin + Etot (const)   =   -33.73759361 Ry
     Message from routine dynamics:
     Total linear momentum <> 0

     Linear momentum :    0.0419913371   -0.0488267921    0.0279162934

     Writing output data file pwscf.save

     second order wave-functions extrapolation
     Message from extrapolate_wfcs: 
     the matrix <psi(t-dt)|psi(t)> has  4 small (< 0.1) eigenvalues
     Check: negative starting charge=   -0.071145
     second order charge density extrapolation
     Check: negative starting charge=   -0.071144

     negative rho (up, down):  7.819E-04 0.000E+00

     total cpu time spent up to now is       62.6 secs

     per-process dynamical memory:    37.0 Mb

     Self-consistent Calculation

     iteration #  1     ecut=    60.00 Ry     beta=0.70
     Davidson diagonalization with overlap
     ethr =  1.00E-06,  avg # of iterations =  5.0

     negative rho (up, down):  1.630E-04 0.000E+00

     total cpu time spent up to now is       65.8 secs

     total energy              =     -33.73767696 Ry
     Harris-Foulkes estimate   =     -33.73767925 Ry
     estimated scf accuracy    <       0.00004515 Ry

     iteration #  2     ecut=    60.00 Ry     beta=0.70
     Davidson diagonalization with overlap
     ethr =  5.64E-07,  avg # of iterations =  3.0

     negative rho (up, down):  5.321E-05 0.000E+00

     total cpu time spent up to now is       68.2 secs

     total energy              =     -33.73768158 Ry
     Harris-Foulkes estimate   =     -33.73768947 Ry
     estimated scf accuracy    <       0.00001265 Ry

     iteration #  3     ecut=    60.00 Ry     beta=0.70
     Davidson diagonalization with overlap
     ethr =  1.58E-07,  avg # of iterations =  2.0

     negative rho (up, down):  2.362E-06 0.000E+00

     total cpu time spent up to now is       70.3 secs

     total energy              =     -33.74176194 Ry
     Harris-Foulkes estimate   =     -33.74176352 Ry
     estimated scf accuracy    <       0.00000286 Ry

     iteration #  4     ecut=    60.00 Ry     beta=0.70
     Davidson diagonalization with overlap
     ethr =  3.57E-08,  avg # of iterations =  2.0

     negative rho (up, down):  1.996E-08 0.000E+00

     total cpu time spent up to now is       72.4 secs

     total energy              =     -33.74176256 Ry
     Harris-Foulkes estimate   =     -33.74176257 Ry
     estimated scf accuracy    <       0.00000006 Ry

     iteration #  5     ecut=    60.00 Ry     beta=0.70
     Davidson diagonalization with overlap
     ethr =  7.03E-10,  avg # of iterations =  2.0

     total cpu time spent up to now is       74.2 secs

     End of self-consistent calculation

          k = 0.0000 0.0000 0.0000 ( 62669 PWs)   bands (ev):

   -25.4902 -12.9239  -9.2075  -7.0621  -0.9092   0.4226   0.7983   1.1288

     the Fermi energy is    -5.1858 ev

!    total energy              =     -33.74176264 Ry
     Harris-Foulkes estimate   =     -33.74176258 Ry
     estimated scf accuracy    <          1.5E-09 Ry

     convergence has been achieved in   5 iterations

     Forces acting on atoms (Ry/au):

     atom    1 type  2   force =     0.00029357   -0.02069437    0.05436578
     atom    2 type  1   force =    -0.00042461    0.04012974   -0.03564095
     atom    3 type  1   force =     0.00013104   -0.01943537   -0.01872483

     Total force =     0.083625     Total SCF correction =     0.000516

     Entering Dynamics:    iteration =     5
                           time      =   0.0024 pico-seconds


     Andersen thermostat:    3 collisions

ATOMIC_POSITIONS (angstrom)
O        0.001248366   0.000154571   0.119848236
H       -0.017117416   0.762662009  -0.492330532
H       -0.002658679  -0.765110652  -0.471050367


     kinetic energy (Ekin) =     0.01237864 Ry
     temperature           =   651.47655899 K 
     Ekin + Etot (const)   =   -33.72938400 Ry
     Message from routine dynamics:
     Total linear momentum <> 0

     Linear momentum :   -0.3026837127    0.3045441215   -0.3492111099

     Writing output data file pwscf.save

     second order wave-functions extrapolation
     Check: negative starting charge=   -0.071144
     second order charge density extrapolation
     Check: negative starting charge=   -0.071156

     negative rho (up, down):  1.399E-03 0.000E+00

     total cpu time spent up to now is       88.4 secs

     per-process dynamical memory:    37.0 Mb

     Self-consistent Calculation

     iteration #  1     ecut=    60.00 Ry     beta=0.70
     Davidson diagonalization with overlap
     c_bands:  1 eigenvalues not converged
     ethr =  1.00E-06,  avg # of iterations = 20.0

     negative rho (up, down):  3.173E-04 0.000E+00

     total cpu time spent up to now is       93.4 secs

     total energy              =     -33.73838901 Ry
     Harris-Foulkes estimate   =     -33.73826182 Ry
     estimated scf accuracy    <       0.00007499 Ry

     iteration #  2     ecut=    60.00 Ry     beta=0.70
     Davidson diagonalization with overlap
     ethr =  9.37E-07,  avg # of iterations = 13.0

     negative rho (up, down):  9.662E-05 0.000E+00

     total cpu time spent up to now is       97.1 secs

     total energy              =     -33.73839394 Ry
     Harris-Foulkes estimate   =     -33.73840452 Ry
     estimated scf accuracy    <       0.00001696 Ry

     iteration #  3     ecut=    60.00 Ry     beta=0.70
     Davidson diagonalization with overlap
     ethr =  2.12E-07,  avg # of iterations =  2.0

     negative rho (up, down):  2.987E-06 0.000E+00

     total cpu time spent up to now is       99.2 secs

     total energy              =     -33.73839728 Ry
     Harris-Foulkes estimate   =     -33.73840075 Ry
     estimated scf accuracy    <       0.00000602 Ry

     iteration #  4     ecut=    60.00 Ry     beta=0.70
     Davidson diagonalization with overlap
     ethr =  7.53E-08,  avg # of iterations =  3.0

     negative rho (up, down):  4.040E-08 0.000E+00

     total cpu time spent up to now is      101.4 secs

     total energy              =     -33.74247603 Ry
     Harris-Foulkes estimate   =     -33.74247607 Ry
     estimated scf accuracy    <       0.00000008 Ry

     iteration #  5     ecut=    60.00 Ry     beta=0.70
     Davidson diagonalization with overlap
     ethr =  1.02E-09,  avg # of iterations =  2.0

     total cpu time spent up to now is      103.3 secs

     End of self-consistent calculation

          k = 0.0000 0.0000 0.0000 ( 62669 PWs)   bands (ev):

   -25.4462 -12.8575  -9.2238  -7.0552  -0.9223   0.4180   0.7909   1.1100

     the Fermi energy is    -5.1889 ev

!    total energy              =     -33.74247604 Ry
     Harris-Foulkes estimate   =     -33.74247606 Ry
     estimated scf accuracy    <          2.4E-09 Ry

     convergence has been achieved in   5 iterations

     Forces acting on atoms (Ry/au):

     atom    1 type  2   force =     0.00093220    0.01644876    0.04269959
     atom    2 type  1   force =    -0.00057795    0.01581671   -0.01530652
     atom    3 type  1   force =    -0.00035426   -0.03226546   -0.02739308

     Total force =     0.066114     Total SCF correction =     0.000653

     Entering Dynamics:    iteration =     6
                           time      =   0.0029 pico-seconds


     Andersen thermostat:    3 collisions

ATOMIC_POSITIONS (angstrom)
O        0.001762127   0.000066144   0.120501165
H       -0.011018986   0.757541576  -0.500806028
H       -0.016895891  -0.758589401  -0.472918311


     kinetic energy (Ekin) =     0.00776224 Ry
     temperature           =   408.51982774 K 
     Ekin + Etot (const)   =   -33.73471380 Ry
     Message from routine dynamics:
     Total linear momentum <> 0

     Linear momentum :   -0.0644401829   -0.1346569681    0.2700097518

     Writing output data file pwscf.save

     second order wave-functions extrapolation
     Check: negative starting charge=   -0.071156
     second order charge density extrapolation
     Check: negative starting charge=   -0.071173

     negative rho (up, down):  8.266E-04 0.000E+00

     total cpu time spent up to now is      117.5 secs

     per-process dynamical memory:    37.0 Mb

     Self-consistent Calculation

     iteration #  1     ecut=    60.00 Ry     beta=0.70
     Davidson diagonalization with overlap
     ethr =  1.00E-06,  avg # of iterations =  5.0

     negative rho (up, down):  1.730E-04 0.000E+00

     total cpu time spent up to now is      120.6 secs

     total energy              =     -33.73814646 Ry
     Harris-Foulkes estimate   =     -33.73813831 Ry
     estimated scf accuracy    <       0.00003530 Ry

     iteration #  2     ecut=    60.00 Ry     beta=0.70
     Davidson diagonalization with overlap
     ethr =  4.41E-07,  avg # of iterations =  3.0

     negative rho (up, down):  5.175E-05 0.000E+00

     total cpu time spent up to now is      123.0 secs

     total energy              =     -33.73814871 Ry
     Harris-Foulkes estimate   =     -33.73815476 Ry
     estimated scf accuracy    <       0.00000902 Ry

     iteration #  3     ecut=    60.00 Ry     beta=0.70
     Davidson diagonalization with overlap
     ethr =  1.13E-07,  avg # of iterations =  2.0

     negative rho (up, down):  1.157E-06 0.000E+00

     total cpu time spent up to now is      125.2 secs

     total energy              =     -33.74222872 Ry
     Harris-Foulkes estimate   =     -33.74222960 Ry
     estimated scf accuracy    <       0.00000272 Ry

     iteration #  4     ecut=    60.00 Ry     beta=0.70
     Davidson diagonalization with overlap
     ethr =  3.40E-08,  avg # of iterations =  2.0

     total cpu time spent up to now is      127.3 secs

     total energy              =     -33.74222957 Ry
     Harris-Foulkes estimate   =     -33.74222930 Ry
     estimated scf accuracy    <       0.00000004 Ry

     iteration #  5     ecut=    60.00 Ry     beta=0.70
     Davidson diagonalization with overlap
     ethr =  4.73E-10,  avg # of iterations =  2.0

     total cpu time spent up to now is      129.1 secs

     End of self-consistent calculation

          k = 0.0000 0.0000 0.0000 ( 62669 PWs)   bands (ev):

   -25.4736 -12.8177  -9.2744  -7.0613  -0.9222   0.4172   0.7953   1.1076

     the Fermi energy is    -5.1976 ev

!    total energy              =     -33.74222951 Ry
     Harris-Foulkes estimate   =     -33.74222958 Ry
     estimated scf accuracy    <          1.3E-09 Ry

     convergence has been achieved in   5 iterations

     Forces acting on atoms (Ry/au):

     atom    1 type  2   force =     0.00192080    0.02371154    0.04141396
     atom    2 type  1   force =    -0.00060905    0.01620141   -0.01170125
     atom    3 type  1   force =    -0.00131174   -0.03991295   -0.02971272

     Total force =     0.071822     Total SCF correction =     0.000165

     Entering Dynamics:    iteration =     7
                           time      =   0.0034 pico-seconds


     Andersen thermostat:    3 collisions

ATOMIC_POSITIONS (angstrom)
O        0.001293412   0.000755391   0.119599210
H       -0.003673116   0.748599808  -0.484569865
H       -0.016816573  -0.760566398  -0.474866074


     kinetic energy (Ekin) =     0.00921755 Ry
     temperature           =   485.11121853 K 
     Ekin + Etot (const)   =   -33.73301197 Ry
     Message from routine dynamics:
     Total linear momentum <> 0

     Linear momentum :    0.0226115065   -0.1798966512    0.3521915778

     Writing output data file pwscf.save

     second order wave-functions extrapolation
     Check: negative starting charge=   -0.071173
     second order charge density extrapolation
     Check: negative starting charge=   -0.071159

     negative rho (up, down):  5.210E-04 0.000E+00

     total cpu time spent up to now is      143.4 secs

     per-process dynamical memory:    37.0 Mb

     Self-consistent Calculation

     iteration #  1     ecut=    60.00 Ry     beta=0.70
     Davidson diagonalization with overlap
     ethr =  1.00E-06,  avg # of iterations =  3.0

     negative rho (up, down):  9.910E-05 0.000E+00

     total cpu time spent up to now is      146.3 secs

     total energy              =     -33.73718049 Ry
     Harris-Foulkes estimate   =     -33.73720214 Ry
     estimated scf accuracy    <       0.00003228 Ry

     iteration #  2     ecut=    60.00 Ry     beta=0.70
     Davidson diagonalization with overlap
     ethr =  4.04E-07,  avg # of iterations =  2.0

     negative rho (up, down):  4.801E-05 0.000E+00

     total cpu time spent up to now is      148.6 secs

     total energy              =     -33.73718685 Ry
     Harris-Foulkes estimate   =     -33.73720246 Ry
     estimated scf accuracy    <       0.00003011 Ry

     iteration #  3     ecut=    60.00 Ry     beta=0.70
     Davidson diagonalization with overlap
     ethr =  3.76E-07,  avg # of iterations =  2.0

     negative rho (up, down):  1.131E-07 0.000E+00

     total cpu time spent up to now is      150.7 secs

     total energy              =     -33.74126915 Ry
     Harris-Foulkes estimate   =     -33.74127057 Ry
     estimated scf accuracy    <       0.00000023 Ry

     iteration #  4     ecut=    60.00 Ry     beta=0.70
     Davidson diagonalization with overlap
     ethr =  2.92E-09,  avg # of iterations =  2.0

     total cpu time spent up to now is      152.6 secs

     End of self-consistent calculation

          k = 0.0000 0.0000 0.0000 ( 62669 PWs)   bands (ev):

   -25.5508 -12.9140  -9.2619  -7.0741  -0.8999   0.4257   0.8082   1.1298

     the Fermi energy is    -5.2002 ev

!    total energy              =     -33.74126909 Ry
     Harris-Foulkes estimate   =     -33.74126925 Ry
     estimated scf accuracy    <          7.3E-09 Ry

     convergence has been achieved in   4 iterations

     Forces acting on atoms (Ry/au):

     atom    1 type  2   force =     0.00141815   -0.00620903    0.05987690
     atom    2 type  1   force =    -0.00043072    0.04127886   -0.03306524
     atom    3 type  1   force =    -0.00098743   -0.03506983   -0.02681167

     Total force =     0.091504     Total SCF correction =     0.000885

     Entering Dynamics:    iteration =     8
                           time      =   0.0039 pico-seconds


     Andersen thermostat:    3 collisions

ATOMIC_POSITIONS (angstrom)
O        0.001140484  -0.000354528   0.120553582
H       -0.001119619   0.765658063  -0.491284000
H       -0.016947453  -0.760041784  -0.483270702


     kinetic energy (Ekin) =     0.00783355 Ry
     temperature           =   412.27297893 K 
     Ekin + Etot (const)   =   -33.73343553 Ry
     Message from routine dynamics:
     Total linear momentum <> 0

     Linear momentum :    0.0836159018   -0.1130227057    0.3260315072

     Writing output data file pwscf.save

     second order wave-functions extrapolation
     Check: negative starting charge=   -0.071159
     second order charge density extrapolation
     Check: negative starting charge=   -0.071169

     negative rho (up, down):  9.081E-04 0.000E+00

     total cpu time spent up to now is      166.6 secs

     per-process dynamical memory:    37.0 Mb

     Self-consistent Calculation

     iteration #  1     ecut=    60.00 Ry     beta=0.70
     Davidson diagonalization with overlap
     ethr =  1.00E-06,  avg # of iterations =  4.0

     negative rho (up, down):  1.944E-04 0.000E+00

     total cpu time spent up to now is      169.4 secs

     total energy              =     -33.73871849 Ry
     Harris-Foulkes estimate   =     -33.73877805 Ry
     estimated scf accuracy    <       0.00013317 Ry

     iteration #  2     ecut=    60.00 Ry     beta=0.70
     Davidson diagonalization with overlap
     ethr =  1.66E-06,  avg # of iterations =  3.0

     negative rho (up, down):  9.928E-05 0.000E+00

     total cpu time spent up to now is      172.0 secs

     total energy              =     -33.74281764 Ry
     Harris-Foulkes estimate   =     -33.74287717 Ry
     estimated scf accuracy    <       0.00011114 Ry

     iteration #  3     ecut=    60.00 Ry     beta=0.70
     Davidson diagonalization with overlap
     ethr =  1.39E-06,  avg # of iterations =  2.0

     negative rho (up, down):  1.474E-06 0.000E+00

     total cpu time spent up to now is      174.2 secs

     total energy              =     -33.74284038 Ry
     Harris-Foulkes estimate   =     -33.74284212 Ry
     estimated scf accuracy    <       0.00000162 Ry

     iteration #  4     ecut=    60.00 Ry     beta=0.70
     Davidson diagonalization with overlap
     ethr =  2.02E-08,  avg # of iterations =  2.0

     negative rho (up, down):  1.214E-08 0.000E+00

     total cpu time spent up to now is      176.4 secs

     total energy              =     -33.74284090 Ry
     Harris-Foulkes estimate   =     -33.74284079 Ry
     estimated scf accuracy    <       0.00000003 Ry

     iteration #  5     ecut=    60.00 Ry     beta=0.70
     Davidson diagonalization with overlap
     ethr =  3.52E-10,  avg # of iterations =  2.0

     total cpu time spent up to now is      178.2 secs

     End of self-consistent calculation

          k = 0.0000 0.0000 0.0000 ( 62669 PWs)   bands (ev):

   -25.4241 -12.7972  -9.2526  -7.0524  -0.9318   0.4144   0.7868   1.1146

     the Fermi energy is    -5.1799 ev

!    total energy              =     -33.74284085 Ry
     Harris-Foulkes estimate   =     -33.74284091 Ry
     estimated scf accuracy    <          1.4E-09 Ry

     convergence has been achieved in   5 iterations

     Forces acting on atoms (Ry/au):

     atom    1 type  2   force =     0.00136664    0.01367235    0.03446872
     atom    2 type  1   force =    -0.00037180    0.01440085   -0.01188407
     atom    3 type  1   force =    -0.00099484   -0.02807320   -0.02258466

     Total force =     0.054998     Total SCF correction =     0.000465

     Entering Dynamics:    iteration =     9
                           time      =   0.0044 pico-seconds


     Andersen thermostat:    3 collisions

ATOMIC_POSITIONS (angstrom)
O        0.000968825  -0.001468167   0.119973985
H       -0.003155069   0.779721915  -0.490181185
H       -0.012192648  -0.756463831  -0.475191779


     kinetic energy (Ekin) =     0.00648916 Ry
     temperature           =   341.51893242 K 
     Ekin + Etot (const)   =   -33.73635169 Ry
     Message from routine dynamics:
     Total linear momentum <> 0

     Linear momentum :    0.1202127388   -0.2483998052   -0.0071393315

     Writing output data file pwscf.save

     second order wave-functions extrapolation
     Check: negative starting charge=   -0.071169
     second order charge density extrapolation
     Check: negative starting charge=   -0.071148

     negative rho (up, down):  1.175E-03 0.000E+00

     total cpu time spent up to now is      197.3 secs

     per-process dynamical memory:    37.0 Mb

     Self-consistent Calculation

     iteration #  1     ecut=    60.00 Ry     beta=0.70
     Davidson diagonalization with overlap
     ethr =  1.00E-06,  avg # of iterations =  9.0

     negative rho (up, down):  2.617E-04 0.000E+00

     total cpu time spent up to now is      200.8 secs

     total energy              =     -33.73814676 Ry
     Harris-Foulkes estimate   =     -33.73812506 Ry
     estimated scf accuracy    <       0.00007662 Ry

     iteration #  2     ecut=    60.00 Ry     beta=0.70
     Davidson diagonalization with overlap
     ethr =  9.58E-07,  avg # of iterations =  5.0

     negative rho (up, down):  1.346E-04 0.000E+00

     total cpu time spent up to now is      203.6 secs

     total energy              =     -33.73815920 Ry
     Harris-Foulkes estimate   =     -33.73818987 Ry
     estimated scf accuracy    <       0.00005926 Ry

     iteration #  3     ecut=    60.00 Ry     beta=0.70
     Davidson diagonalization with overlap
     ethr =  7.41E-07,  avg # of iterations =  2.0

     negative rho (up, down):  1.635E-06 0.000E+00

     total cpu time spent up to now is      205.6 secs

     total energy              =     -33.73816947 Ry
     Harris-Foulkes estimate   =     -33.73817277 Ry
     estimated scf accuracy    <       0.00000143 Ry

     iteration #  4     ecut=    60.00 Ry     beta=0.70
     Davidson diagonalization with overlap
     ethr =  1.79E-08,  avg # of iterations =  3.0

     negative rho (up, down):  2.497E-08 0.000E+00

     total cpu time spent up to now is      207.9 secs

     total energy              =     -33.74224705 Ry
     Harris-Foulkes estimate   =     -33.74224728 Ry
     estimated scf accuracy    <       0.00000002 Ry

     iteration #  5     ecut=    60.00 Ry     beta=0.70
     Davidson diagonalization with overlap
     ethr =  2.88E-10,  avg # of iterations =  3.0

     total cpu time spent up to now is      209.8 secs

     End of self-consistent calculation

          k = 0.0000 0.0000 0.0000 ( 62669 PWs)   bands (ev):

   -25.4041 -12.8309  -9.2079  -7.0470  -0.9348   0.4129   0.7835   1.1087

     the Fermi energy is    -5.1794 ev

!    total energy              =     -33.74224684 Ry
     Harris-Foulkes estimate   =     -33.74224706 Ry
     estimated scf accuracy    <          1.2E-09 Ry

     convergence has been achieved in   5 iterations

     Forces acting on atoms (Ry/au):

     atom    1 type  2   force =     0.00137647    0.04096625    0.03785870
     atom    2 type  1   force =    -0.00033534   -0.00170864   -0.00266139
     atom    3 type  1   force =    -0.00104113   -0.03925761   -0.03519732

     Total force =     0.076842     Total SCF correction =     0.000673

     Entering Dynamics:    iteration =    10
                           time      =   0.0048 pico-seconds


     Andersen thermostat:    3 collisions

ATOMIC_POSITIONS (angstrom)
O        0.002053423  -0.000132773   0.121392197
H       -0.016179276   0.776029563  -0.505225318
H       -0.016350204  -0.773926236  -0.482614375


     kinetic energy (Ekin) =     0.01324863 Ry
     temperature           =   697.26347656 K 
     Ekin + Etot (const)   =   -33.72899821 Ry
     Message from routine dynamics:
     Total linear momentum <> 0

     Linear momentum :   -0.0201118943    0.0030148530    0.0451443804

     Writing output data file pwscf.save

     second order wave-functions extrapolation
     Check: negative starting charge=   -0.071148
     second order charge density extrapolation
     Check: negative starting charge=   -0.071161

     negative rho (up, down):  1.453E-03 0.000E+00

     total cpu time spent up to now is      223.8 secs

     per-process dynamical memory:    37.0 Mb

     Self-consistent Calculation

     iteration #  1     ecut=    60.00 Ry     beta=0.70
     Davidson diagonalization with overlap
     ethr =  1.00E-06,  avg # of iterations = 12.0

     negative rho (up, down):  3.319E-04 0.000E+00

     total cpu time spent up to now is      227.7 secs

     total energy              =     -33.73938310 Ry
     Harris-Foulkes estimate   =     -33.73931790 Ry
     estimated scf accuracy    <       0.00018256 Ry

     iteration #  2     ecut=    60.00 Ry     beta=0.70
     Davidson diagonalization with overlap
     ethr =  2.28E-06,  avg # of iterations =  6.0

     negative rho (up, down):  1.766E-04 0.000E+00

     total cpu time spent up to now is      230.6 secs

     total energy              =     -33.74348834 Ry
     Harris-Foulkes estimate   =     -33.74356398 Ry
     estimated scf accuracy    <       0.00014537 Ry

     iteration #  3     ecut=    60.00 Ry     beta=0.70
     Davidson diagonalization with overlap
     ethr =  1.82E-06,  avg # of iterations =  2.0

     negative rho (up, down):  2.654E-06 0.000E+00

     total cpu time spent up to now is      232.7 secs

     total energy              =     -33.73943961 Ry
     Harris-Foulkes estimate   =     -33.73944423 Ry
     estimated scf accuracy    <       0.00000344 Ry

     iteration #  4     ecut=    60.00 Ry     beta=0.70
     Davidson diagonalization with overlap
     ethr =  4.31E-08,  avg # of iterations = 17.0

     total cpu time spent up to now is      236.2 secs

     total energy              =     -33.74351802 Ry
     Harris-Foulkes estimate   =     -33.74351787 Ry
     estimated scf accuracy    <       0.00000004 Ry

     iteration #  5     ecut=    60.00 Ry     beta=0.70
     Davidson diagonalization with overlap
     ethr =  5.36E-10,  avg # of iterations =  2.0

     total cpu time spent up to now is      238.1 secs

     End of self-consistent calculation

          k = 0.0000 0.0000 0.0000 ( 62669 PWs)   bands (ev):

   -25.2681 -12.6773  -9.2217  -7.0248  -0.9726   0.4009   0.7573   1.1056

     the Fermi energy is    -5.1477 ev

!    total energy              =     -33.74351804 Ry
     Harris-Foulkes estimate   =     -33.74351803 Ry
     estimated scf accuracy    <          1.9E-09 Ry

     convergence has been achieved in   5 iterations

     Forces acting on atoms (Ry/au):

     atom    1 type  2   force =     0.00083403    0.01966530    0.00854677
     atom    2 type  1   force =    -0.00017744   -0.00815210    0.00360223
     atom    3 type  1   force =    -0.00065659   -0.01151319   -0.01214900

     Total force =     0.028645     Total SCF correction =     0.000423

     Entering Dynamics:    iteration =    11
                           time      =   0.0053 pico-seconds


     Andersen thermostat:    3 collisions

ATOMIC_POSITIONS (angstrom)
O        0.001489570  -0.000881063   0.121771023
H       -0.006229550   0.777184108  -0.510242049
H       -0.017367599  -0.763226678  -0.483598858


     kinetic energy (Ekin) =     0.00449150 Ry
     temperature           =   236.38383515 K 
     Ekin + Etot (const)   =   -33.73902653 Ry
     Message from routine dynamics:
     Total linear momentum <> 0

     Linear momentum :    0.0228673326   -0.0386563907    0.0784175636

     Writing output data file pwscf.save

     second order wave-functions extrapolation
     Check: negative starting charge=   -0.071161
     second order charge density extrapolation
     Check: negative starting charge=   -0.071169

     negative rho (up, down):  8.200E-04 0.000E+00

     total cpu time spent up to now is      251.7 secs

     per-process dynamical memory:    37.0 Mb

     Self-consistent Calculation

     iteration #  1     ecut=    60.00 Ry     beta=0.70
     Davidson diagonalization with overlap
     ethr =  1.00E-06,  avg # of iterations =  5.0

     negative rho (up, down):  1.720E-04 0.000E+00

     total cpu time spent up to now is      254.4 secs

     total energy              =     -33.73897456 Ry
     Harris-Foulkes estimate   =     -33.73898055 Ry
     estimated scf accuracy    <       0.00004028 Ry

     iteration #  2     ecut=    60.00 Ry     beta=0.70
     Davidson diagonalization with overlap
     ethr =  5.04E-07,  avg # of iterations =  4.0

     negative rho (up, down):  7.896E-05 0.000E+00

     total cpu time spent up to now is      256.9 secs

     total energy              =     -33.74305406 Ry
     Harris-Foulkes estimate   =     -33.74307051 Ry
     estimated scf accuracy    <       0.00002498 Ry

     iteration #  3     ecut=    60.00 Ry     beta=0.70
     Davidson diagonalization with overlap
     ethr =  3.12E-07,  avg # of iterations =  2.0

     negative rho (up, down):  9.674E-07 0.000E+00

     total cpu time spent up to now is      259.0 secs

     total energy              =     -33.74305861 Ry
     Harris-Foulkes estimate   =     -33.74306053 Ry
     estimated scf accuracy    <       0.00000142 Ry

     iteration #  4     ecut=    60.00 Ry     beta=0.70
     Davidson diagonalization with overlap
     ethr =  1.78E-08,  avg # of iterations =  2.0

     negative rho (up, down):  1.410E-08 0.000E+00

     total cpu time spent up to now is      261.2 secs

     total energy              =     -33.74305905 Ry
     Harris-Foulkes estimate   =     -33.74305895 Ry
     estimated scf accuracy    <       0.00000002 Ry

     iteration #  5     ecut=    60.00 Ry     beta=0.70
     Davidson diagonalization with overlap
     ethr =  2.80E-10,  avg # of iterations =  2.0

     total cpu time spent up to now is      263.1 secs

     End of self-consistent calculation

          k = 0.0000 0.0000 0.0000 ( 62669 PWs)   bands (ev):

   -25.2997 -12.6617  -9.2565  -7.0310  -0.9703   0.4006   0.7630   1.1060

     the Fermi energy is    -5.1553 ev

!    total energy              =     -33.74305907 Ry
     Harris-Foulkes estimate   =     -33.74305906 Ry
     estimated scf accuracy    <          1.1E-09 Ry

     convergence has been achieved in   5 iterations

     Forces acting on atoms (Ry/au):

     atom    1 type  2   force =     0.00109630    0.03628915    0.01018412
     atom    2 type  1   force =    -0.00019021   -0.01191814    0.00942183
     atom    3 type  1   force =    -0.00090609   -0.02437101   -0.01960595

     Total force =     0.051301     Total SCF correction =     0.000558

     Entering Dynamics:    iteration =    12
                           time      =   0.0058 pico-seconds


     Andersen thermostat:    3 collisions

ATOMIC_POSITIONS (angstrom)
O        0.000604523  -0.000838892   0.122202517
H        0.003632421   0.774762295  -0.511064412
H       -0.013209018  -0.761472910  -0.489612031


     kinetic energy (Ekin) =     0.00308054 Ry
     temperature           =   162.12623505 K 
     Ekin + Etot (const)   =   -33.73997853 Ry
     Message from routine dynamics:
     Total linear momentum <> 0

     Linear momentum :   -0.1131274250    0.0759821440   -0.0564967347

     Writing output data file pwscf.save

     second order wave-functions extrapolation
     Check: negative starting charge=   -0.071169
     second order charge density extrapolation
     Check: negative starting charge=   -0.071181

     negative rho (up, down):  6.481E-04 0.000E+00

     total cpu time spent up to now is      276.6 secs

     per-process dynamical memory:    37.0 Mb

     Self-consistent Calculation

     iteration #  1     ecut=    60.00 Ry     beta=0.70
     Davidson diagonalization with overlap
     ethr =  1.00E-06,  avg # of iterations =  4.0

     negative rho (up, down):  1.295E-04 0.000E+00

     total cpu time spent up to now is      279.4 secs

     total energy              =     -33.73913331 Ry
     Harris-Foulkes estimate   =     -33.73913795 Ry
     estimated scf accuracy    <       0.00002139 Ry

     iteration #  2     ecut=    60.00 Ry     beta=0.70
     Davidson diagonalization with overlap
     ethr =  2.67E-07,  avg # of iterations =  3.0

     negative rho (up, down):  4.463E-05 0.000E+00

     total cpu time spent up to now is      281.8 secs

     total energy              =     -33.74321102 Ry
     Harris-Foulkes estimate   =     -33.74321733 Ry
     estimated scf accuracy    <       0.00000764 Ry

     iteration #  3     ecut=    60.00 Ry     beta=0.70
     Davidson diagonalization with overlap
     ethr =  9.55E-08,  avg # of iterations =  2.0

     negative rho (up, down):  9.531E-07 0.000E+00

     total cpu time spent up to now is      283.9 secs

     total energy              =     -33.74321256 Ry
     Harris-Foulkes estimate   =     -33.74321362 Ry
     estimated scf accuracy    <       0.00000145 Ry

     iteration #  4     ecut=    60.00 Ry     beta=0.70
     Davidson diagonalization with overlap
     ethr =  1.81E-08,  avg # of iterations =  2.0

     negative rho (up, down):  1.179E-08 0.000E+00

     total cpu time spent up to now is      286.1 secs

     total energy              =     -33.74321307 Ry
     Harris-Foulkes estimate   =     -33.74321288 Ry
     estimated scf accuracy    <       0.00000002 Ry

     iteration #  5     ecut=    60.00 Ry     beta=0.70
     Davidson diagonalization with overlap
     ethr =  2.25E-10,  avg # of iterations =  2.0

     total cpu time spent up to now is      288.0 secs

     End of self-consistent calculation

          k = 0.0000 0.0000 0.0000 ( 62669 PWs)   bands (ev):

   -25.2990 -12.6313  -9.2802  -7.0319  -0.9727   0.3999   0.7625   1.1056

     the Fermi energy is    -5.1554 ev

!    total energy              =     -33.74321303 Ry
     Harris-Foulkes estimate   =     -33.74321308 Ry
     estimated scf accuracy    <          7.6E-10 Ry

     convergence has been achieved in   5 iterations

     Forces acting on atoms (Ry/au):

     atom    1 type  2   force =     0.00083196    0.03091336    0.00707895
     atom    2 type  1   force =    -0.00023290   -0.00912578    0.00905084
     atom    3 type  1   force =    -0.00059905   -0.02178758   -0.01612979

     Total force =     0.043668     Total SCF correction =     0.000466

     Entering Dynamics:    iteration =    13
                           time      =   0.0063 pico-seconds


     Andersen thermostat:    3 collisions

ATOMIC_POSITIONS (angstrom)
O        0.000922095  -0.001323195   0.121685233
H       -0.001851129   0.792968885  -0.503029083
H       -0.012756317  -0.772007379  -0.489452769


     kinetic energy (Ekin) =     0.00972837 Ry
     temperature           =   511.99546978 K 
     Ekin + Etot (const)   =   -33.73348466 Ry
     Message from routine dynamics:
     Total linear momentum <> 0

     Linear momentum :    0.1041818840    0.1182520250    0.2093525450

     Writing output data file pwscf.save

     second order wave-functions extrapolation
     Check: negative starting charge=   -0.071181
     second order charge density extrapolation
     Check: negative starting charge=   -0.071139

     negative rho (up, down):  9.537E-04 0.000E+00

     total cpu time spent up to now is      301.8 secs

     per-process dynamical memory:    37.0 Mb

     Self-consistent Calculation

     iteration #  1     ecut=    60.00 Ry     beta=0.70
     Davidson diagonalization with overlap
     ethr =  1.00E-06,  avg # of iterations =  4.0

     negative rho (up, down):  2.078E-04 0.000E+00

     total cpu time spent up to now is      304.9 secs

     total energy              =     -33.73897941 Ry
     Harris-Foulkes estimate   =     -33.73901194 Ry
     estimated scf accuracy    <       0.00012410 Ry

     iteration #  2     ecut=    60.00 Ry     beta=0.70
     Davidson diagonalization with overlap
     ethr =  1.55E-06,  avg # of iterations =  4.0

     negative rho (up, down):  1.040E-04 0.000E+00

     total cpu time spent up to now is      307.4 secs

     total energy              =     -33.74307406 Ry
     Harris-Foulkes estimate   =     -33.74312406 Ry
     estimated scf accuracy    <       0.00009177 Ry

     iteration #  3     ecut=    60.00 Ry     beta=0.70
     Davidson diagonalization with overlap
     ethr =  1.15E-06,  avg # of iterations =  2.0

     negative rho (up, down):  3.756E-06 0.000E+00

     total cpu time spent up to now is      309.5 secs

     total energy              =     -33.74309329 Ry
     Harris-Foulkes estimate   =     -33.74309601 Ry
     estimated scf accuracy    <       0.00000275 Ry

     iteration #  4     ecut=    60.00 Ry     beta=0.70
     Davidson diagonalization with overlap
     ethr =  3.44E-08,  avg # of iterations =  2.0

     negative rho (up, down):  2.068E-08 0.000E+00

     total cpu time spent up to now is      311.7 secs

     total energy              =     -33.74309372 Ry
     Harris-Foulkes estimate   =     -33.74309388 Ry
     estimated scf accuracy    <       0.00000004 Ry

     iteration #  5     ecut=    60.00 Ry     beta=0.70
     Davidson diagonalization with overlap
     ethr =  5.55E-10,  avg # of iterations =  2.0

     total cpu time spent up to now is      313.6 secs

     End of self-consistent calculation

          k = 0.0000 0.0000 0.0000 ( 62669 PWs)   bands (ev):

   -25.1882 -12.6269  -9.1950  -7.0099  -0.9958   0.3931   0.7405   1.1045

     the Fermi energy is    -5.1285 ev

!    total energy              =     -33.74309368 Ry
     Harris-Foulkes estimate   =     -33.74309374 Ry
     estimated scf accuracy    <          2.0E-09 Ry

     convergence has been achieved in   5 iterations

     Forces acting on atoms (Ry/au):

     atom    1 type  2   force =     0.00063490    0.03195998   -0.00170202
     atom    2 type  1   force =    -0.00020352   -0.02394642    0.01346791
     atom    3 type  1   force =    -0.00043137   -0.00801356   -0.01176589

     Total force =     0.044525     Total SCF correction =     0.000507

     Entering Dynamics:    iteration =    14
                           time      =   0.0068 pico-seconds


     Andersen thermostat:    3 collisions

ATOMIC_POSITIONS (angstrom)
O        0.001097884  -0.001004308   0.121816839
H       -0.009139377   0.795248763  -0.504038036
H       -0.008252841  -0.779338932  -0.490528654


     kinetic energy (Ekin) =     0.00297227 Ry
     temperature           =   156.42770544 K 
     Ekin + Etot (const)   =   -33.74012141 Ry
     Message from routine dynamics:
     Total linear momentum <> 0

     Linear momentum :    0.0115231693    0.1913542641    0.1496802480

     Writing output data file pwscf.save

     second order wave-functions extrapolation
     Check: negative starting charge=   -0.071139
     second order charge density extrapolation
     Check: negative starting charge=   -0.071129

     negative rho (up, down):  4.693E-04 0.000E+00

     total cpu time spent up to now is      327.6 secs

     per-process dynamical memory:    37.0 Mb

     Self-consistent Calculation

     iteration #  1     ecut=    60.00 Ry     beta=0.70
     Davidson diagonalization with overlap
     ethr =  1.00E-06,  avg # of iterations =  3.0

     negative rho (up, down):  8.707E-05 0.000E+00

     total cpu time spent up to now is      330.2 secs

     total energy              =     -33.73894744 Ry
     Harris-Foulkes estimate   =     -33.73896278 Ry
     estimated scf accuracy    <       0.00002373 Ry

     iteration #  2     ecut=    60.00 Ry     beta=0.70
     Davidson diagonalization with overlap
     ethr =  2.97E-07,  avg # of iterations =  2.0

     negative rho (up, down):  3.917E-05 0.000E+00

     total cpu time spent up to now is      332.4 secs

     total energy              =     -33.74302697 Ry
     Harris-Foulkes estimate   =     -33.74303788 Ry
     estimated scf accuracy    <       0.00001813 Ry

     iteration #  3     ecut=    60.00 Ry     beta=0.70
     Davidson diagonalization with overlap
     ethr =  2.27E-07,  avg # of iterations =  2.0

     negative rho (up, down):  2.299E-07 0.000E+00

     total cpu time spent up to now is      334.5 secs

     total energy              =     -33.74303076 Ry
     Harris-Foulkes estimate   =     -33.74303125 Ry
     estimated scf accuracy    <       0.00000057 Ry

     iteration #  4     ecut=    60.00 Ry     beta=0.70
     Davidson diagonalization with overlap
     ethr =  7.17E-09,  avg # of iterations =  2.0

     total cpu time spent up to now is      336.7 secs

     total energy              =     -33.74303091 Ry
     Harris-Foulkes estimate   =     -33.74303091 Ry
     estimated scf accuracy    <       0.00000001 Ry

     iteration #  5     ecut=    60.00 Ry     beta=0.70
     Davidson diagonalization with overlap
     ethr =  1.30E-10,  avg # of iterations =  2.0

     total cpu time spent up to now is      338.4 secs

     End of self-consistent calculation

          k = 0.0000 0.0000 0.0000 ( 62669 PWs)   bands (ev):

   -25.1371 -12.5985  -9.1766  -7.0005  -1.0089   0.3894   0.7293   1.1037

     the Fermi energy is    -5.1163 ev

!    total energy              =     -33.74303090 Ry
     Harris-Foulkes estimate   =     -33.74303092 Ry
     estimated scf accuracy    <          4.9E-10 Ry

     convergence has been achieved in   5 iterations

     Forces acting on atoms (Ry/au):

     atom    1 type  2   force =     0.00025130    0.02544204   -0.00878971
     atom    2 type  1   force =     0.00004575   -0.02690550    0.01460604
     atom    3 type  1   force =    -0.00029705    0.00146346   -0.00581633

     Total force =     0.041206     Total SCF correction =     0.000338

     Entering Dynamics:    iteration =    15
                           time      =   0.0073 pico-seconds


     Andersen thermostat:    3 collisions

ATOMIC_POSITIONS (angstrom)
O        0.001572594  -0.002162774   0.122526596
H       -0.008768993   0.810102600  -0.507755524
H       -0.016143381  -0.775840834  -0.498054843


     kinetic energy (Ekin) =     0.00814073 Ry
     temperature           =   428.43940215 K 
     Ekin + Etot (const)   =   -33.73489017 Ry
     Message from routine dynamics:
     Total linear momentum <> 0

     Linear momentum :   -0.1312448091   -0.2768714071    0.0392113180

     Writing output data file pwscf.save

     second order wave-functions extrapolation
     Check: negative starting charge=   -0.071129
     second order charge density extrapolation
     Check: negative starting charge=   -0.071096

     negative rho (up, down):  1.233E-03 0.000E+00

     total cpu time spent up to now is      351.3 secs

     per-process dynamical memory:    37.0 Mb

     Self-consistent Calculation

     iteration #  1     ecut=    60.00 Ry     beta=0.70
     Davidson diagonalization with overlap
     c_bands:  1 eigenvalues not converged
     ethr =  1.00E-06,  avg # of iterations = 20.0

     negative rho (up, down):  2.766E-04 0.000E+00

     total cpu time spent up to now is      356.1 secs

     total energy              =     -33.73777469 Ry
     Harris-Foulkes estimate   =     -33.73776569 Ry
     estimated scf accuracy    <       0.00011661 Ry

     iteration #  2     ecut=    60.00 Ry     beta=0.70
     Davidson diagonalization with overlap
     ethr =  1.46E-06,  avg # of iterations =  5.0

     negative rho (up, down):  1.522E-04 0.000E+00

     total cpu time spent up to now is      359.0 secs

     total energy              =     -33.74187050 Ry
     Harris-Foulkes estimate   =     -33.74193039 Ry
     estimated scf accuracy    <       0.00011601 Ry

     iteration #  3     ecut=    60.00 Ry     beta=0.70
     Davidson diagonalization with overlap
     ethr =  1.45E-06,  avg # of iterations =  2.0

     negative rho (up, down):  1.369E-06 0.000E+00

     total cpu time spent up to now is      361.0 secs

     total energy              =     -33.74188964 Ry
     Harris-Foulkes estimate   =     -33.74189510 Ry
     estimated scf accuracy    <       0.00000129 Ry

     iteration #  4     ecut=    60.00 Ry     beta=0.70
     Davidson diagonalization with overlap
     ethr =  1.61E-08,  avg # of iterations =  2.0

     negative rho (up, down):  4.182E-08 0.000E+00

     total cpu time spent up to now is      363.2 secs

     total energy              =     -33.74188993 Ry
     Harris-Foulkes estimate   =     -33.74189008 Ry
     estimated scf accuracy    <       0.00000003 Ry

     iteration #  5     ecut=    60.00 Ry     beta=0.70
     Davidson diagonalization with overlap
     ethr =  3.50E-10,  avg # of iterations =  2.0

     total cpu time spent up to now is      365.0 secs

     End of self-consistent calculation

          k = 0.0000 0.0000 0.0000 ( 62669 PWs)   bands (ev):

   -25.0582 -12.5162  -9.1741  -6.9865  -1.0389   0.3789   0.7101   1.1102

     the Fermi energy is    -5.0917 ev

!    total energy              =     -33.74188984 Ry
     Harris-Foulkes estimate   =     -33.74188994 Ry
     estimated scf accuracy    <          1.8E-09 Ry

     convergence has been achieved in   5 iterations

     Forces acting on atoms (Ry/au):

     atom    1 type  2   force =     0.00000034    0.03939132   -0.02174308
     atom    2 type  1   force =     0.00024014   -0.04252629    0.02631573
     atom    3 type  1   force =    -0.00024048    0.00313497   -0.00457265

     Total force =     0.067500     Total SCF correction =     0.000845

     Entering Dynamics:    iteration =    16
                           time      =   0.0077 pico-seconds


     Andersen thermostat:    3 collisions

ATOMIC_POSITIONS (angstrom)
O        0.001802434  -0.002898916   0.123151152
H       -0.012506146   0.811501509  -0.515935358
H       -0.016047262  -0.765578081  -0.499768972


     kinetic energy (Ekin) =     0.00435720 Ry
     temperature           =   229.31534609 K 
     Ekin + Etot (const)   =   -33.73753264 Ry
     Message from routine dynamics:
     Total linear momentum <> 0

     Linear momentum :    0.1453050766    0.1217028921    0.1353656351

     Writing output data file pwscf.save

     second order wave-functions extrapolation
     Check: negative starting charge=   -0.071096
     second order charge density extrapolation
     Check: negative starting charge=   -0.071093

     negative rho (up, down):  5.584E-04 0.000E+00

     total cpu time spent up to now is      379.2 secs

     per-process dynamical memory:    37.0 Mb

     Self-consistent Calculation

     iteration #  1     ecut=    60.00 Ry     beta=0.70
     Davidson diagonalization with overlap
     ethr =  1.00E-06,  avg # of iterations =  3.0

     negative rho (up, down):  1.077E-04 0.000E+00

     total cpu time spent up to now is      381.8 secs

     total energy              =     -33.73710507 Ry
     Harris-Foulkes estimate   =     -33.73711000 Ry
     estimated scf accuracy    <       0.00001930 Ry

     iteration #  2     ecut=    60.00 Ry     beta=0.70
     Davidson diagonalization with overlap
     ethr =  2.41E-07,  avg # of iterations =  3.0

     negative rho (up, down):  1.694E-05 0.000E+00

     total cpu time spent up to now is      384.0 secs

     total energy              =     -33.74118252 Ry
     Harris-Foulkes estimate   =     -33.74118578 Ry
     estimated scf accuracy    <       0.00000292 Ry

     iteration #  3     ecut=    60.00 Ry     beta=0.70
     Davidson diagonalization with overlap
     ethr =  3.65E-08,  avg # of iterations =  2.0

     negative rho (up, down):  6.139E-07 0.000E+00

     total cpu time spent up to now is      386.1 secs

     total energy              =     -33.74118286 Ry
     Harris-Foulkes estimate   =     -33.74118382 Ry
     estimated scf accuracy    <       0.00000165 Ry

     iteration #  4     ecut=    60.00 Ry     beta=0.70
     Davidson diagonalization with overlap
     ethr =  2.06E-08,  avg # of iterations =  2.0

     total cpu time spent up to now is      388.2 secs

     total energy              =     -33.74118333 Ry
     Harris-Foulkes estimate   =     -33.74118325 Ry
     estimated scf accuracy    <       0.00000004 Ry

     iteration #  5     ecut=    60.00 Ry     beta=0.70
     Davidson diagonalization with overlap
     ethr =  4.92E-10,  avg # of iterations =  2.0

     total cpu time spent up to now is      390.1 secs

     End of self-consistent calculation

          k = 0.0000 0.0000 0.0000 ( 62669 PWs)   bands (ev):

   -25.0767 -12.4775  -9.2155  -6.9906  -1.0437   0.3750   0.7134   1.1124

     the Fermi energy is    -5.0947 ev

!    total energy              =     -33.74118329 Ry
     Harris-Foulkes estimate   =     -33.74118334 Ry
     estimated scf accuracy    <          8.5E-10 Ry

     convergence has been achieved in   5 iterations

     Forces acting on atoms (Ry/au):

     atom    1 type  2   force =    -0.00007125    0.05467553   -0.02279274
     atom    2 type  1   force =     0.00055023   -0.04701944    0.03317956
     atom    3 type  1   force =    -0.00047898   -0.00765609   -0.01038682

     Total force =     0.083592     Total SCF correction =     0.000323

     Entering Dynamics:    iteration =    17
                           time      =   0.0082 pico-seconds


     Andersen thermostat:    3 collisions

ATOMIC_POSITIONS (angstrom)
O        0.002608025  -0.002956309   0.122495586
H       -0.024029473   0.817509457  -0.505711638
H       -0.017285769  -0.770676844  -0.499607481


     kinetic energy (Ekin) =     0.00552639 Ry
     temperature           =   290.84910335 K 
     Ekin + Etot (const)   =   -33.73565690 Ry
     Message from routine dynamics:
     Total linear momentum <> 0

     Linear momentum :    0.1272026619    0.0160563600   -0.1079430155

     Writing output data file pwscf.save

     second order wave-functions extrapolation
     Check: negative starting charge=   -0.071093
     second order charge density extrapolation
     Check: negative starting charge=   -0.071078

     negative rho (up, down):  8.794E-04 0.000E+00

     total cpu time spent up to now is      404.4 secs

     per-process dynamical memory:    37.0 Mb

     Self-consistent Calculation

     iteration #  1     ecut=    60.00 Ry     beta=0.70
     Davidson diagonalization with overlap
     ethr =  1.00E-06,  avg # of iterations =  5.0

     negative rho (up, down):  1.866E-04 0.000E+00

     total cpu time spent up to now is      407.4 secs

     total energy              =     -33.73722777 Ry
     Harris-Foulkes estimate   =     -33.73720318 Ry
     estimated scf accuracy    <       0.00001909 Ry

     iteration #  2     ecut=    60.00 Ry     beta=0.70
     Davidson diagonalization with overlap
     ethr =  2.39E-07,  avg # of iterations =  3.0

     negative rho (up, down):  6.967E-05 0.000E+00

     total cpu time spent up to now is      409.6 secs

     total energy              =     -33.74130471 Ry
     Harris-Foulkes estimate   =     -33.74131100 Ry
     estimated scf accuracy    <       0.00000784 Ry

     iteration #  3     ecut=    60.00 Ry     beta=0.70
     Davidson diagonalization with overlap
     ethr =  9.80E-08,  avg # of iterations =  2.0

     negative rho (up, down):  1.167E-08 0.000E+00

     total cpu time spent up to now is      411.6 secs

     total energy              =     -33.74130462 Ry
     Harris-Foulkes estimate   =     -33.74130735 Ry
     estimated scf accuracy    <       0.00000162 Ry

     iteration #  4     ecut=    60.00 Ry     beta=0.70
     Davidson diagonalization with overlap
     ethr =  2.03E-08,  avg # of iterations =  2.0

     total cpu time spent up to now is      413.4 secs

     End of self-consistent calculation

          k = 0.0000 0.0000 0.0000 ( 62669 PWs)   bands (ev):

   -25.0514 -12.5107  -9.1694  -6.9846  -1.0442   0.3760   0.7086   1.1129

     the Fermi energy is    -5.0881 ev

!    total energy              =     -33.74130469 Ry
     Harris-Foulkes estimate   =     -33.74130495 Ry
     estimated scf accuracy    <          5.7E-09 Ry

     convergence has been achieved in   4 iterations

     Forces acting on atoms (Ry/au):

     atom    1 type  2   force =    -0.00060246    0.04910666   -0.02094714
     atom    2 type  1   force =     0.00111926   -0.04806661    0.02963474
     atom    3 type  1   force =    -0.00051680   -0.00104005   -0.00868760

     Total force =     0.078213     Total SCF correction =     0.000708

     Entering Dynamics:    iteration =    18
                           time      =   0.0087 pico-seconds


     Andersen thermostat:    3 collisions

ATOMIC_POSITIONS (angstrom)
O        0.003019710  -0.001805443   0.124518358
H       -0.031366944   0.822624281  -0.527823639
H       -0.016470049  -0.794023202  -0.509539398


     kinetic energy (Ekin) =     0.02234463 Ry
     temperature           =  1175.97799574 K 
     Ekin + Etot (const)   =   -33.71896006 Ry
     Message from routine dynamics:
     Total linear momentum <> 0

     Linear momentum :    0.0521424317   -0.0984282462    0.0247356601

     Writing output data file pwscf.save

     second order wave-functions extrapolation
     Check: negative starting charge=   -0.071078
     second order charge density extrapolation
     Check: negative starting charge=   -0.070996

     negative rho (up, down):  2.384E-03 0.000E+00

     total cpu time spent up to now is      426.5 secs

     per-process dynamical memory:    37.0 Mb

     Self-consistent Calculation

     iteration #  1     ecut=    60.00 Ry     beta=0.70
     Davidson diagonalization with overlap
     ethr =  1.00E-06,  avg # of iterations = 13.0

     negative rho (up, down):  5.739E-04 0.000E+00

     total cpu time spent up to now is      431.0 secs

     total energy              =     -33.73395827 Ry
     Harris-Foulkes estimate   =     -33.73371043 Ry
     estimated scf accuracy    <       0.00102077 Ry

     iteration #  2     ecut=    60.00 Ry     beta=0.70
     Davidson diagonalization with overlap
     ethr =  1.28E-05,  avg # of iterations =  5.0

     negative rho (up, down):  3.424E-04 0.000E+00

     total cpu time spent up to now is      433.8 secs

     total energy              =     -33.73823106 Ry
     Harris-Foulkes estimate   =     -33.73878203 Ry
     estimated scf accuracy    <       0.00116194 Ry

     iteration #  3     ecut=    60.00 Ry     beta=0.70
     Davidson diagonalization with overlap
     ethr =  1.28E-05,  avg # of iterations =  2.0

     negative rho (up, down):  1.564E-05 0.000E+00

     total cpu time spent up to now is      435.8 secs

     total energy              =     -33.73845682 Ry
     Harris-Foulkes estimate   =     -33.73846706 Ry
     estimated scf accuracy    <       0.00000694 Ry

     iteration #  4     ecut=    60.00 Ry     beta=0.70
     Davidson diagonalization with overlap
     ethr =  8.67E-08,  avg # of iterations =  8.0

     negative rho (up, down):  4.048E-07 0.000E+00

     total cpu time spent up to now is      438.6 secs

     total energy              =     -33.73845826 Ry
     Harris-Foulkes estimate   =     -33.73845900 Ry
     estimated scf accuracy    <       0.00000014 Ry

     iteration #  5     ecut=    60.00 Ry     beta=0.70
     Davidson diagonalization with overlap
     ethr =  1.78E-09,  avg # of iterations =  2.0

     total cpu time spent up to now is      440.4 secs

     End of self-consistent calculation

          k = 0.0000 0.0000 0.0000 ( 62669 PWs)   bands (ev):

   -24.8391 -12.2967  -9.1678  -6.9488  -1.1196   0.3557   0.6475   1.1079

     the Fermi energy is    -5.0387 ev

!    total energy              =     -33.73845813 Ry
     Harris-Foulkes estimate   =     -33.73845829 Ry
     estimated scf accuracy    <          7.4E-09 Ry

     convergence has been achieved in   5 iterations

     Forces acting on atoms (Ry/au):

     atom    1 type  2   force =    -0.00235295    0.03400530   -0.05770609
     atom    2 type  1   force =     0.00215378   -0.06263649    0.04257980
     atom    3 type  1   force =     0.00019917    0.02863120    0.01512629

     Total force =     0.106214     Total SCF correction =     0.001765

     Entering Dynamics:    iteration =    19
                           time      =   0.0092 pico-seconds


     Andersen thermostat:    3 collisions

ATOMIC_POSITIONS (angstrom)
O        0.002082607  -0.001227571   0.124390106
H       -0.018252897   0.811734804  -0.533250972
H       -0.014738904  -0.792288132  -0.502080348


     kinetic energy (Ekin) =     0.00711494 Ry
     temperature           =   374.45269924 K 
     Ekin + Etot (const)   =   -33.73134320 Ry
     Message from routine dynamics:
     Total linear momentum <> 0

     Linear momentum :   -0.1687413375   -0.2191880687    0.1026314571

     Writing output data file pwscf.save

     second order wave-functions extrapolation
     Check: negative starting charge=   -0.070996
     second order charge density extrapolation
     Check: negative starting charge=   -0.071037

     negative rho (up, down):  7.267E-04 0.000E+00

     total cpu time spent up to now is      454.5 secs

     per-process dynamical memory:    37.0 Mb

     Self-consistent Calculation

     iteration #  1     ecut=    60.00 Ry     beta=0.70
     Davidson diagonalization with overlap
     ethr =  1.00E-06,  avg # of iterations =  4.0

     negative rho (up, down):  1.488E-04 0.000E+00

     total cpu time spent up to now is      457.6 secs

     total energy              =     -33.73962217 Ry
     Harris-Foulkes estimate   =     -33.73962608 Ry
     estimated scf accuracy    <       0.00001756 Ry

     iteration #  2     ecut=    60.00 Ry     beta=0.70
     Davidson diagonalization with overlap
     ethr =  2.19E-07,  avg # of iterations =  3.0

     negative rho (up, down):  7.045E-05 0.000E+00

     total cpu time spent up to now is      459.9 secs

     total energy              =     -33.73962452 Ry
     Harris-Foulkes estimate   =     -33.73963129 Ry
     estimated scf accuracy    <       0.00001294 Ry

     iteration #  3     ecut=    60.00 Ry     beta=0.70
     Davidson diagonalization with overlap
     ethr =  1.62E-07,  avg # of iterations =  2.0

     negative rho (up, down):  4.751E-07 0.000E+00

     total cpu time spent up to now is      461.9 secs

     total energy              =     -33.73962692 Ry
     Harris-Foulkes estimate   =     -33.73962776 Ry
     estimated scf accuracy    <       0.00000063 Ry

     iteration #  4     ecut=    60.00 Ry     beta=0.70
     Davidson diagonalization with overlap
     ethr =  7.94E-09,  avg # of iterations =  2.0

     total cpu time spent up to now is      464.0 secs

     total energy              =     -33.73962712 Ry
     Harris-Foulkes estimate   =     -33.73962711 Ry
     estimated scf accuracy    <       0.00000001 Ry

     iteration #  5     ecut=    60.00 Ry     beta=0.70
     Davidson diagonalization with overlap
     ethr =  1.30E-10,  avg # of iterations =  2.0

     total cpu time spent up to now is      465.8 secs

     End of self-consistent calculation

          k = 0.0000 0.0000 0.0000 ( 62669 PWs)   bands (ev):

   -24.8989 -12.3310  -9.1905  -6.9599  -1.0986   0.3612   0.6655   1.1084

     the Fermi energy is    -5.0533 ev

!    total energy              =     -33.73962710 Ry
     Harris-Foulkes estimate   =     -33.73962712 Ry
     estimated scf accuracy    <          4.4E-10 Ry

     convergence has been achieved in   5 iterations

     Forces acting on atoms (Ry/au):

     atom    1 type  2   force =    -0.00110583    0.03483055   -0.05019743
     atom    2 type  1   force =     0.00103443   -0.05639509    0.03954961
     atom    3 type  1   force =     0.00007140    0.02156454    0.01064782

     Total force =     0.095175     Total SCF correction =     0.000316

     Entering Dynamics:    iteration =    20
                           time      =   0.0097 pico-seconds


     Andersen thermostat:    3 collisions

ATOMIC_POSITIONS (angstrom)
O        0.001057211  -0.000059194   0.124267349
H       -0.006070166   0.795312927  -0.532502107
H       -0.010677725  -0.794375195  -0.500884558


     kinetic energy (Ekin) =     0.00719520 Ry
     temperature           =   378.67716694 K 
     Ekin + Etot (const)   =   -33.73243189 Ry
     Message from routine dynamics:
     Total linear momentum <> 0

     Linear momentum :    0.0495060279   -0.0973094855   -0.0442519849

     Writing output data file pwscf.save

     second order wave-functions extrapolation
     Check: negative starting charge=   -0.071037
     second order charge density extrapolation
     Check: negative starting charge=   -0.071093

     negative rho (up, down):  5.972E-04 0.000E+00

     total cpu time spent up to now is      479.7 secs

     per-process dynamical memory:    37.0 Mb

     Self-consistent Calculation

     iteration #  1     ecut=    60.00 Ry     beta=0.70
     Davidson diagonalization with overlap
     ethr =  1.00E-06,  avg # of iterations =  4.0

     negative rho (up, down):  1.177E-04 0.000E+00

     total cpu time spent up to now is      482.4 secs

     total energy              =     -33.74124288 Ry
     Harris-Foulkes estimate   =     -33.74124841 Ry
     estimated scf accuracy    <       0.00002394 Ry

     iteration #  2     ecut=    60.00 Ry     beta=0.70
     Davidson diagonalization with overlap
     ethr =  2.99E-07,  avg # of iterations =  3.0

     negative rho (up, down):  1.083E-05 0.000E+00

     total cpu time spent up to now is      484.7 secs

     total energy              =     -33.74124420 Ry
     Harris-Foulkes estimate   =     -33.74124604 Ry
     estimated scf accuracy    <       0.00000208 Ry

     iteration #  3     ecut=    60.00 Ry     beta=0.70
     Davidson diagonalization with overlap
     ethr =  2.60E-08,  avg # of iterations =  2.0

     negative rho (up, down):  4.612E-07 0.000E+00

     total cpu time spent up to now is      486.8 secs

     total energy              =     -33.74124440 Ry
     Harris-Foulkes estimate   =     -33.74124475 Ry
     estimated scf accuracy    <       0.00000052 Ry

     iteration #  4     ecut=    60.00 Ry     beta=0.70
     Davidson diagonalization with overlap
     ethr =  6.52E-09,  avg # of iterations =  2.0

     negative rho (up, down):  2.372E-08 0.000E+00

     total cpu time spent up to now is      489.0 secs

     total energy              =     -33.74124474 Ry
     Harris-Foulkes estimate   =     -33.74124459 Ry
     estimated scf accuracy    <       0.00000011 Ry

     iteration #  5     ecut=    60.00 Ry     beta=0.70
     Davidson diagonalization with overlap
     ethr =  1.32E-09,  avg # of iterations =  2.0

     total cpu time spent up to now is      490.9 secs

     End of self-consistent calculation

          k = 0.0000 0.0000 0.0000 ( 62669 PWs)   bands (ev):

   -24.9620 -12.3660  -9.2192  -6.9726  -1.0740   0.3700   0.6824   1.1088

     the Fermi energy is    -5.0687 ev

!    total energy              =     -33.74124475 Ry
     Harris-Foulkes estimate   =     -33.74124476 Ry
     estimated scf accuracy    <          8.8E-10 Ry

     convergence has been achieved in   5 iterations

     Forces acting on atoms (Ry/au):

     atom    1 type  2   force =    -0.00029651    0.01971466   -0.04423391
     atom    2 type  1   force =     0.00017369   -0.04199912    0.03082703
     atom    3 type  1   force =     0.00012282    0.02228446    0.01340688

     Total force =     0.075736     Total SCF correction =     0.000542

     Entering Dynamics:    iteration =    21
                           time      =   0.0102 pico-seconds


     Andersen thermostat:    3 collisions

ATOMIC_POSITIONS (angstrom)
O        0.001988492   0.000206300   0.123907960
H       -0.006197572   0.792610429  -0.523112011
H       -0.025303290  -0.795878549  -0.504581354


     kinetic energy (Ekin) =     0.00672128 Ry
     temperature           =   353.73496518 K 
     Ekin + Etot (const)   =   -33.73452347 Ry
     Message from routine dynamics:
     Total linear momentum <> 0

     Linear momentum :    0.1816173469   -0.2735726934   -0.0673810952

     Writing output data file pwscf.save

     second order wave-functions extrapolation
     Check: negative starting charge=   -0.071093
     second order charge density extrapolation
     Check: negative starting charge=   -0.071104

     negative rho (up, down):  8.492E-04 0.000E+00

     total cpu time spent up to now is      504.2 secs

     per-process dynamical memory:    37.0 Mb

     Self-consistent Calculation

     iteration #  1     ecut=    60.00 Ry     beta=0.70
     Davidson diagonalization with overlap
     c_bands:  1 eigenvalues not converged
     ethr =  1.00E-06,  avg # of iterations = 20.0

     negative rho (up, down):  1.786E-04 0.000E+00

     total cpu time spent up to now is      508.4 secs

     total energy              =     -33.73769684 Ry
     Harris-Foulkes estimate   =     -33.73768267 Ry
     estimated scf accuracy    <       0.00003607 Ry

     iteration #  2     ecut=    60.00 Ry     beta=0.70
     Davidson diagonalization with overlap
     ethr =  4.51E-07,  avg # of iterations =  3.0

     negative rho (up, down):  8.272E-05 0.000E+00

     total cpu time spent up to now is      510.7 secs

     total energy              =     -33.74177707 Ry
     Harris-Foulkes estimate   =     -33.74178980 Ry
     estimated scf accuracy    <       0.00002327 Ry

     iteration #  3     ecut=    60.00 Ry     beta=0.70
     Davidson diagonalization with overlap
     ethr =  2.91E-07,  avg # of iterations =  2.0

     negative rho (up, down):  4.321E-08 0.000E+00

     total cpu time spent up to now is      512.8 secs

     total energy              =     -33.74178041 Ry
     Harris-Foulkes estimate   =     -33.74178328 Ry
     estimated scf accuracy    <       0.00000179 Ry

     iteration #  4     ecut=    60.00 Ry     beta=0.70
     Davidson diagonalization with overlap
     ethr =  2.24E-08,  avg # of iterations =  2.0

     total cpu time spent up to now is      515.0 secs

     total energy              =     -33.74178084 Ry
     Harris-Foulkes estimate   =     -33.74178077 Ry
     estimated scf accuracy    <       0.00000001 Ry

     iteration #  5     ecut=    60.00 Ry     beta=0.70
     Davidson diagonalization with overlap
     ethr =  1.56E-10,  avg # of iterations =  3.0

     total cpu time spent up to now is      517.0 secs

     End of self-consistent calculation

          k = 0.0000 0.0000 0.0000 ( 62669 PWs)   bands (ev):

   -24.9800 -12.3957  -9.2113  -6.9754  -1.0645   0.3734   0.6880   1.1009

     the Fermi energy is    -5.0792 ev

!    total energy              =     -33.74178088 Ry
     Harris-Foulkes estimate   =     -33.74178085 Ry
     estimated scf accuracy    <          1.4E-09 Ry

     convergence has been achieved in   5 iterations

     Forces acting on atoms (Ry/au):

     atom    1 type  2   force =    -0.00069576    0.00818468   -0.04022693
     atom    2 type  1   force =     0.00006975   -0.03471083    0.02380404
     atom    3 type  1   force =     0.00062601    0.02652615    0.01642289

     Total force =     0.066565     Total SCF correction =     0.000251

     Entering Dynamics:    iteration =    22
                           time      =   0.0106 pico-seconds


     Andersen thermostat:    3 collisions

ATOMIC_POSITIONS (angstrom)
O        0.001892164  -0.000704341   0.123580594
H       -0.010408855   0.792759222  -0.519966327
H       -0.019566025  -0.781601344  -0.502541043


     kinetic energy (Ekin) =     0.00550668 Ry
     temperature           =   289.81187500 K 
     Ekin + Etot (const)   =   -33.73627419 Ry
     Message from routine dynamics:
     Total linear momentum <> 0

     Linear momentum :    0.2066338551    0.0706645015   -0.2381220793

     Writing output data file pwscf.save

     second order wave-functions extrapolation
     Check: negative starting charge=   -0.071104
     second order charge density extrapolation
     Check: negative starting charge=   -0.071132

     negative rho (up, down):  7.553E-04 0.000E+00

     total cpu time spent up to now is      530.5 secs

     per-process dynamical memory:    37.0 Mb

     Self-consistent Calculation

     iteration #  1     ecut=    60.00 Ry     beta=0.70
     Davidson diagonalization with overlap
     ethr =  1.00E-06,  avg # of iterations =  5.0

     negative rho (up, down):  1.552E-04 0.000E+00

     total cpu time spent up to now is      533.4 secs

     total energy              =     -33.74240544 Ry
     Harris-Foulkes estimate   =     -33.74249552 Ry
     estimated scf accuracy    <       0.00015508 Ry

     iteration #  2     ecut=    60.00 Ry     beta=0.70
     Davidson diagonalization with overlap
     ethr =  1.94E-06,  avg # of iterations =  2.0

     negative rho (up, down):  7.958E-05 0.000E+00

     total cpu time spent up to now is      535.6 secs

     total energy              =     -33.73835798 Ry
     Harris-Foulkes estimate   =     -33.73843019 Ry
     estimated scf accuracy    <       0.00014932 Ry

     iteration #  3     ecut=    60.00 Ry     beta=0.70
     Davidson diagonalization with overlap
     ethr =  1.87E-06,  avg # of iterations =  2.0

     negative rho (up, down):  2.194E-06 0.000E+00

     total cpu time spent up to now is      537.7 secs

     total energy              =     -33.74246619 Ry
     Harris-Foulkes estimate   =     -33.74246762 Ry
     estimated scf accuracy    <       0.00000168 Ry

     iteration #  4     ecut=    60.00 Ry     beta=0.70
     Davidson diagonalization with overlap
     ethr =  2.10E-08,  avg # of iterations =  2.0

     negative rho (up, down):  3.281E-08 0.000E+00

     total cpu time spent up to now is      539.9 secs

     total energy              =     -33.74246665 Ry
     Harris-Foulkes estimate   =     -33.74246665 Ry
[...]
     ethr =  2.22E-07,  avg # of iterations =  2.0

     negative rho (up, down):  4.014E-08 0.000E+00

     total cpu time spent up to now is     1402.5 secs

     total energy              =     -33.74109323 Ry
     Harris-Foulkes estimate   =     -33.74109535 Ry
     estimated scf accuracy    <       0.00000220 Ry

     iteration #  4     ecut=    60.00 Ry     beta=0.70
     Davidson diagonalization with overlap
     ethr =  2.75E-08,  avg # of iterations =  2.0

     total cpu time spent up to now is     1404.3 secs

     End of self-consistent calculation

          k = 0.0000 0.0000 0.0000 ( 62669 PWs)   bands (ev):

   -25.1113 -12.9402  -8.8792  -6.9843  -0.9838   0.3994   0.7299   1.1154

     the Fermi energy is    -5.1011 ev

!    total energy              =     -33.74109347 Ry
     Harris-Foulkes estimate   =     -33.74109364 Ry
     estimated scf accuracy    <          1.0E-08 Ry

     convergence has been achieved in   4 iterations

     Forces acting on atoms (Ry/au):

     atom    1 type  2   force =     0.00387429   -0.00555311    0.02459886
     atom    2 type  1   force =    -0.00275218   -0.01792898   -0.01432643
     atom    3 type  1   force =    -0.00112211    0.02348209   -0.01027243

     Total force =     0.042935     Total SCF correction =     0.000710

     Entering Dynamics:    iteration =    58
                           time      =   0.0281 pico-seconds


     Andersen thermostat:    3 collisions

ATOMIC_POSITIONS (angstrom)
O        0.002808164  -0.000753709   0.116148218
H        0.004903727   0.823334668  -0.447291259
H       -0.049389496  -0.811394721  -0.457475499


     kinetic energy (Ekin) =     0.00254069 Ry
     temperature           =   133.71408088 K 
     Ekin + Etot (const)   =   -33.73855278 Ry
     Message from routine dynamics:
     Total linear momentum <> 0

     Linear momentum :   -0.0970236053   -0.1062721820   -0.1032206887

     Writing output data file pwscf.save

     second order wave-functions extrapolation
     Check: negative starting charge=   -0.071025
     second order charge density extrapolation
     Check: negative starting charge=   -0.071012

     negative rho (up, down):  5.143E-04 0.000E+00

     total cpu time spent up to now is     1417.9 secs

     per-process dynamical memory:    37.0 Mb

     Self-consistent Calculation

     iteration #  1     ecut=    60.00 Ry     beta=0.70
     Davidson diagonalization with overlap
     ethr =  1.00E-06,  avg # of iterations =  3.0

     Threshold (ethr) on eigenvalues was too large:
     Diagonalizing with lowered threshold

     Davidson diagonalization with overlap
     ethr =  8.48E-08,  avg # of iterations =  1.0

     negative rho (up, down):  9.785E-05 0.000E+00

     total cpu time spent up to now is     1421.5 secs

     total energy              =     -33.73655507 Ry
     Harris-Foulkes estimate   =     -33.73655735 Ry
     estimated scf accuracy    <       0.00000685 Ry

     iteration #  2     ecut=    60.00 Ry     beta=0.70
     Davidson diagonalization with overlap
     ethr =  8.57E-08,  avg # of iterations =  2.0

     negative rho (up, down):  3.790E-06 0.000E+00

     total cpu time spent up to now is     1423.6 secs

     total energy              =     -33.74063156 Ry
     Harris-Foulkes estimate   =     -33.74063334 Ry
     estimated scf accuracy    <       0.00000050 Ry

     iteration #  3     ecut=    60.00 Ry     beta=0.70
     Davidson diagonalization with overlap
     ethr =  6.23E-09,  avg # of iterations =  2.0

     total cpu time spent up to now is     1425.7 secs

     total energy              =     -33.74063145 Ry
     Harris-Foulkes estimate   =     -33.74063165 Ry
     estimated scf accuracy    <       0.00000002 Ry

     iteration #  4     ecut=    60.00 Ry     beta=0.70
     Davidson diagonalization with overlap
     ethr =  2.89E-10,  avg # of iterations =  2.0

     total cpu time spent up to now is     1427.6 secs

     End of self-consistent calculation

          k = 0.0000 0.0000 0.0000 ( 62669 PWs)   bands (ev):

   -25.0854 -12.9475  -8.8501  -6.9784  -0.9899   0.3973   0.7247   1.1142

     the Fermi energy is    -5.0955 ev

!    total energy              =     -33.74063149 Ry
     Harris-Foulkes estimate   =     -33.74063146 Ry
     estimated scf accuracy    <          5.0E-10 Ry

     convergence has been achieved in   4 iterations

     Forces acting on atoms (Ry/au):

     atom    1 type  2   force =     0.00412964    0.00420899    0.02368977
     atom    2 type  1   force =    -0.00279668   -0.02620900   -0.01030655
     atom    3 type  1   force =    -0.00133296    0.02200001   -0.01338322

     Total force =     0.045407     Total SCF correction =     0.000250

     Entering Dynamics:    iteration =    59
                           time      =   0.0285 pico-seconds


     Andersen thermostat:    3 collisions

ATOMIC_POSITIONS (angstrom)
O        0.003114718  -0.000738788   0.116410934
H       -0.003896059   0.814367100  -0.455663130
H       -0.045446009  -0.802663522  -0.453265460


     kinetic energy (Ekin) =     0.00684372 Ry
     temperature           =   360.17897914 K 
     Ekin + Etot (const)   =   -33.73378777 Ry
     Message from routine dynamics:
     Total linear momentum <> 0

     Linear momentum :    0.3545104580   -0.1103232922    0.0324745685

     Writing output data file pwscf.save

     second order wave-functions extrapolation
     Check: negative starting charge=   -0.071012
     second order charge density extrapolation
     Check: negative starting charge=   -0.071034

     negative rho (up, down):  4.038E-04 0.000E+00

     total cpu time spent up to now is     1441.6 secs

     per-process dynamical memory:    37.0 Mb

     Self-consistent Calculation

     iteration #  1     ecut=    60.00 Ry     beta=0.70
     Davidson diagonalization with overlap
     ethr =  1.00E-06,  avg # of iterations =  4.0

     negative rho (up, down):  7.171E-05 0.000E+00

     total cpu time spent up to now is     1444.6 secs

     total energy              =     -33.74129734 Ry
     Harris-Foulkes estimate   =     -33.74135499 Ry
     estimated scf accuracy    <       0.00008130 Ry

     iteration #  2     ecut=    60.00 Ry     beta=0.70
     Davidson diagonalization with overlap
     ethr =  1.02E-06,  avg # of iterations =  2.0

     negative rho (up, down):  3.319E-05 0.000E+00

     total cpu time spent up to now is     1446.7 secs

     total energy              =     -33.73723715 Ry
     Harris-Foulkes estimate   =     -33.73727357 Ry
     estimated scf accuracy    <       0.00007519 Ry

     iteration #  3     ecut=    60.00 Ry     beta=0.70
     Davidson diagonalization with overlap
     ethr =  9.40E-07,  avg # of iterations =  2.0

     negative rho (up, down):  5.450E-07 0.000E+00

     total cpu time spent up to now is     1448.7 secs

     total energy              =     -33.74133036 Ry
     Harris-Foulkes estimate   =     -33.74133067 Ry
     estimated scf accuracy    <       0.00000067 Ry

     iteration #  4     ecut=    60.00 Ry     beta=0.70
     Davidson diagonalization with overlap
     ethr =  8.39E-09,  avg # of iterations =  2.0

     negative rho (up, down):  1.118E-08 0.000E+00

     total cpu time spent up to now is     1450.8 secs

     total energy              =     -33.74133051 Ry
     Harris-Foulkes estimate   =     -33.74133057 Ry
     estimated scf accuracy    <       0.00000001 Ry

     iteration #  5     ecut=    60.00 Ry     beta=0.70
     Davidson diagonalization with overlap
     ethr =  1.65E-10,  avg # of iterations =  2.0

     total cpu time spent up to now is     1452.6 secs

     End of self-consistent calculation

          k = 0.0000 0.0000 0.0000 ( 62669 PWs)   bands (ev):

   -25.1596 -12.9673  -8.8998  -6.9938  -0.9703   0.4035   0.7399   1.1168

     the Fermi energy is    -5.1121 ev

!    total energy              =     -33.74133051 Ry
     Harris-Foulkes estimate   =     -33.74133052 Ry
     estimated scf accuracy    <          7.4E-10 Ry

     convergence has been achieved in   5 iterations

     Forces acting on atoms (Ry/au):

     atom    1 type  2   force =     0.00478460    0.01384251    0.03034695
     atom    2 type  1   force =    -0.00251964   -0.02153250   -0.01006689
     atom    3 type  1   force =    -0.00226496    0.00768999   -0.02028006

     Total force =     0.046715     Total SCF correction =     0.000468

     Entering Dynamics:    iteration =    60
                           time      =   0.0290 pico-seconds


     Andersen thermostat:    3 collisions

ATOMIC_POSITIONS (angstrom)
O        0.003439482  -0.000465654   0.116555877
H       -0.009326024   0.812644108  -0.451430480
H       -0.045160817  -0.805267419  -0.459794252


     kinetic energy (Ekin) =     0.00200591 Ry
     temperature           =   105.56916944 K 
     Ekin + Etot (const)   =   -33.73932460 Ry
     Message from routine dynamics:
     Total linear momentum <> 0

     Linear momentum :   -0.0756558758    0.0170845750   -0.1686348950

     Writing output data file pwscf.save

     second order wave-functions extrapolation
     Check: negative starting charge=   -0.071034
     second order charge density extrapolation
     Check: negative starting charge=   -0.071036

     negative rho (up, down):  3.821E-04 0.000E+00

     total cpu time spent up to now is     1466.9 secs

     per-process dynamical memory:    37.0 Mb

     Self-consistent Calculation

     iteration #  1     ecut=    60.00 Ry     beta=0.70
     Davidson diagonalization with overlap
     ethr =  1.00E-06,  avg # of iterations =  3.0

     negative rho (up, down):  6.710E-05 0.000E+00

     total cpu time spent up to now is     1469.3 secs

     total energy              =     -33.73739389 Ry
     Harris-Foulkes estimate   =     -33.73739993 Ry
     estimated scf accuracy    <       0.00001497 Ry

     iteration #  2     ecut=    60.00 Ry     beta=0.70
     Davidson diagonalization with overlap
     ethr =  1.87E-07,  avg # of iterations =  2.0

     negative rho (up, down):  1.175E-05 0.000E+00

     total cpu time spent up to now is     1471.4 secs

     total energy              =     -33.74147146 Ry
     Harris-Foulkes estimate   =     -33.74147413 Ry
     estimated scf accuracy    <       0.00000280 Ry

     iteration #  3     ecut=    60.00 Ry     beta=0.70
     Davidson diagonalization with overlap
     ethr =  3.49E-08,  avg # of iterations =  2.0

     negative rho (up, down):  2.461E-07 0.000E+00

     total cpu time spent up to now is     1473.5 secs

     total energy              =     -33.74147240 Ry
     Harris-Foulkes estimate   =     -33.74147262 Ry
     estimated scf accuracy    <       0.00000122 Ry

     iteration #  4     ecut=    60.00 Ry     beta=0.70
     Davidson diagonalization with overlap
     ethr =  1.52E-08,  avg # of iterations =  2.0

     total cpu time spent up to now is     1475.6 secs

     total energy              =     -33.74147265 Ry
     Harris-Foulkes estimate   =     -33.74147268 Ry
     estimated scf accuracy    <       0.00000003 Ry

     iteration #  5     ecut=    60.00 Ry     beta=0.70
     Davidson diagonalization with overlap
     ethr =  3.36E-10,  avg # of iterations =  2.0

     total cpu time spent up to now is     1477.5 secs

     End of self-consistent calculation

          k = 0.0000 0.0000 0.0000 ( 62669 PWs)   bands (ev):

   -25.1489 -12.9518  -8.9036  -6.9922  -0.9736   0.4025   0.7376   1.1166

     the Fermi energy is    -5.1096 ev

!    total energy              =     -33.74147269 Ry
     Harris-Foulkes estimate   =     -33.74147266 Ry
     estimated scf accuracy    <          5.5E-10 Ry

     convergence has been achieved in   5 iterations

     Forces acting on atoms (Ry/au):

     atom    1 type  2   force =     0.00432707    0.00053988    0.02747300
     atom    2 type  1   force =    -0.00249523   -0.01624752   -0.01343656
     atom    3 type  1   force =    -0.00183184    0.01570763   -0.01403644

     Total force =     0.040886     Total SCF correction =     0.000296

     Entering Dynamics:    iteration =    61
                           time      =   0.0295 pico-seconds


     Andersen thermostat:    3 collisions

ATOMIC_POSITIONS (angstrom)
O        0.003880820  -0.000816544   0.117509650
H       -0.009544388   0.810265681  -0.466517657
H       -0.051933949  -0.797330333  -0.459816339


     kinetic energy (Ekin) =     0.00642527 Ry
     temperature           =   338.15625550 K 
     Ekin + Etot (const)   =   -33.73504742 Ry
     Message from routine dynamics:
     Total linear momentum <> 0

     Linear momentum :   -0.2046021129    0.0855627429    0.1444032597

     Writing output data file pwscf.save

     second order wave-functions extrapolation
     Check: negative starting charge=   -0.071036
     second order charge density extrapolation
     Check: negative starting charge=   -0.071054

     negative rho (up, down):  9.454E-04 0.000E+00

     total cpu time spent up to now is     1490.9 secs

     per-process dynamical memory:    37.0 Mb

     Self-consistent Calculation

     iteration #  1     ecut=    60.00 Ry     beta=0.70
     Davidson diagonalization with overlap
     ethr =  1.00E-06,  avg # of iterations =  4.0

     negative rho (up, down):  2.032E-04 0.000E+00

     total cpu time spent up to now is     1493.8 secs

     total energy              =     -33.73789474 Ry
     Harris-Foulkes estimate   =     -33.73791053 Ry
     estimated scf accuracy    <       0.00006671 Ry

     iteration #  2     ecut=    60.00 Ry     beta=0.70
     Davidson diagonalization with overlap
     ethr =  8.34E-07,  avg # of iterations =  3.0

     negative rho (up, down):  1.074E-04 0.000E+00

     total cpu time spent up to now is     1496.2 secs

     total energy              =     -33.74198227 Ry
     Harris-Foulkes estimate   =     -33.74201606 Ry
     estimated scf accuracy    <       0.00006309 Ry

     iteration #  3     ecut=    60.00 Ry     beta=0.70
     Davidson diagonalization with overlap
     ethr =  7.89E-07,  avg # of iterations =  2.0

     negative rho (up, down):  5.923E-08 0.000E+00

     total cpu time spent up to now is     1498.3 secs

     total energy              =     -33.74199332 Ry
     Harris-Foulkes estimate   =     -33.74199567 Ry
     estimated scf accuracy    <       0.00000077 Ry

     iteration #  4     ecut=    60.00 Ry     beta=0.70
     Davidson diagonalization with overlap
     ethr =  9.57E-09,  avg # of iterations =  2.0

     total cpu time spent up to now is     1500.4 secs

     total energy              =     -33.74199361 Ry
     Harris-Foulkes estimate   =     -33.74199361 Ry
     estimated scf accuracy    <       0.00000001 Ry

     iteration #  5     ecut=    60.00 Ry     beta=0.70
     Davidson diagonalization with overlap
     ethr =  1.85E-10,  avg # of iterations =  2.0

     total cpu time spent up to now is     1502.2 secs

     End of self-consistent calculation

          k = 0.0000 0.0000 0.0000 ( 62669 PWs)   bands (ev):

   -25.1581 -12.8917  -8.9598  -6.9959  -0.9771   0.4010   0.7385   1.1174

     the Fermi energy is    -5.1113 ev

!    total energy              =     -33.74199365 Ry
     Harris-Foulkes estimate   =     -33.74199362 Ry
     estimated scf accuracy    <          1.2E-09 Ry

     convergence has been achieved in   5 iterations

     Forces acting on atoms (Ry/au):

     atom    1 type  2   force =     0.00428893    0.01763963    0.02184411
     atom    2 type  1   force =    -0.00213443   -0.02321987   -0.00429087
     atom    3 type  1   force =    -0.00215449    0.00558024   -0.01755324

     Total force =     0.041385     Total SCF correction =     0.000474

     Entering Dynamics:    iteration =    62
                           time      =   0.0300 pico-seconds


     Andersen thermostat:    3 collisions

ATOMIC_POSITIONS (angstrom)
O        0.003706924  -0.001097186   0.117664492
H       -0.015918810   0.809172950  -0.469473876
H       -0.042804740  -0.791791778  -0.459313072


     kinetic energy (Ekin) =     0.00274271 Ry
     temperature           =   144.34642422 K 
     Ekin + Etot (const)   =   -33.73925094 Ry
     Message from routine dynamics:
     Total linear momentum <> 0

     Linear momentum :    0.0388570599    0.0041058524   -0.0362269521

     Writing output data file pwscf.save

     second order wave-functions extrapolation
     Check: negative starting charge=   -0.071054
     second order charge density extrapolation
     Check: negative starting charge=   -0.071061

     negative rho (up, down):  4.056E-04 0.000E+00

     total cpu time spent up to now is     1515.3 secs

     per-process dynamical memory:    37.0 Mb

     Self-consistent Calculation

     iteration #  1     ecut=    60.00 Ry     beta=0.70
     Davidson diagonalization with overlap
     ethr =  1.00E-06,  avg # of iterations =  3.0

     negative rho (up, down):  7.239E-05 0.000E+00

     total cpu time spent up to now is     1518.2 secs

     total energy              =     -33.74202954 Ry
     Harris-Foulkes estimate   =     -33.74203699 Ry
     estimated scf accuracy    <       0.00002530 Ry

     iteration #  2     ecut=    60.00 Ry     beta=0.70
     Davidson diagonalization with overlap
     ethr =  3.16E-07,  avg # of iterations =  2.0

     negative rho (up, down):  2.593E-05 0.000E+00

     total cpu time spent up to now is     1520.3 secs

     total energy              =     -33.74203203 Ry
     Harris-Foulkes estimate   =     -33.74203839 Ry
     estimated scf accuracy    <       0.00001185 Ry

     iteration #  3     ecut=    60.00 Ry     beta=0.70
     Davidson diagonalization with overlap
     ethr =  1.48E-07,  avg # of iterations =  2.0

     negative rho (up, down):  1.108E-07 0.000E+00

     total cpu time spent up to now is     1522.4 secs

     total energy              =     -33.74203457 Ry
     Harris-Foulkes estimate   =     -33.74203554 Ry
     estimated scf accuracy    <       0.00000138 Ry

     iteration #  4     ecut=    60.00 Ry     beta=0.70
     Davidson diagonalization with overlap
     ethr =  1.72E-08,  avg # of iterations =  2.0

     total cpu time spent up to now is     1524.4 secs

     total energy              =     -33.74203469 Ry
     Harris-Foulkes estimate   =     -33.74203483 Ry
     estimated scf accuracy    <       0.00000001 Ry

     iteration #  5     ecut=    60.00 Ry     beta=0.70
     Davidson diagonalization with overlap
     ethr =  1.33E-10,  avg # of iterations =  2.0

     total cpu time spent up to now is     1526.3 secs

     End of self-consistent calculation

          k = 0.0000 0.0000 0.0000 ( 62669 PWs)   bands (ev):

   -25.1860 -12.8946  -8.9805  -7.0015  -0.9712   0.4024   0.7441   1.1181

     the Fermi energy is    -5.1178 ev

!    total energy              =     -33.74203471 Ry
     Harris-Foulkes estimate   =     -33.74203469 Ry
     estimated scf accuracy    <          6.7E-10 Ry

     convergence has been achieved in   5 iterations

     Forces acting on atoms (Ry/au):

     atom    1 type  2   force =     0.00439131    0.02633429    0.02471700
     atom    2 type  1   force =    -0.00180759   -0.02386131   -0.00244252
     atom    3 type  1   force =    -0.00258372   -0.00247298   -0.02227448

     Total force =     0.049104     Total SCF correction =     0.000123

     Entering Dynamics:    iteration =    63
                           time      =   0.0305 pico-seconds


     Andersen thermostat:    3 collisions

ATOMIC_POSITIONS (angstrom)
O        0.002780681  -0.000512488   0.118616524
H       -0.006769187   0.808466601  -0.469628157
H       -0.037281200  -0.800347985  -0.474240479


     kinetic energy (Ekin) =     0.00716466 Ry
     temperature           =   377.06971059 K 
     Ekin + Etot (const)   =   -33.73487005 Ry
     Message from routine dynamics:
     Total linear momentum <> 0

     Linear momentum :    0.0564009170    0.0445540933   -0.1071085871

     Writing output data file pwscf.save
