
     Program PWSCF v.6.2 (svn rev. 14038) starts on 14May2018 at  6:12:59 

     This program is part of the open-source Quantum ESPRESSO suite
     for quantum simulation of materials; please cite
         "P. Giannozzi et al., J. Phys.:Condens. Matter 21 395502 (2009);
         "P. Giannozzi et al., J. Phys.:Condens. Matter 29 465901 (2017);
          URL http://www.quantum-espresso.org", 
     in publications or presentations arising from this work. More details at
     http://www.quantum-espresso.org/quote

     Parallel version (MPI), running on    28 processors

     MPI processes distributed on     1 nodes
     R & G space division:  proc/nbgrp/npool/nimage =      28
     Reading input from ../ecut300/14000.in
Warning: card &IONS ignored
Warning: card     POT_EXTRAPOLATION='SECOND-ORDER' ignored
Warning: card     WFC_EXTRAPOLATION='SECOND-ORDER' ignored
Warning: card     ION_TEMPERATURE = 'ANDERSEN' ignored
Warning: card / ignored

     Current dimensions of program PWSCF are:
     Max number of different atomic species (ntypx) = 10
     Max number of k-points (npk) =  40000
     Max angular momentum in pseudopotentials (lmaxx) =  3

     Subspace diagonalization in iterative solution of the eigenvalue problem:
     a serial algorithm will be used

 
     Parallelization info
     --------------------
     sticks:   dense  smooth     PW     G-vecs:    dense   smooth      PW
     Min        1364    1364    341               200576   200576   25051
     Max        1365    1365    342               200579   200579   25054
     Sum       38197   38197   9549              5616169  5616169  701475
 


     bravais-lattice index     =            1
     lattice parameter (alat)  =      20.0000  a.u.
     unit-cell volume          =    8000.0000 (a.u.)^3
     number of atoms/cell      =            3
     number of atomic types    =            2
     number of electrons       =         8.00
     number of Kohn-Sham states=            8
     kinetic-energy cutoff     =     300.0000  Ry
     charge density cutoff     =    1200.0000  Ry
     convergence threshold     =      1.0E-08
     mixing beta               =       0.7000
     number of iterations used =            8  plain     mixing
     Exchange-correlation      = PBE ( 1  4  3  4 0 0)

     celldm(1)=  20.000000  celldm(2)=   0.000000  celldm(3)=   0.000000
     celldm(4)=   0.000000  celldm(5)=   0.000000  celldm(6)=   0.000000

     crystal axes: (cart. coord. in units of alat)
               a(1) = (   1.000000   0.000000   0.000000 )  
               a(2) = (   0.000000   1.000000   0.000000 )  
               a(3) = (   0.000000   0.000000   1.000000 )  

     reciprocal axes: (cart. coord. in units 2 pi/alat)
               b(1) = (  1.000000  0.000000  0.000000 )  
               b(2) = (  0.000000  1.000000  0.000000 )  
               b(3) = (  0.000000  0.000000  1.000000 )  


     PseudoPot. # 1 for H  read from file:
     ../pslibrary/pbe/PSEUDOPOTENTIALS/H.pbe-rrkjus_psl.1.0.0.UPF
     MD5 check sum: b2b1ff84b4ceabe23335d1bf25025923
     Pseudo is Ultrasoft, Zval =  1.0
     Generated using "atomic" code by A. Dal Corso v.6.2 svn rev. 14038
     Using radial grid of  929 points,  2 beta functions with: 
                l(1) =   0
                l(2) =   0
     Q(r) pseudized with 0 coefficients 


     PseudoPot. # 2 for O  read from file:
     ../pslibrary/pbe/PSEUDOPOTENTIALS/O.pbe-n-rrkjus_psl.1.0.0.UPF
     MD5 check sum: 61455b21a47f6823f888c3bfb9bd1235
     Pseudo is Ultrasoft + core correction, Zval =  6.0
     Generated using "atomic" code by A. Dal Corso v.6.2 svn rev. 14038
     Using radial grid of 1095 points,  4 beta functions with: 
                l(1) =   0
                l(2) =   0
                l(3) =   1
                l(4) =   1
     Q(r) pseudized with 0 coefficients 


     atomic species   valence    mass     pseudopotential
        H              1.00     1.01000     H ( 1.00)
        O              6.00    16.00000     O ( 1.00)

     No symmetry found



   Cartesian axes

     site n.     atom                  positions (alat units)
         1           O   tau(   1) = (   0.0062309   0.0093030   0.0070980  )
         2           H   tau(   2) = (  -0.0408952  -0.1613837   0.0381657  )
         3           H   tau(   3) = (  -0.0578115   0.0140092  -0.0622445  )

     number of k points=     1  Marzari-Vanderbilt smearing, width (Ry)=  0.0250
                       cart. coord. in units 2pi/alat
        k(    1) = (   0.0000000   0.0000000   0.0000000), wk =   2.0000000

     Dense  grid:  5616169 G-vectors     FFT dimensions: ( 225, 225, 225)

     Estimated max dynamical RAM per process >     222.26 MB

     Estimated total dynamical RAM >       6.08 GB

     Initial potential from superposition of free atoms

     starting charge    7.99998, renormalised to    8.00000

     negative rho (up, down):  3.356E-05 0.000E+00
     Starting wfc are    6 randomized atomic wfcs +    2 random wfc

     total cpu time spent up to now is        6.7 secs

     Self-consistent Calculation

     iteration #  1     ecut=   300.00 Ry     beta= 0.70
     Davidson diagonalization with overlap
     ethr =  1.00E-02,  avg # of iterations =  8.0

     negative rho (up, down):  8.511E-06 0.000E+00

     total cpu time spent up to now is       11.6 secs

     total energy              =     -33.99109396 Ry
     Harris-Foulkes estimate   =     -34.63052727 Ry
     estimated scf accuracy    <       0.83653896 Ry

     iteration #  2     ecut=   300.00 Ry     beta= 0.70
     Davidson diagonalization with overlap
     ethr =  1.00E-02,  avg # of iterations =  4.0

     total cpu time spent up to now is       15.4 secs

     total energy              =     -33.96335048 Ry
     Harris-Foulkes estimate   =     -35.39616702 Ry
     estimated scf accuracy    <       4.52134481 Ry

     iteration #  3     ecut=   300.00 Ry     beta= 0.70
     Davidson diagonalization with overlap
     ethr =  1.00E-02,  avg # of iterations =  3.0

     total cpu time spent up to now is       18.9 secs

     total energy              =     -34.30050009 Ry
     Harris-Foulkes estimate   =     -34.31478707 Ry
     estimated scf accuracy    <       0.28765220 Ry

     iteration #  4     ecut=   300.00 Ry     beta= 0.70
     Davidson diagonalization with overlap
     ethr =  3.60E-03,  avg # of iterations =  3.0

     total cpu time spent up to now is       22.5 secs

     total energy              =     -34.46132821 Ry
     Harris-Foulkes estimate   =     -34.46512885 Ry
     estimated scf accuracy    <       0.01519587 Ry

     iteration #  5     ecut=   300.00 Ry     beta= 0.70
     Davidson diagonalization with overlap
     ethr =  1.90E-04,  avg # of iterations =  3.0

     total cpu time spent up to now is       26.2 secs

     total energy              =     -34.46050983 Ry
     Harris-Foulkes estimate   =     -34.46302781 Ry
     estimated scf accuracy    <       0.00682590 Ry

     iteration #  6     ecut=   300.00 Ry     beta= 0.70
     Davidson diagonalization with overlap
     ethr =  8.53E-05,  avg # of iterations = 10.0

     total cpu time spent up to now is       30.3 secs

     total energy              =     -34.46134300 Ry
     Harris-Foulkes estimate   =     -34.46163398 Ry
     estimated scf accuracy    <       0.00123614 Ry

     iteration #  7     ecut=   300.00 Ry     beta= 0.70
     Davidson diagonalization with overlap
     ethr =  1.55E-05,  avg # of iterations = 12.0

     total cpu time spent up to now is       34.9 secs

     total energy              =     -34.46153795 Ry
     Harris-Foulkes estimate   =     -34.46153102 Ry
     estimated scf accuracy    <       0.00009211 Ry

     iteration #  8     ecut=   300.00 Ry     beta= 0.70
     Davidson diagonalization with overlap
     ethr =  1.15E-06,  avg # of iterations =  7.0

     negative rho (up, down):  5.405E-08 0.000E+00

     total cpu time spent up to now is       39.1 secs

     total energy              =     -34.46154202 Ry
     Harris-Foulkes estimate   =     -34.46154756 Ry
     estimated scf accuracy    <       0.00018145 Ry

     iteration #  9     ecut=   300.00 Ry     beta= 0.70
     Davidson diagonalization with overlap
     ethr =  1.15E-06,  avg # of iterations =  1.0

     negative rho (up, down):  7.304E-08 0.000E+00

     total cpu time spent up to now is       42.7 secs

     total energy              =     -34.46153682 Ry
     Harris-Foulkes estimate   =     -34.46154343 Ry
     estimated scf accuracy    <       0.00012989 Ry

     iteration # 10     ecut=   300.00 Ry     beta= 0.70
     Davidson diagonalization with overlap
     ethr =  1.15E-06,  avg # of iterations =  1.0

     negative rho (up, down):  8.686E-08 0.000E+00

     total cpu time spent up to now is       46.2 secs

     total energy              =     -34.46153423 Ry
     Harris-Foulkes estimate   =     -34.46153764 Ry
     estimated scf accuracy    <       0.00008572 Ry

     iteration # 11     ecut=   300.00 Ry     beta= 0.70
     Davidson diagonalization with overlap
     ethr =  1.07E-06,  avg # of iterations =  1.0

     negative rho (up, down):  9.973E-08 0.000E+00

     total cpu time spent up to now is       49.8 secs

     total energy              =     -34.46153355 Ry
     Harris-Foulkes estimate   =     -34.46153452 Ry
     estimated scf accuracy    <       0.00006904 Ry

     iteration # 12     ecut=   300.00 Ry     beta= 0.70
     Davidson diagonalization with overlap
     ethr =  8.63E-07,  avg # of iterations =  1.0

     negative rho (up, down):  8.111E-06 0.000E+00

     total cpu time spent up to now is       53.4 secs

     total energy              =     -34.46151329 Ry
     Harris-Foulkes estimate   =     -34.46153365 Ry
     estimated scf accuracy    <       0.00006454 Ry

     iteration # 13     ecut=   300.00 Ry     beta= 0.70
     Davidson diagonalization with overlap
     ethr =  8.07E-07,  avg # of iterations =  3.0

     negative rho (up, down):  8.089E-06 0.000E+00

     total cpu time spent up to now is       57.2 secs

     total energy              =     -34.46152069 Ry
     Harris-Foulkes estimate   =     -34.46152074 Ry
     estimated scf accuracy    <       0.00000027 Ry

     iteration # 14     ecut=   300.00 Ry     beta= 0.70
     Davidson diagonalization with overlap
     ethr =  3.37E-09,  avg # of iterations =  4.0

     negative rho (up, down):  7.791E-06 0.000E+00

     total cpu time spent up to now is       61.6 secs

     total energy              =     -34.46152473 Ry
     Harris-Foulkes estimate   =     -34.46152573 Ry
     estimated scf accuracy    <       0.00000547 Ry

     iteration # 15     ecut=   300.00 Ry     beta= 0.70
     Davidson diagonalization with overlap
     ethr =  3.37E-09,  avg # of iterations =  3.0

     negative rho (up, down):  5.793E-06 0.000E+00

     total cpu time spent up to now is       65.4 secs

     total energy              =     -34.46152396 Ry
     Harris-Foulkes estimate   =     -34.46152482 Ry
     estimated scf accuracy    <       0.00000251 Ry

     iteration # 16     ecut=   300.00 Ry     beta= 0.70
     Davidson diagonalization with overlap
     ethr =  3.37E-09,  avg # of iterations =  3.0

     negative rho (up, down):  5.285E-06 0.000E+00

     total cpu time spent up to now is       69.5 secs

     total energy              =     -34.46152433 Ry
     Harris-Foulkes estimate   =     -34.46152435 Ry
     estimated scf accuracy    <       0.00000004 Ry

     iteration # 17     ecut=   300.00 Ry     beta= 0.70
     Davidson diagonalization with overlap
     ethr =  4.41E-10,  avg # of iterations =  3.0

     negative rho (up, down):  5.397E-06 0.000E+00

     total cpu time spent up to now is       73.5 secs

     total energy              =     -34.46152433 Ry
     Harris-Foulkes estimate   =     -34.46152435 Ry
     estimated scf accuracy    <       0.00000008 Ry

     iteration # 18     ecut=   300.00 Ry     beta= 0.70
     Davidson diagonalization with overlap
     ethr =  4.41E-10,  avg # of iterations =  1.0

     negative rho (up, down):  5.425E-06 0.000E+00

     total cpu time spent up to now is       77.1 secs

     total energy              =     -34.46152432 Ry
     Harris-Foulkes estimate   =     -34.46152433 Ry
     estimated scf accuracy    <       0.00000002 Ry

     iteration # 19     ecut=   300.00 Ry     beta= 0.70
     Davidson diagonalization with overlap
     ethr =  2.62E-10,  avg # of iterations =  2.0

     negative rho (up, down):  5.271E-06 0.000E+00

     total cpu time spent up to now is       80.2 secs

     End of self-consistent calculation

          k = 0.0000 0.0000 0.0000 (701475 PWs)   bands (ev):

   -23.6336 -10.4490  -8.6759  -6.7818  -5.3494  -0.4189   0.3624   0.8655

     the Fermi energy is    -6.4685 ev

!    total energy              =     -34.46152433 Ry
     Harris-Foulkes estimate   =     -34.46152433 Ry
     estimated scf accuracy    <          2.5E-09 Ry

     The total energy is the sum of the following terms:

     one-electron contribution =     -57.60086623 Ry
     hartree contribution      =      30.39413410 Ry
     xc contribution           =      -8.42015123 Ry
     ewald contribution        =       1.16128158 Ry
     smearing contrib. (-TS)   =       0.00407746 Ry

     convergence has been achieved in  19 iterations

     Writing output data file pwscf.save
 
     init_run     :      5.69s CPU      5.98s WALL (       1 calls)
     electrons    :     66.65s CPU     73.95s WALL (       1 calls)

     Called by init_run:
     wfcinit      :      0.60s CPU      0.67s WALL (       1 calls)
     potinit      :      0.84s CPU      0.89s WALL (       1 calls)

     Called by electrons:
     c_bands      :     27.36s CPU     27.63s WALL (      19 calls)
     sum_band     :     16.76s CPU     18.14s WALL (      19 calls)
     v_of_rho     :     11.40s CPU     11.83s WALL (      20 calls)
     newd         :      5.57s CPU      6.87s WALL (      20 calls)
     mix_rho      :      5.57s CPU      9.17s WALL (      19 calls)

     Called by c_bands:
     init_us_2    :      0.37s CPU      0.39s WALL (      39 calls)
     cegterg      :     27.00s CPU     27.17s WALL (      19 calls)

     Called by sum_band:
     sum_band:bec :      0.00s CPU      0.00s WALL (      19 calls)
     addusdens    :      8.97s CPU     10.22s WALL (      19 calls)

     Called by *egterg:
     h_psi        :     25.83s CPU     25.97s WALL (      93 calls)
     s_psi        :      0.19s CPU      0.20s WALL (      93 calls)
     g_psi        :      0.06s CPU      0.06s WALL (      73 calls)
     cdiaghg      :      0.02s CPU      0.02s WALL (      92 calls)

     Called by h_psi:
     h_psi:pot    :     25.67s CPU     25.80s WALL (      93 calls)
     h_psi:calbec :      0.38s CPU      0.40s WALL (      93 calls)
     vloc_psi     :     25.11s CPU     25.23s WALL (      93 calls)
     add_vuspsi   :      0.18s CPU      0.18s WALL (      93 calls)

     General routines
     calbec       :      0.42s CPU      0.43s WALL (     112 calls)
     fft          :     13.48s CPU     14.17s WALL (     259 calls)
     fftw         :     26.89s CPU     27.01s WALL (     980 calls)
     davcio       :      0.51s CPU      3.79s WALL (     287 calls)
 
     Parallel routines
     fft_scatt_xy :      9.23s CPU      9.25s WALL (    1239 calls)
     fft_scatt_yz :     10.05s CPU     10.74s WALL (    1239 calls)
 
     PWSCF        :  1m13.27s CPU     1m22.15s WALL

 
   This run was terminated on:   6:14:22  14May2018            

=------------------------------------------------------------------------------=
   JOB DONE.
=------------------------------------------------------------------------------=
