
     Program PWSCF v.6.2 (svn rev. 14038) starts on 14May2018 at  6:25:34 

     This program is part of the open-source Quantum ESPRESSO suite
     for quantum simulation of materials; please cite
         "P. Giannozzi et al., J. Phys.:Condens. Matter 21 395502 (2009);
         "P. Giannozzi et al., J. Phys.:Condens. Matter 29 465901 (2017);
          URL http://www.quantum-espresso.org", 
     in publications or presentations arising from this work. More details at
     http://www.quantum-espresso.org/quote

     Parallel version (MPI), running on    28 processors

     MPI processes distributed on     1 nodes
     R & G space division:  proc/nbgrp/npool/nimage =      28
     Reading input from ../ecut300/17500.in
Warning: card &IONS ignored
Warning: card     POT_EXTRAPOLATION='SECOND-ORDER' ignored
Warning: card     WFC_EXTRAPOLATION='SECOND-ORDER' ignored
Warning: card     ION_TEMPERATURE = 'ANDERSEN' ignored
Warning: card / ignored

     Current dimensions of program PWSCF are:
     Max number of different atomic species (ntypx) = 10
     Max number of k-points (npk) =  40000
     Max angular momentum in pseudopotentials (lmaxx) =  3

     Subspace diagonalization in iterative solution of the eigenvalue problem:
     a serial algorithm will be used

 
     Parallelization info
     --------------------
     sticks:   dense  smooth     PW     G-vecs:    dense   smooth      PW
     Min        1364    1364    341               200576   200576   25051
     Max        1365    1365    342               200579   200579   25054
     Sum       38197   38197   9549              5616169  5616169  701475
 


     bravais-lattice index     =            1
     lattice parameter (alat)  =      20.0000  a.u.
     unit-cell volume          =    8000.0000 (a.u.)^3
     number of atoms/cell      =            3
     number of atomic types    =            2
     number of electrons       =         8.00
     number of Kohn-Sham states=            8
     kinetic-energy cutoff     =     300.0000  Ry
     charge density cutoff     =    1200.0000  Ry
     convergence threshold     =      1.0E-08
     mixing beta               =       0.7000
     number of iterations used =            8  plain     mixing
     Exchange-correlation      = PBE ( 1  4  3  4 0 0)

     celldm(1)=  20.000000  celldm(2)=   0.000000  celldm(3)=   0.000000
     celldm(4)=   0.000000  celldm(5)=   0.000000  celldm(6)=   0.000000

     crystal axes: (cart. coord. in units of alat)
               a(1) = (   1.000000   0.000000   0.000000 )  
               a(2) = (   0.000000   1.000000   0.000000 )  
               a(3) = (   0.000000   0.000000   1.000000 )  

     reciprocal axes: (cart. coord. in units 2 pi/alat)
               b(1) = (  1.000000  0.000000  0.000000 )  
               b(2) = (  0.000000  1.000000  0.000000 )  
               b(3) = (  0.000000  0.000000  1.000000 )  


     PseudoPot. # 1 for H  read from file:
     ../pslibrary/pbe/PSEUDOPOTENTIALS/H.pbe-rrkjus_psl.1.0.0.UPF
     MD5 check sum: b2b1ff84b4ceabe23335d1bf25025923
     Pseudo is Ultrasoft, Zval =  1.0
     Generated using "atomic" code by A. Dal Corso v.6.2 svn rev. 14038
     Using radial grid of  929 points,  2 beta functions with: 
                l(1) =   0
                l(2) =   0
     Q(r) pseudized with 0 coefficients 


     PseudoPot. # 2 for O  read from file:
     ../pslibrary/pbe/PSEUDOPOTENTIALS/O.pbe-n-rrkjus_psl.1.0.0.UPF
     MD5 check sum: 61455b21a47f6823f888c3bfb9bd1235
     Pseudo is Ultrasoft + core correction, Zval =  6.0
     Generated using "atomic" code by A. Dal Corso v.6.2 svn rev. 14038
     Using radial grid of 1095 points,  4 beta functions with: 
                l(1) =   0
                l(2) =   0
                l(3) =   1
                l(4) =   1
     Q(r) pseudized with 0 coefficients 


     atomic species   valence    mass     pseudopotential
        H              1.00     1.01000     H ( 1.00)
        O              6.00    16.00000     O ( 1.00)

     No symmetry found



   Cartesian axes

     site n.     atom                  positions (alat units)
         1           O   tau(   1) = (   0.0020818  -0.0034151  -0.0001502  )
         2           H   tau(   2) = (   0.0238464   0.0985053   0.1224133  )
         3           H   tau(   3) = (  -0.0568252  -0.0444050  -0.0316687  )

     number of k points=     1  Marzari-Vanderbilt smearing, width (Ry)=  0.0250
                       cart. coord. in units 2pi/alat
        k(    1) = (   0.0000000   0.0000000   0.0000000), wk =   2.0000000

     Dense  grid:  5616169 G-vectors     FFT dimensions: ( 225, 225, 225)

     Estimated max dynamical RAM per process >     222.26 MB

     Estimated total dynamical RAM >       6.08 GB

     Initial potential from superposition of free atoms

     starting charge    7.99998, renormalised to    8.00000

     negative rho (up, down):  3.284E-05 0.000E+00
     Starting wfc are    6 randomized atomic wfcs +    2 random wfc

     total cpu time spent up to now is        6.7 secs

     Self-consistent Calculation

     iteration #  1     ecut=   300.00 Ry     beta= 0.70
     Davidson diagonalization with overlap
     ethr =  1.00E-02,  avg # of iterations =  8.0

     negative rho (up, down):  1.105E-05 0.000E+00

     total cpu time spent up to now is       11.3 secs

     total energy              =     -33.92293808 Ry
     Harris-Foulkes estimate   =     -34.66152746 Ry
     estimated scf accuracy    <       0.97097063 Ry

     iteration #  2     ecut=   300.00 Ry     beta= 0.70
     Davidson diagonalization with overlap
     ethr =  1.00E-02,  avg # of iterations =  3.0

     total cpu time spent up to now is       14.9 secs

     total energy              =     -33.83176991 Ry
     Harris-Foulkes estimate   =     -35.16584407 Ry
     estimated scf accuracy    <       3.93884795 Ry

     iteration #  3     ecut=   300.00 Ry     beta= 0.70
     Davidson diagonalization with overlap
     ethr =  1.00E-02,  avg # of iterations =  3.0

     total cpu time spent up to now is       18.5 secs

     total energy              =     -34.39740456 Ry
     Harris-Foulkes estimate   =     -34.40805474 Ry
     estimated scf accuracy    <       0.05706853 Ry

     iteration #  4     ecut=   300.00 Ry     beta= 0.70
     Davidson diagonalization with overlap
     ethr =  7.13E-04,  avg # of iterations =  3.0

     negative rho (up, down):  2.156E-03 0.000E+00

     total cpu time spent up to now is       22.2 secs

     total energy              =     -34.40959721 Ry
     Harris-Foulkes estimate   =     -34.41681133 Ry
     estimated scf accuracy    <       0.02562678 Ry

     iteration #  5     ecut=   300.00 Ry     beta= 0.70
     Davidson diagonalization with overlap
     ethr =  3.20E-04,  avg # of iterations =  3.0

     negative rho (up, down):  3.853E-03 0.000E+00

     total cpu time spent up to now is       25.7 secs

     total energy              =     -34.40787576 Ry
     Harris-Foulkes estimate   =     -34.41016846 Ry
     estimated scf accuracy    <       0.00701712 Ry

     iteration #  6     ecut=   300.00 Ry     beta= 0.70
     Davidson diagonalization with overlap
     ethr =  8.77E-05,  avg # of iterations = 11.0

     negative rho (up, down):  4.943E-03 0.000E+00

     total cpu time spent up to now is       30.3 secs

     total energy              =     -34.40912686 Ry
     Harris-Foulkes estimate   =     -34.40907427 Ry
     estimated scf accuracy    <       0.00035377 Ry

     iteration #  7     ecut=   300.00 Ry     beta= 0.70
     Davidson diagonalization with overlap
     ethr =  4.42E-06,  avg # of iterations =  6.0

     negative rho (up, down):  1.063E-03 0.000E+00

     total cpu time spent up to now is       34.5 secs

     total energy              =     -34.40905278 Ry
     Harris-Foulkes estimate   =     -34.40919003 Ry
     estimated scf accuracy    <       0.00064384 Ry

     iteration #  8     ecut=   300.00 Ry     beta= 0.70
     Davidson diagonalization with overlap
     ethr =  4.42E-06,  avg # of iterations =  4.0

     negative rho (up, down):  4.227E-04 0.000E+00

     total cpu time spent up to now is       38.5 secs

     total energy              =     -34.40906090 Ry
     Harris-Foulkes estimate   =     -34.40907799 Ry
     estimated scf accuracy    <       0.00006634 Ry

     iteration #  9     ecut=   300.00 Ry     beta= 0.70
     Davidson diagonalization with overlap
     ethr =  8.29E-07,  avg # of iterations =  5.0

     negative rho (up, down):  4.077E-04 0.000E+00

     total cpu time spent up to now is       43.0 secs

     total energy              =     -34.40908507 Ry
     Harris-Foulkes estimate   =     -34.40908408 Ry
     estimated scf accuracy    <       0.00002533 Ry

     iteration # 10     ecut=   300.00 Ry     beta= 0.70
     Davidson diagonalization with overlap
     ethr =  3.17E-07,  avg # of iterations =  1.0

     negative rho (up, down):  1.967E-04 0.000E+00

     total cpu time spent up to now is       46.6 secs

     total energy              =     -34.40908217 Ry
     Harris-Foulkes estimate   =     -34.40908545 Ry
     estimated scf accuracy    <       0.00003058 Ry

     iteration # 11     ecut=   300.00 Ry     beta= 0.70
     Davidson diagonalization with overlap
     ethr =  3.17E-07,  avg # of iterations =  1.0

     negative rho (up, down):  3.588E-06 0.000E+00

     total cpu time spent up to now is       50.2 secs

     total energy              =     -34.40907645 Ry
     Harris-Foulkes estimate   =     -34.40908248 Ry
     estimated scf accuracy    <       0.00001794 Ry

     iteration # 12     ecut=   300.00 Ry     beta= 0.70
     Davidson diagonalization with overlap
     ethr =  2.24E-07,  avg # of iterations =  5.0

     negative rho (up, down):  4.145E-06 0.000E+00

     total cpu time spent up to now is       54.5 secs

     total energy              =     -34.40907965 Ry
     Harris-Foulkes estimate   =     -34.40907965 Ry
     estimated scf accuracy    <       0.00000130 Ry

     iteration # 13     ecut=   300.00 Ry     beta= 0.70
     Davidson diagonalization with overlap
     ethr =  1.62E-08,  avg # of iterations =  3.0

     negative rho (up, down):  4.037E-06 0.000E+00

     total cpu time spent up to now is       58.3 secs

     total energy              =     -34.40907984 Ry
     Harris-Foulkes estimate   =     -34.40907994 Ry
     estimated scf accuracy    <       0.00000147 Ry

     iteration # 14     ecut=   300.00 Ry     beta= 0.70
     Davidson diagonalization with overlap
     ethr =  1.62E-08,  avg # of iterations =  1.0

     negative rho (up, down):  6.860E-06 0.000E+00

     total cpu time spent up to now is       61.9 secs

     total energy              =     -34.40907944 Ry
     Harris-Foulkes estimate   =     -34.40907985 Ry
     estimated scf accuracy    <       0.00000124 Ry

     iteration # 15     ecut=   300.00 Ry     beta= 0.70
     Davidson diagonalization with overlap
     ethr =  1.55E-08,  avg # of iterations =  3.0

     negative rho (up, down):  6.751E-06 0.000E+00

     total cpu time spent up to now is       65.7 secs

     total energy              =     -34.40907969 Ry
     Harris-Foulkes estimate   =     -34.40907976 Ry
     estimated scf accuracy    <       0.00000061 Ry

     iteration # 16     ecut=   300.00 Ry     beta= 0.70
     Davidson diagonalization with overlap
     ethr =  7.68E-09,  avg # of iterations =  1.0

     negative rho (up, down):  5.343E-06 0.000E+00

     total cpu time spent up to now is       69.3 secs

     total energy              =     -34.40907956 Ry
     Harris-Foulkes estimate   =     -34.40907971 Ry
     estimated scf accuracy    <       0.00000050 Ry

     iteration # 17     ecut=   300.00 Ry     beta= 0.70
     Davidson diagonalization with overlap
     ethr =  6.21E-09,  avg # of iterations =  1.0

     negative rho (up, down):  5.515E-06 0.000E+00

     total cpu time spent up to now is       72.9 secs

     total energy              =     -34.40907954 Ry
     Harris-Foulkes estimate   =     -34.40907957 Ry
     estimated scf accuracy    <       0.00000018 Ry

     iteration # 18     ecut=   300.00 Ry     beta= 0.70
     Davidson diagonalization with overlap
     ethr =  2.19E-09,  avg # of iterations =  1.0

     negative rho (up, down):  5.197E-06 0.000E+00

     total cpu time spent up to now is       76.4 secs

     total energy              =     -34.40907950 Ry
     Harris-Foulkes estimate   =     -34.40907955 Ry
     estimated scf accuracy    <       0.00000010 Ry

     iteration # 19     ecut=   300.00 Ry     beta= 0.70
     Davidson diagonalization with overlap
     ethr =  1.26E-09,  avg # of iterations =  3.0

     negative rho (up, down):  5.422E-06 0.000E+00

     total cpu time spent up to now is       80.5 secs

     total energy              =     -34.40907955 Ry
     Harris-Foulkes estimate   =     -34.40907956 Ry
     estimated scf accuracy    <       0.00000003 Ry

     iteration # 20     ecut=   300.00 Ry     beta= 0.70
     Davidson diagonalization with overlap
     ethr =  3.82E-10,  avg # of iterations =  1.0

     negative rho (up, down):  5.581E-06 0.000E+00

     total cpu time spent up to now is       83.5 secs

     End of self-consistent calculation

          k = 0.0000 0.0000 0.0000 (701475 PWs)   bands (ev):

   -24.6008 -11.5904  -7.5778  -6.6154  -5.0859  -0.2481   0.6018   0.9473

     the Fermi energy is    -6.3022 ev

!    total energy              =     -34.40907954 Ry
     Harris-Foulkes estimate   =     -34.40907955 Ry
     estimated scf accuracy    <          9.9E-09 Ry

     The total energy is the sum of the following terms:

     one-electron contribution =     -60.49523253 Ry
     hartree contribution      =      31.92147587 Ry
     xc contribution           =      -8.63870988 Ry
     ewald contribution        =       2.79930512 Ry
     smearing contrib. (-TS)   =       0.00408188 Ry

     convergence has been achieved in  20 iterations

     Writing output data file pwscf.save
 
     init_run     :      5.69s CPU      5.98s WALL (       1 calls)
     electrons    :     69.54s CPU     77.16s WALL (       1 calls)

     Called by init_run:
     wfcinit      :      0.55s CPU      0.61s WALL (       1 calls)
     potinit      :      0.86s CPU      0.90s WALL (       1 calls)

     Called by electrons:
     c_bands      :     28.38s CPU     28.65s WALL (      20 calls)
     sum_band     :     17.66s CPU     19.15s WALL (      20 calls)
     v_of_rho     :     11.98s CPU     12.41s WALL (      21 calls)
     newd         :      5.79s CPU      7.18s WALL (      21 calls)
     mix_rho      :      6.09s CPU      9.86s WALL (      20 calls)

     Called by c_bands:
     init_us_2    :      0.39s CPU      0.41s WALL (      41 calls)
     cegterg      :     27.98s CPU     28.16s WALL (      20 calls)

     Called by sum_band:
     sum_band:bec :      0.00s CPU      0.00s WALL (      20 calls)
     addusdens    :      9.44s CPU     10.79s WALL (      20 calls)

     Called by *egterg:
     h_psi        :     26.77s CPU     26.92s WALL (      88 calls)
     s_psi        :      0.19s CPU      0.19s WALL (      88 calls)
     g_psi        :      0.06s CPU      0.06s WALL (      67 calls)
     cdiaghg      :      0.02s CPU      0.02s WALL (      87 calls)

     Called by h_psi:
     h_psi:pot    :     26.60s CPU     26.75s WALL (      88 calls)
     h_psi:calbec :      0.34s CPU      0.36s WALL (      88 calls)
     vloc_psi     :     26.07s CPU     26.21s WALL (      88 calls)
     add_vuspsi   :      0.18s CPU      0.18s WALL (      88 calls)

     General routines
     calbec       :      0.38s CPU      0.39s WALL (     108 calls)
     fft          :     14.36s CPU     15.10s WALL (     272 calls)
     fftw         :     27.92s CPU     28.08s WALL (    1018 calls)
     davcio       :      0.54s CPU      3.98s WALL (     307 calls)
 
     Parallel routines
     fft_scatt_xy :      9.72s CPU      9.75s WALL (    1290 calls)
     fft_scatt_yz :     10.53s CPU     11.27s WALL (    1290 calls)
 
     PWSCF        :  1m15.98s CPU     1m25.00s WALL

 
   This run was terminated on:   6:26:59  14May2018            

=------------------------------------------------------------------------------=
   JOB DONE.
=------------------------------------------------------------------------------=
