
     Program PWSCF v.6.2 (svn rev. 14038) starts on 14May2018 at  6:37:43 

     This program is part of the open-source Quantum ESPRESSO suite
     for quantum simulation of materials; please cite
         "P. Giannozzi et al., J. Phys.:Condens. Matter 21 395502 (2009);
         "P. Giannozzi et al., J. Phys.:Condens. Matter 29 465901 (2017);
          URL http://www.quantum-espresso.org", 
     in publications or presentations arising from this work. More details at
     http://www.quantum-espresso.org/quote

     Parallel version (MPI), running on    28 processors

     MPI processes distributed on     1 nodes
     R & G space division:  proc/nbgrp/npool/nimage =      28
     Reading input from ../ecut300/21000.in
Warning: card &IONS ignored
Warning: card     POT_EXTRAPOLATION='SECOND-ORDER' ignored
Warning: card     WFC_EXTRAPOLATION='SECOND-ORDER' ignored
Warning: card     ION_TEMPERATURE = 'ANDERSEN' ignored
Warning: card / ignored

     Current dimensions of program PWSCF are:
     Max number of different atomic species (ntypx) = 10
     Max number of k-points (npk) =  40000
     Max angular momentum in pseudopotentials (lmaxx) =  3

     Subspace diagonalization in iterative solution of the eigenvalue problem:
     a serial algorithm will be used

 
     Parallelization info
     --------------------
     sticks:   dense  smooth     PW     G-vecs:    dense   smooth      PW
     Min        1364    1364    341               200576   200576   25051
     Max        1365    1365    342               200579   200579   25054
     Sum       38197   38197   9549              5616169  5616169  701475
 


     bravais-lattice index     =            1
     lattice parameter (alat)  =      20.0000  a.u.
     unit-cell volume          =    8000.0000 (a.u.)^3
     number of atoms/cell      =            3
     number of atomic types    =            2
     number of electrons       =         8.00
     number of Kohn-Sham states=            8
     kinetic-energy cutoff     =     300.0000  Ry
     charge density cutoff     =    1200.0000  Ry
     convergence threshold     =      1.0E-08
     mixing beta               =       0.7000
     number of iterations used =            8  plain     mixing
     Exchange-correlation      = PBE ( 1  4  3  4 0 0)

     celldm(1)=  20.000000  celldm(2)=   0.000000  celldm(3)=   0.000000
     celldm(4)=   0.000000  celldm(5)=   0.000000  celldm(6)=   0.000000

     crystal axes: (cart. coord. in units of alat)
               a(1) = (   1.000000   0.000000   0.000000 )  
               a(2) = (   0.000000   1.000000   0.000000 )  
               a(3) = (   0.000000   0.000000   1.000000 )  

     reciprocal axes: (cart. coord. in units 2 pi/alat)
               b(1) = (  1.000000  0.000000  0.000000 )  
               b(2) = (  0.000000  1.000000  0.000000 )  
               b(3) = (  0.000000  0.000000  1.000000 )  


     PseudoPot. # 1 for H  read from file:
     ../pslibrary/pbe/PSEUDOPOTENTIALS/H.pbe-rrkjus_psl.1.0.0.UPF
     MD5 check sum: b2b1ff84b4ceabe23335d1bf25025923
     Pseudo is Ultrasoft, Zval =  1.0
     Generated using "atomic" code by A. Dal Corso v.6.2 svn rev. 14038
     Using radial grid of  929 points,  2 beta functions with: 
                l(1) =   0
                l(2) =   0
     Q(r) pseudized with 0 coefficients 


     PseudoPot. # 2 for O  read from file:
     ../pslibrary/pbe/PSEUDOPOTENTIALS/O.pbe-n-rrkjus_psl.1.0.0.UPF
     MD5 check sum: 61455b21a47f6823f888c3bfb9bd1235
     Pseudo is Ultrasoft + core correction, Zval =  6.0
     Generated using "atomic" code by A. Dal Corso v.6.2 svn rev. 14038
     Using radial grid of 1095 points,  4 beta functions with: 
                l(1) =   0
                l(2) =   0
                l(3) =   1
                l(4) =   1
     Q(r) pseudized with 0 coefficients 


     atomic species   valence    mass     pseudopotential
        H              1.00     1.01000     H ( 1.00)
        O              6.00    16.00000     O ( 1.00)

     No symmetry found



   Cartesian axes

     site n.     atom                  positions (alat units)
         1           O   tau(   1) = (   0.0105362   0.0179194   0.0001784  )
         2           H   tau(   2) = (   0.0265641  -0.0687826   0.0591369  )
         3           H   tau(   3) = (  -0.1934738  -0.2150896   0.0264013  )

     number of k points=     1  Marzari-Vanderbilt smearing, width (Ry)=  0.0250
                       cart. coord. in units 2pi/alat
        k(    1) = (   0.0000000   0.0000000   0.0000000), wk =   2.0000000

     Dense  grid:  5616169 G-vectors     FFT dimensions: ( 225, 225, 225)

     Estimated max dynamical RAM per process >     222.26 MB

     Estimated total dynamical RAM >       6.08 GB

     Initial potential from superposition of free atoms

     starting charge    7.99998, renormalised to    8.00000

     negative rho (up, down):  3.020E-05 0.000E+00
     Starting wfc are    6 randomized atomic wfcs +    2 random wfc

     total cpu time spent up to now is        6.6 secs

     Self-consistent Calculation

     iteration #  1     ecut=   300.00 Ry     beta= 0.70
     Davidson diagonalization with overlap
     ethr =  1.00E-02,  avg # of iterations =  8.0

     negative rho (up, down):  9.592E-06 0.000E+00

     total cpu time spent up to now is       11.1 secs

     total energy              =     -33.36066037 Ry
     Harris-Foulkes estimate   =     -34.51065079 Ry
     estimated scf accuracy    <       1.46718792 Ry

     iteration #  2     ecut=   300.00 Ry     beta= 0.70
     Davidson diagonalization with overlap
     ethr =  1.00E-02,  avg # of iterations =  3.0

     total cpu time spent up to now is       15.2 secs

     total energy              =     -32.96252787 Ry
     Harris-Foulkes estimate   =     -36.80512672 Ry
     estimated scf accuracy    <      14.45435552 Ry

     iteration #  3     ecut=   300.00 Ry     beta= 0.70
     Davidson diagonalization with overlap
     ethr =  1.00E-02,  avg # of iterations =  4.0

     total cpu time spent up to now is       19.4 secs

     total energy              =     -34.27104257 Ry
     Harris-Foulkes estimate   =     -34.40799631 Ry
     estimated scf accuracy    <       1.49365715 Ry

     iteration #  4     ecut=   300.00 Ry     beta= 0.70
     Davidson diagonalization with overlap
     ethr =  1.00E-02,  avg # of iterations =  1.0

     total cpu time spent up to now is       22.8 secs

     total energy              =     -34.19367807 Ry
     Harris-Foulkes estimate   =     -34.27881196 Ry
     estimated scf accuracy    <       0.66666251 Ry

     iteration #  5     ecut=   300.00 Ry     beta= 0.70
     Davidson diagonalization with overlap
     ethr =  8.33E-03,  avg # of iterations =  1.0

     total cpu time spent up to now is       26.3 secs

     total energy              =     -34.25296202 Ry
     Harris-Foulkes estimate   =     -34.32264865 Ry
     estimated scf accuracy    <       0.85680563 Ry

     iteration #  6     ecut=   300.00 Ry     beta= 0.70
     Davidson diagonalization with overlap
     ethr =  8.33E-03,  avg # of iterations =  1.0

     total cpu time spent up to now is       29.8 secs

     total energy              =     -34.24951287 Ry
     Harris-Foulkes estimate   =     -34.26632969 Ry
     estimated scf accuracy    <       0.02893122 Ry

     iteration #  7     ecut=   300.00 Ry     beta= 0.70
     Davidson diagonalization with overlap
     ethr =  3.62E-04,  avg # of iterations =  2.0

     total cpu time spent up to now is       33.5 secs

     total energy              =     -34.31285163 Ry
     Harris-Foulkes estimate   =     -34.40308016 Ry
     estimated scf accuracy    <       1.42361788 Ry

     iteration #  8     ecut=   300.00 Ry     beta= 0.70
     Davidson diagonalization with overlap
     ethr =  3.62E-04,  avg # of iterations =  1.0

     total cpu time spent up to now is       37.1 secs

     total energy              =     -34.29898111 Ry
     Harris-Foulkes estimate   =     -34.31516135 Ry
     estimated scf accuracy    <       1.18790271 Ry

     iteration #  9     ecut=   300.00 Ry     beta= 0.70
     Davidson diagonalization with overlap
     ethr =  3.62E-04,  avg # of iterations =  1.0

     total cpu time spent up to now is       40.8 secs

     total energy              =     -34.22983448 Ry
     Harris-Foulkes estimate   =     -34.29901888 Ry
     estimated scf accuracy    <       1.18448851 Ry

     iteration # 10     ecut=   300.00 Ry     beta= 0.70
     Davidson diagonalization with overlap
     ethr =  3.62E-04,  avg # of iterations =  1.0

     total cpu time spent up to now is       44.4 secs

     total energy              =     -34.27640487 Ry
     Harris-Foulkes estimate   =     -34.26900978 Ry
     estimated scf accuracy    <       0.19586909 Ry

     iteration # 11     ecut=   300.00 Ry     beta= 0.70
     Davidson diagonalization with overlap
     ethr =  3.62E-04,  avg # of iterations =  1.0

     total cpu time spent up to now is       48.0 secs

     total energy              =     -34.27111326 Ry
     Harris-Foulkes estimate   =     -34.27917993 Ry
     estimated scf accuracy    <       0.51733071 Ry

     iteration # 12     ecut=   300.00 Ry     beta= 0.70
     Davidson diagonalization with overlap
     ethr =  3.62E-04,  avg # of iterations =  1.0

     negative rho (up, down):  3.926E-07 0.000E+00

     total cpu time spent up to now is       51.6 secs

     total energy              =     -34.27183573 Ry
     Harris-Foulkes estimate   =     -34.27208532 Ry
     estimated scf accuracy    <       0.31162850 Ry

     iteration # 13     ecut=   300.00 Ry     beta= 0.70
     Davidson diagonalization with overlap
     ethr =  3.62E-04,  avg # of iterations =  1.0

     negative rho (up, down):  8.570E-06 0.000E+00

     total cpu time spent up to now is       55.3 secs

     total energy              =     -34.26890305 Ry
     Harris-Foulkes estimate   =     -34.27195115 Ry
     estimated scf accuracy    <       0.30468383 Ry

     iteration # 14     ecut=   300.00 Ry     beta= 0.70
     Davidson diagonalization with overlap
     ethr =  3.62E-04,  avg # of iterations =  1.0

     negative rho (up, down):  8.239E-07 0.000E+00

     total cpu time spent up to now is       58.9 secs

     total energy              =     -34.26416988 Ry
     Harris-Foulkes estimate   =     -34.26925161 Ry
     estimated scf accuracy    <       0.18929774 Ry

     iteration # 15     ecut=   300.00 Ry     beta= 0.70
     Davidson diagonalization with overlap
     ethr =  3.62E-04,  avg # of iterations =  1.0

     total cpu time spent up to now is       62.5 secs

     total energy              =     -34.26565694 Ry
     Harris-Foulkes estimate   =     -34.26594589 Ry
     estimated scf accuracy    <       0.01313279 Ry

     iteration # 16     ecut=   300.00 Ry     beta= 0.70
     Davidson diagonalization with overlap
     ethr =  1.64E-04,  avg # of iterations =  1.0

     total cpu time spent up to now is       66.2 secs

     total energy              =     -34.26527866 Ry
     Harris-Foulkes estimate   =     -34.26576097 Ry
     estimated scf accuracy    <       0.00147336 Ry

     iteration # 17     ecut=   300.00 Ry     beta= 0.70
     Davidson diagonalization with overlap
     ethr =  1.84E-05,  avg # of iterations =  8.0

     negative rho (up, down):  1.460E-06 0.000E+00

     total cpu time spent up to now is       70.3 secs

     total energy              =     -34.26126460 Ry
     Harris-Foulkes estimate   =     -34.26864178 Ry
     estimated scf accuracy    <       0.19310269 Ry

     iteration # 18     ecut=   300.00 Ry     beta= 0.70
     Davidson diagonalization with overlap
     ethr =  1.84E-05,  avg # of iterations =  1.0

     negative rho (up, down):  1.175E-04 0.000E+00

     total cpu time spent up to now is       74.0 secs

     total energy              =     -34.26612142 Ry
     Harris-Foulkes estimate   =     -34.26596629 Ry
     estimated scf accuracy    <       0.01386618 Ry

     iteration # 19     ecut=   300.00 Ry     beta= 0.70
     Davidson diagonalization with overlap
     ethr =  1.84E-05,  avg # of iterations =  1.0

     negative rho (up, down):  6.845E-06 0.000E+00

     total cpu time spent up to now is       77.6 secs

     total energy              =     -34.26574761 Ry
     Harris-Foulkes estimate   =     -34.26616940 Ry
     estimated scf accuracy    <       0.02572976 Ry

     iteration # 20     ecut=   300.00 Ry     beta= 0.70
     Davidson diagonalization with overlap
     ethr =  1.84E-05,  avg # of iterations =  1.0

     negative rho (up, down):  5.035E-06 0.000E+00

     total cpu time spent up to now is       81.2 secs

     total energy              =     -34.26567195 Ry
     Harris-Foulkes estimate   =     -34.26586164 Ry
     estimated scf accuracy    <       0.00617976 Ry

     iteration # 21     ecut=   300.00 Ry     beta= 0.70
     Davidson diagonalization with overlap
     ethr =  1.84E-05,  avg # of iterations =  1.0

     negative rho (up, down):  2.712E-06 0.000E+00

     total cpu time spent up to now is       84.8 secs

     total energy              =     -34.26575643 Ry
     Harris-Foulkes estimate   =     -34.26575595 Ry
     estimated scf accuracy    <       0.00007796 Ry

     iteration # 22     ecut=   300.00 Ry     beta= 0.70
     Davidson diagonalization with overlap
     ethr =  9.74E-07,  avg # of iterations = 14.0

     negative rho (up, down):  3.545E-06 0.000E+00

     total cpu time spent up to now is       89.4 secs

     total energy              =     -34.26575960 Ry
     Harris-Foulkes estimate   =     -34.26576350 Ry
     estimated scf accuracy    <       0.00018965 Ry

     iteration # 23     ecut=   300.00 Ry     beta= 0.70
     Davidson diagonalization with overlap
     ethr =  9.74E-07,  avg # of iterations =  1.0

     negative rho (up, down):  3.475E-06 0.000E+00

     total cpu time spent up to now is       93.1 secs

     total energy              =     -34.26576087 Ry
     Harris-Foulkes estimate   =     -34.26576169 Ry
     estimated scf accuracy    <       0.00002037 Ry

     iteration # 24     ecut=   300.00 Ry     beta= 0.70
     Davidson diagonalization with overlap
     ethr =  2.55E-07,  avg # of iterations =  1.0

     negative rho (up, down):  3.487E-06 0.000E+00

     total cpu time spent up to now is       96.7 secs

     total energy              =     -34.26576190 Ry
     Harris-Foulkes estimate   =     -34.26576192 Ry
     estimated scf accuracy    <       0.00000022 Ry

     iteration # 25     ecut=   300.00 Ry     beta= 0.70
     Davidson diagonalization with overlap
     ethr =  2.79E-09,  avg # of iterations =  4.0

     negative rho (up, down):  3.524E-06 0.000E+00

     total cpu time spent up to now is      101.2 secs

     total energy              =     -34.26576338 Ry
     Harris-Foulkes estimate   =     -34.26576338 Ry
     estimated scf accuracy    <       0.00000012 Ry

     iteration # 26     ecut=   300.00 Ry     beta= 0.70
     Davidson diagonalization with overlap
     ethr =  1.54E-09,  avg # of iterations =  1.0

     negative rho (up, down):  3.239E-06 0.000E+00

     total cpu time spent up to now is      104.9 secs

     total energy              =     -34.26576340 Ry
     Harris-Foulkes estimate   =     -34.26576338 Ry
     estimated scf accuracy    <       0.00000013 Ry

     iteration # 27     ecut=   300.00 Ry     beta= 0.70
     Davidson diagonalization with overlap
     ethr =  1.54E-09,  avg # of iterations =  1.0

     negative rho (up, down):  3.997E-06 0.000E+00

     total cpu time spent up to now is      108.5 secs

     total energy              =     -34.26576333 Ry
     Harris-Foulkes estimate   =     -34.26576341 Ry
     estimated scf accuracy    <       0.00000022 Ry

     iteration # 28     ecut=   300.00 Ry     beta= 0.70
     Davidson diagonalization with overlap
     ethr =  1.54E-09,  avg # of iterations =  3.0

     negative rho (up, down):  3.494E-06 0.000E+00

     total cpu time spent up to now is      112.3 secs

     total energy              =     -34.26576335 Ry
     Harris-Foulkes estimate   =     -34.26576337 Ry
     estimated scf accuracy    <       0.00000013 Ry

     iteration # 29     ecut=   300.00 Ry     beta= 0.70
     Davidson diagonalization with overlap
     ethr =  1.54E-09,  avg # of iterations =  1.0

     negative rho (up, down):  3.311E-06 0.000E+00

     total cpu time spent up to now is      115.9 secs

     total energy              =     -34.26576335 Ry
     Harris-Foulkes estimate   =     -34.26576336 Ry
     estimated scf accuracy    <       0.00000002 Ry

     iteration # 30     ecut=   300.00 Ry     beta= 0.70
     Davidson diagonalization with overlap
     ethr =  2.98E-10,  avg # of iterations =  2.0

     negative rho (up, down):  3.275E-06 0.000E+00

     total cpu time spent up to now is      119.0 secs

     End of self-consistent calculation

          k = 0.0000 0.0000 0.0000 (701475 PWs)   bands (ev):

   -23.2755 -10.3914  -7.4806  -7.3335  -7.0586  -0.9827   0.0477   0.6659

     the Fermi energy is    -7.1610 ev

!    total energy              =     -34.26576335 Ry
     Harris-Foulkes estimate   =     -34.26576336 Ry
     estimated scf accuracy    <          5.1E-09 Ry

     The total energy is the sum of the following terms:

     one-electron contribution =     -53.19107730 Ry
     hartree contribution      =      28.16690311 Ry
     xc contribution           =      -8.26386108 Ry
     ewald contribution        =      -0.97101064 Ry
     smearing contrib. (-TS)   =      -0.00671744 Ry

     convergence has been achieved in  30 iterations

     Writing output data file pwscf.save
 
     init_run     :      5.63s CPU      5.91s WALL (       1 calls)
     electrons    :     98.27s CPU    112.82s WALL (       1 calls)

     Called by init_run:
     wfcinit      :      0.54s CPU      0.59s WALL (       1 calls)
     potinit      :      0.86s CPU      0.90s WALL (       1 calls)

     Called by electrons:
     c_bands      :     37.53s CPU     37.90s WALL (      30 calls)
     sum_band     :     26.54s CPU     28.76s WALL (      30 calls)
     v_of_rho     :     17.97s CPU     18.66s WALL (      31 calls)
     newd         :      8.61s CPU     10.57s WALL (      31 calls)
     mix_rho      :      7.90s CPU     16.90s WALL (      30 calls)

     Called by c_bands:
     init_us_2    :      0.61s CPU      0.64s WALL (      61 calls)
     cegterg      :     36.93s CPU     37.16s WALL (      30 calls)

     Called by sum_band:
     sum_band:bec :      0.00s CPU      0.00s WALL (      30 calls)
     addusdens    :     14.15s CPU     16.17s WALL (      30 calls)

     Called by *egterg:
     h_psi        :     35.34s CPU     35.53s WALL (     100 calls)
     s_psi        :      0.24s CPU      0.24s WALL (     100 calls)
     g_psi        :      0.08s CPU      0.08s WALL (      69 calls)
     cdiaghg      :      0.03s CPU      0.03s WALL (      99 calls)

     Called by h_psi:
     h_psi:pot    :     35.10s CPU     35.29s WALL (     100 calls)
     h_psi:calbec :      0.40s CPU      0.41s WALL (     100 calls)
     vloc_psi     :     34.48s CPU     34.66s WALL (     100 calls)
     add_vuspsi   :      0.22s CPU      0.22s WALL (     100 calls)

     General routines
     calbec       :      0.44s CPU      0.45s WALL (     130 calls)
     fft          :     21.04s CPU     22.16s WALL (     402 calls)
     fftw         :     37.94s CPU     38.14s WALL (    1374 calls)
     davcio       :      0.88s CPU      9.45s WALL (     507 calls)
 
     Parallel routines
     fft_scatt_xy :     13.62s CPU     13.66s WALL (    1776 calls)
     fft_scatt_yz :     14.93s CPU     16.05s WALL (    1776 calls)
 
     PWSCF        :  1m44.64s CPU     2m 0.31s WALL

 
   This run was terminated on:   6:39:44  14May2018            

=------------------------------------------------------------------------------=
   JOB DONE.
=------------------------------------------------------------------------------=
