
     Program PWSCF v.6.2 (svn rev. 14038) starts on 14May2018 at  5:45:21 

     This program is part of the open-source Quantum ESPRESSO suite
     for quantum simulation of materials; please cite
         "P. Giannozzi et al., J. Phys.:Condens. Matter 21 395502 (2009);
         "P. Giannozzi et al., J. Phys.:Condens. Matter 29 465901 (2017);
          URL http://www.quantum-espresso.org", 
     in publications or presentations arising from this work. More details at
     http://www.quantum-espresso.org/quote

     Parallel version (MPI), running on    28 processors

     MPI processes distributed on     1 nodes
     R & G space division:  proc/nbgrp/npool/nimage =      28
     Reading input from ../ecut300/5500.in
Warning: card &IONS ignored
Warning: card     POT_EXTRAPOLATION='SECOND-ORDER' ignored
Warning: card     WFC_EXTRAPOLATION='SECOND-ORDER' ignored
Warning: card     ION_TEMPERATURE = 'ANDERSEN' ignored
Warning: card / ignored

     Current dimensions of program PWSCF are:
     Max number of different atomic species (ntypx) = 10
     Max number of k-points (npk) =  40000
     Max angular momentum in pseudopotentials (lmaxx) =  3

     Subspace diagonalization in iterative solution of the eigenvalue problem:
     a serial algorithm will be used

 
     Parallelization info
     --------------------
     sticks:   dense  smooth     PW     G-vecs:    dense   smooth      PW
     Min        1364    1364    341               200576   200576   25051
     Max        1365    1365    342               200579   200579   25054
     Sum       38197   38197   9549              5616169  5616169  701475
 


     bravais-lattice index     =            1
     lattice parameter (alat)  =      20.0000  a.u.
     unit-cell volume          =    8000.0000 (a.u.)^3
     number of atoms/cell      =            3
     number of atomic types    =            2
     number of electrons       =         8.00
     number of Kohn-Sham states=            8
     kinetic-energy cutoff     =     300.0000  Ry
     charge density cutoff     =    1200.0000  Ry
     convergence threshold     =      1.0E-08
     mixing beta               =       0.7000
     number of iterations used =            8  plain     mixing
     Exchange-correlation      = PBE ( 1  4  3  4 0 0)

     celldm(1)=  20.000000  celldm(2)=   0.000000  celldm(3)=   0.000000
     celldm(4)=   0.000000  celldm(5)=   0.000000  celldm(6)=   0.000000

     crystal axes: (cart. coord. in units of alat)
               a(1) = (   1.000000   0.000000   0.000000 )  
               a(2) = (   0.000000   1.000000   0.000000 )  
               a(3) = (   0.000000   0.000000   1.000000 )  

     reciprocal axes: (cart. coord. in units 2 pi/alat)
               b(1) = (  1.000000  0.000000  0.000000 )  
               b(2) = (  0.000000  1.000000  0.000000 )  
               b(3) = (  0.000000  0.000000  1.000000 )  


     PseudoPot. # 1 for H  read from file:
     ../pslibrary/pbe/PSEUDOPOTENTIALS/H.pbe-rrkjus_psl.1.0.0.UPF
     MD5 check sum: b2b1ff84b4ceabe23335d1bf25025923
     Pseudo is Ultrasoft, Zval =  1.0
     Generated using "atomic" code by A. Dal Corso v.6.2 svn rev. 14038
     Using radial grid of  929 points,  2 beta functions with: 
                l(1) =   0
                l(2) =   0
     Q(r) pseudized with 0 coefficients 


     PseudoPot. # 2 for O  read from file:
     ../pslibrary/pbe/PSEUDOPOTENTIALS/O.pbe-n-rrkjus_psl.1.0.0.UPF
     MD5 check sum: 61455b21a47f6823f888c3bfb9bd1235
     Pseudo is Ultrasoft + core correction, Zval =  6.0
     Generated using "atomic" code by A. Dal Corso v.6.2 svn rev. 14038
     Using radial grid of 1095 points,  4 beta functions with: 
                l(1) =   0
                l(2) =   0
                l(3) =   1
                l(4) =   1
     Q(r) pseudized with 0 coefficients 


     atomic species   valence    mass     pseudopotential
        H              1.00     1.01000     H ( 1.00)
        O              6.00    16.00000     O ( 1.00)

     No symmetry found



   Cartesian axes

     site n.     atom                  positions (alat units)
         1           O   tau(   1) = (   0.0025643   0.0006510   0.0125866  )
         2           H   tau(   2) = (   0.0351142  -0.0521297  -0.1032954  )
         3           H   tau(   3) = (  -0.0757367   0.0418167  -0.0077318  )

     number of k points=     1  Marzari-Vanderbilt smearing, width (Ry)=  0.0250
                       cart. coord. in units 2pi/alat
        k(    1) = (   0.0000000   0.0000000   0.0000000), wk =   2.0000000

     Dense  grid:  5616169 G-vectors     FFT dimensions: ( 225, 225, 225)

     Estimated max dynamical RAM per process >     222.26 MB

     Estimated total dynamical RAM >       6.08 GB

     Initial potential from superposition of free atoms

     starting charge    7.99998, renormalised to    8.00000

     negative rho (up, down):  3.502E-05 0.000E+00
     Starting wfc are    6 randomized atomic wfcs +    2 random wfc

     total cpu time spent up to now is        6.9 secs

     Self-consistent Calculation

     iteration #  1     ecut=   300.00 Ry     beta= 0.70
     Davidson diagonalization with overlap
     ethr =  1.00E-02,  avg # of iterations =  7.0

     negative rho (up, down):  1.204E-05 0.000E+00

     total cpu time spent up to now is       11.5 secs

     total energy              =     -34.39588837 Ry
     Harris-Foulkes estimate   =     -34.78131243 Ry
     estimated scf accuracy    <       0.51539039 Ry

     iteration #  2     ecut=   300.00 Ry     beta= 0.70
     Davidson diagonalization with overlap
     ethr =  6.44E-03,  avg # of iterations =  3.0

     negative rho (up, down):  1.656E-06 0.000E+00

     total cpu time spent up to now is       15.3 secs

     total energy              =     -34.38501349 Ry
     Harris-Foulkes estimate   =     -34.93540489 Ry
     estimated scf accuracy    <       1.45542340 Ry

     iteration #  3     ecut=   300.00 Ry     beta= 0.70
     Davidson diagonalization with overlap
     ethr =  6.44E-03,  avg # of iterations =  1.0

     total cpu time spent up to now is       18.6 secs

     total energy              =     -34.50695962 Ry
     Harris-Foulkes estimate   =     -34.53553981 Ry
     estimated scf accuracy    <       0.14109025 Ry

     iteration #  4     ecut=   300.00 Ry     beta= 0.70
     Davidson diagonalization with overlap
     ethr =  1.76E-03,  avg # of iterations =  3.0

     total cpu time spent up to now is       22.4 secs

     total energy              =     -34.64488322 Ry
     Harris-Foulkes estimate   =     -34.65963882 Ry
     estimated scf accuracy    <       0.06106013 Ry

     iteration #  5     ecut=   300.00 Ry     beta= 0.70
     Davidson diagonalization with overlap
     ethr =  7.63E-04,  avg # of iterations =  1.0

     total cpu time spent up to now is       25.8 secs

     total energy              =     -34.64422203 Ry
     Harris-Foulkes estimate   =     -34.64670358 Ry
     estimated scf accuracy    <       0.02237025 Ry

     iteration #  6     ecut=   300.00 Ry     beta= 0.70
     Davidson diagonalization with overlap
     ethr =  2.80E-04,  avg # of iterations =  4.0

     total cpu time spent up to now is       29.6 secs

     total energy              =     -34.64454670 Ry
     Harris-Foulkes estimate   =     -34.64531316 Ry
     estimated scf accuracy    <       0.01185376 Ry

     iteration #  7     ecut=   300.00 Ry     beta= 0.70
     Davidson diagonalization with overlap
     ethr =  1.48E-04,  avg # of iterations =  1.0

     total cpu time spent up to now is       33.1 secs

     total energy              =     -34.64480622 Ry
     Harris-Foulkes estimate   =     -34.64485066 Ry
     estimated scf accuracy    <       0.00819660 Ry

     iteration #  8     ecut=   300.00 Ry     beta= 0.70
     Davidson diagonalization with overlap
     ethr =  1.02E-04,  avg # of iterations =  1.0

     total cpu time spent up to now is       36.6 secs

     total energy              =     -34.64509550 Ry
     Harris-Foulkes estimate   =     -34.64506295 Ry
     estimated scf accuracy    <       0.00739546 Ry

     iteration #  9     ecut=   300.00 Ry     beta= 0.70
     Davidson diagonalization with overlap
     ethr =  9.24E-05,  avg # of iterations =  1.0

     total cpu time spent up to now is       40.2 secs

     total energy              =     -34.64524572 Ry
     Harris-Foulkes estimate   =     -34.64523258 Ry
     estimated scf accuracy    <       0.00655436 Ry

     iteration # 10     ecut=   300.00 Ry     beta= 0.70
     Davidson diagonalization with overlap
     ethr =  8.19E-05,  avg # of iterations =  1.0

     negative rho (up, down):  7.275E-08 0.000E+00

     total cpu time spent up to now is       43.8 secs

     total energy              =     -34.64481856 Ry
     Harris-Foulkes estimate   =     -34.64536143 Ry
     estimated scf accuracy    <       0.00648582 Ry

     iteration # 11     ecut=   300.00 Ry     beta= 0.70
     Davidson diagonalization with overlap
     ethr =  8.11E-05,  avg # of iterations =  1.0

     negative rho (up, down):  1.847E-04 0.000E+00

     total cpu time spent up to now is       47.4 secs

     total energy              =     -34.64366256 Ry
     Harris-Foulkes estimate   =     -34.64493626 Ry
     estimated scf accuracy    <       0.00434874 Ry

     iteration # 12     ecut=   300.00 Ry     beta= 0.70
     Davidson diagonalization with overlap
     ethr =  5.44E-05,  avg # of iterations =  3.0

     negative rho (up, down):  8.554E-05 0.000E+00

     total cpu time spent up to now is       51.1 secs

     total energy              =     -34.64475992 Ry
     Harris-Foulkes estimate   =     -34.64476405 Ry
     estimated scf accuracy    <       0.00046468 Ry

     iteration # 13     ecut=   300.00 Ry     beta= 0.70
     Davidson diagonalization with overlap
     ethr =  5.81E-06,  avg # of iterations =  9.0

     negative rho (up, down):  7.990E-05 0.000E+00

     total cpu time spent up to now is       55.9 secs

     total energy              =     -34.64489100 Ry
     Harris-Foulkes estimate   =     -34.64489469 Ry
     estimated scf accuracy    <       0.00023455 Ry

     iteration # 14     ecut=   300.00 Ry     beta= 0.70
     Davidson diagonalization with overlap
     ethr =  2.93E-06,  avg # of iterations =  1.0

     negative rho (up, down):  3.891E-05 0.000E+00

     total cpu time spent up to now is       59.5 secs

     total energy              =     -34.64486679 Ry
     Harris-Foulkes estimate   =     -34.64489214 Ry
     estimated scf accuracy    <       0.00022551 Ry

     iteration # 15     ecut=   300.00 Ry     beta= 0.70
     Davidson diagonalization with overlap
     ethr =  2.82E-06,  avg # of iterations =  1.0

     negative rho (up, down):  1.181E-05 0.000E+00

     total cpu time spent up to now is       63.0 secs

     total energy              =     -34.64482469 Ry
     Harris-Foulkes estimate   =     -34.64486826 Ry
     estimated scf accuracy    <       0.00015969 Ry

     iteration # 16     ecut=   300.00 Ry     beta= 0.70
     Davidson diagonalization with overlap
     ethr =  2.00E-06,  avg # of iterations =  1.0

     negative rho (up, down):  1.035E-05 0.000E+00

     total cpu time spent up to now is       66.6 secs

     total energy              =     -34.64482710 Ry
     Harris-Foulkes estimate   =     -34.64483150 Ry
     estimated scf accuracy    <       0.00004846 Ry

     iteration # 17     ecut=   300.00 Ry     beta= 0.70
     Davidson diagonalization with overlap
     ethr =  6.06E-07,  avg # of iterations =  2.0

     negative rho (up, down):  1.004E-05 0.000E+00

     total cpu time spent up to now is       70.3 secs

     total energy              =     -34.64482917 Ry
     Harris-Foulkes estimate   =     -34.64482999 Ry
     estimated scf accuracy    <       0.00003130 Ry

     iteration # 18     ecut=   300.00 Ry     beta= 0.70
     Davidson diagonalization with overlap
     ethr =  3.91E-07,  avg # of iterations =  1.0

     negative rho (up, down):  5.700E-06 0.000E+00

     total cpu time spent up to now is       73.8 secs

     total energy              =     -34.64483251 Ry
     Harris-Foulkes estimate   =     -34.64483048 Ry
     estimated scf accuracy    <       0.00002605 Ry

     iteration # 19     ecut=   300.00 Ry     beta= 0.70
     Davidson diagonalization with overlap
     ethr =  3.26E-07,  avg # of iterations = 17.0

     negative rho (up, down):  8.625E-06 0.000E+00

     total cpu time spent up to now is       79.0 secs

     total energy              =     -34.64483399 Ry
     Harris-Foulkes estimate   =     -34.64484009 Ry
     estimated scf accuracy    <       0.00006125 Ry

     iteration # 20     ecut=   300.00 Ry     beta= 0.70
     Davidson diagonalization with overlap
     ethr =  3.26E-07,  avg # of iterations =  1.0

     negative rho (up, down):  8.582E-06 0.000E+00

     total cpu time spent up to now is       82.6 secs

     total energy              =     -34.64482178 Ry
     Harris-Foulkes estimate   =     -34.64483460 Ry
     estimated scf accuracy    <       0.00004549 Ry

     iteration # 21     ecut=   300.00 Ry     beta= 0.70
     Davidson diagonalization with overlap
     ethr =  3.26E-07,  avg # of iterations =  8.0

     negative rho (up, down):  8.054E-06 0.000E+00

     total cpu time spent up to now is       86.7 secs

     total energy              =     -34.64482127 Ry
     Harris-Foulkes estimate   =     -34.64482451 Ry
     estimated scf accuracy    <       0.00000939 Ry

     iteration # 22     ecut=   300.00 Ry     beta= 0.70
     Davidson diagonalization with overlap
     ethr =  1.17E-07,  avg # of iterations =  3.0

     negative rho (up, down):  6.755E-06 0.000E+00

     total cpu time spent up to now is       90.5 secs

     total energy              =     -34.64482419 Ry
     Harris-Foulkes estimate   =     -34.64482418 Ry
     estimated scf accuracy    <       0.00000012 Ry

     iteration # 23     ecut=   300.00 Ry     beta= 0.70
     Davidson diagonalization with overlap
     ethr =  1.47E-09,  avg # of iterations =  4.0

     negative rho (up, down):  6.400E-06 0.000E+00

     total cpu time spent up to now is       94.7 secs

     total energy              =     -34.64482444 Ry
     Harris-Foulkes estimate   =     -34.64482447 Ry
     estimated scf accuracy    <       0.00000009 Ry

     iteration # 24     ecut=   300.00 Ry     beta= 0.70
     Davidson diagonalization with overlap
     ethr =  1.15E-09,  avg # of iterations =  5.0

     negative rho (up, down):  6.376E-06 0.000E+00

     total cpu time spent up to now is       98.5 secs

     total energy              =     -34.64482446 Ry
     Harris-Foulkes estimate   =     -34.64482447 Ry
     estimated scf accuracy    <       0.00000003 Ry

     iteration # 25     ecut=   300.00 Ry     beta= 0.70
     Davidson diagonalization with overlap
     ethr =  3.77E-10,  avg # of iterations =  3.0

     negative rho (up, down):  6.386E-06 0.000E+00

     total cpu time spent up to now is      102.2 secs

     total energy              =     -34.64482446 Ry
     Harris-Foulkes estimate   =     -34.64482446 Ry
     estimated scf accuracy    <       0.00000002 Ry

     iteration # 26     ecut=   300.00 Ry     beta= 0.70
     Davidson diagonalization with overlap
     ethr =  1.88E-10,  avg # of iterations =  3.0

     negative rho (up, down):  6.421E-06 0.000E+00

     total cpu time spent up to now is      105.6 secs

     End of self-consistent calculation

          k = 0.0000 0.0000 0.0000 (701475 PWs)   bands (ev):

   -24.0494 -11.3338  -9.0202  -6.8401  -2.7486  -0.1731   0.5050   0.9780

     the Fermi energy is    -4.9387 ev

!    total energy              =     -34.64482446 Ry
     Harris-Foulkes estimate   =     -34.64482446 Ry
     estimated scf accuracy    <          8.3E-10 Ry

     The total energy is the sum of the following terms:

     one-electron contribution =     -60.68873504 Ry
     hartree contribution      =      31.92799083 Ry
     xc contribution           =      -8.59353154 Ry
     ewald contribution        =       2.70945129 Ry
     smearing contrib. (-TS)   =       0.00000000 Ry

     convergence has been achieved in  26 iterations

     Writing output data file pwscf.save
 
     init_run     :      5.76s CPU      6.04s WALL (       1 calls)
     electrons    :     88.27s CPU     99.17s WALL (       1 calls)

     Called by init_run:
     wfcinit      :      0.60s CPU      0.65s WALL (       1 calls)
     potinit      :      0.88s CPU      0.93s WALL (       1 calls)

     Called by electrons:
     c_bands      :     35.24s CPU     35.59s WALL (      26 calls)
     sum_band     :     22.87s CPU     24.81s WALL (      26 calls)
     v_of_rho     :     15.28s CPU     15.88s WALL (      27 calls)
     newd         :      7.52s CPU      9.26s WALL (      27 calls)
     mix_rho      :      7.54s CPU     13.48s WALL (      26 calls)

     Called by c_bands:
     init_us_2    :      0.51s CPU      0.54s WALL (      53 calls)
     cegterg      :     34.75s CPU     34.96s WALL (      26 calls)

     Called by sum_band:
     sum_band:bec :      0.00s CPU      0.00s WALL (      26 calls)
     addusdens    :     12.29s CPU     14.05s WALL (      26 calls)

     Called by *egterg:
     h_psi        :     33.16s CPU     33.34s WALL (     113 calls)
     s_psi        :      0.24s CPU      0.24s WALL (     113 calls)
     g_psi        :      0.08s CPU      0.08s WALL (      86 calls)
     cdiaghg      :      0.03s CPU      0.03s WALL (     112 calls)

     Called by h_psi:
     h_psi:pot    :     32.94s CPU     33.12s WALL (     113 calls)
     h_psi:calbec :      0.45s CPU      0.47s WALL (     113 calls)
     vloc_psi     :     32.26s CPU     32.42s WALL (     113 calls)
     add_vuspsi   :      0.23s CPU      0.23s WALL (     113 calls)

     General routines
     calbec       :      0.49s CPU      0.50s WALL (     139 calls)
     fft          :     18.31s CPU     19.29s WALL (     350 calls)
     fftw         :     35.03s CPU     35.20s WALL (    1270 calls)
     davcio       :      0.76s CPU      6.21s WALL (     427 calls)
 
     Parallel routines
     fft_scatt_xy :     12.26s CPU     12.30s WALL (    1620 calls)
     fft_scatt_yz :     13.21s CPU     14.17s WALL (    1620 calls)
 
     PWSCF        :  1m35.25s CPU     1m47.51s WALL

 
   This run was terminated on:   5:47: 8  14May2018            

=------------------------------------------------------------------------------=
   JOB DONE.
=------------------------------------------------------------------------------=
