
     Program PWSCF v.6.2 (svn rev. 14038) starts on 18May2018 at 14:13:46 

     This program is part of the open-source Quantum ESPRESSO suite
     for quantum simulation of materials; please cite
         "P. Giannozzi et al., J. Phys.:Condens. Matter 21 395502 (2009);
         "P. Giannozzi et al., J. Phys.:Condens. Matter 29 465901 (2017);
          URL http://www.quantum-espresso.org", 
     in publications or presentations arising from this work. More details at
     http://www.quantum-espresso.org/quote

     Parallel version (MPI), running on    28 processors

     MPI processes distributed on     1 nodes
     R & G space division:  proc/nbgrp/npool/nimage =      28
     Reading input from ../ecut2-120/0.in
Warning: card &IONS ignored
Warning: card     POT_EXTRAPOLATION='SECOND-ORDER' ignored
Warning: card     WFC_EXTRAPOLATION='SECOND-ORDER' ignored
Warning: card     ION_TEMPERATURE = 'ANDERSEN' ignored
Warning: card / ignored

     Current dimensions of program PWSCF are:
     Max number of different atomic species (ntypx) = 10
     Max number of k-points (npk) =  40000
     Max angular momentum in pseudopotentials (lmaxx) =  3
               file H.pbe-kjpaw_psl.1.0.0.UPF: wavefunction(s)  1S renormalized
               file O.pbe-n-kjpaw_psl.1.0.0.UPF: wavefunction(s)  2S 2P renormalized

     Subspace diagonalization in iterative solution of the eigenvalue problem:
     a serial algorithm will be used

 
     Parallelization info
     --------------------
     sticks:   dense  smooth     PW     G-vecs:    dense   smooth      PW
     Min         545     545    136                50739    50739    6338
     Max         546     546    137                50746    50746    6341
     Sum       15273   15273   3809              1420755  1420755  177509
 


     bravais-lattice index     =            1
     lattice parameter (alat)  =      20.0000  a.u.
     unit-cell volume          =    8000.0000 (a.u.)^3
     number of atoms/cell      =            3
     number of atomic types    =            2
     number of electrons       =         8.00
     number of Kohn-Sham states=            8
     kinetic-energy cutoff     =     120.0000  Ry
     charge density cutoff     =     480.0000  Ry
     convergence threshold     =      1.0E-08
     mixing beta               =       0.7000
     number of iterations used =            8  plain     mixing
     Exchange-correlation      = SLA PW PBX PBC ( 1  4  3  4 0 0)

     celldm(1)=  20.000000  celldm(2)=   0.000000  celldm(3)=   0.000000
     celldm(4)=   0.000000  celldm(5)=   0.000000  celldm(6)=   0.000000

     crystal axes: (cart. coord. in units of alat)
               a(1) = (   1.000000   0.000000   0.000000 )  
               a(2) = (   0.000000   1.000000   0.000000 )  
               a(3) = (   0.000000   0.000000   1.000000 )  

     reciprocal axes: (cart. coord. in units 2 pi/alat)
               b(1) = (  1.000000  0.000000  0.000000 )  
               b(2) = (  0.000000  1.000000  0.000000 )  
               b(3) = (  0.000000  0.000000  1.000000 )  


     PseudoPot. # 1 for H  read from file:
     ../pslibrary/pbe/PSEUDOPOTENTIALS/H.pbe-kjpaw_psl.1.0.0.UPF
     MD5 check sum: e77ef4e89cfa2d6a63e4c80bb1a147aa
     Pseudo is Projector augmented-wave, Zval =  1.0
     Generated using "atomic" code by A. Dal Corso v.6.2 svn rev. 14038
     Shape of augmentation charge: PSQ
     Using radial grid of  929 points,  2 beta functions with: 
                l(1) =   0
                l(2) =   0
     Q(r) pseudized with 0 coefficients 


     PseudoPot. # 2 for O  read from file:
     ../pslibrary/pbe/PSEUDOPOTENTIALS/O.pbe-n-kjpaw_psl.1.0.0.UPF
     MD5 check sum: bb09017f9a02654af35f7312a94eda3e
     Pseudo is Projector augmented-wave + core cor, Zval =  6.0
     Generated using "atomic" code by A. Dal Corso v.6.2 svn rev. 14038
     Shape of augmentation charge: PSQ
     Using radial grid of 1095 points,  4 beta functions with: 
                l(1) =   0
                l(2) =   0
                l(3) =   1
                l(4) =   1
     Q(r) pseudized with 0 coefficients 


     atomic species   valence    mass     pseudopotential
        H              1.00     1.01000     H ( 1.00)
        O              6.00    16.00000     O ( 1.00)

     No symmetry found



   Cartesian axes

     site n.     atom                  positions (alat units)
         1           O   tau(   1) = (   0.0000000   0.0000000   0.0112686  )
         2           H   tau(   2) = (   0.0000000   0.0721156  -0.0450744  )
         3           H   tau(   3) = (   0.0000000  -0.0721156  -0.0450744  )

     number of k points=     1  Marzari-Vanderbilt smearing, width (Ry)=  0.0250
                       cart. coord. in units 2pi/alat
        k(    1) = (   0.0000000   0.0000000   0.0000000), wk =   2.0000000

     Dense  grid:  1420755 G-vectors     FFT dimensions: ( 144, 144, 144)

     Estimated max dynamical RAM per process >      58.78 MB

     Estimated total dynamical RAM >       1.61 GB

     Initial potential from superposition of free atoms
     Check: negative starting charge=   -0.000747

     starting charge    7.99998, renormalised to    8.00000

     negative rho (up, down):  7.472E-04 0.000E+00
     Starting wfc are    6 randomized atomic wfcs +    2 random wfc
     Checking if some PAW data can be deallocated... 

     total cpu time spent up to now is        2.7 secs

     Self-consistent Calculation

     iteration #  1     ecut=   120.00 Ry     beta= 0.70
     Davidson diagonalization with overlap
     ethr =  1.00E-02,  avg # of iterations =  7.0

     negative rho (up, down):  1.209E-03 0.000E+00

     total cpu time spent up to now is        3.6 secs

     total energy              =     -43.84248256 Ry
     Harris-Foulkes estimate   =     -44.18847392 Ry
     estimated scf accuracy    <       0.46831298 Ry

     iteration #  2     ecut=   120.00 Ry     beta= 0.70
     Davidson diagonalization with overlap
     ethr =  5.85E-03,  avg # of iterations =  3.0

     negative rho (up, down):  1.061E-03 0.000E+00

     total cpu time spent up to now is        4.3 secs

     total energy              =     -43.91953929 Ry
     Harris-Foulkes estimate   =     -44.17671767 Ry
     estimated scf accuracy    <       0.54278384 Ry

     iteration #  3     ecut=   120.00 Ry     beta= 0.70
     Davidson diagonalization with overlap
     ethr =  5.85E-03,  avg # of iterations =  1.0

     negative rho (up, down):  9.774E-04 0.000E+00

     total cpu time spent up to now is        4.9 secs

     total energy              =     -43.90575345 Ry
     Harris-Foulkes estimate   =     -43.96729112 Ry
     estimated scf accuracy    <       0.08892658 Ry

     iteration #  4     ecut=   120.00 Ry     beta= 0.70
     Davidson diagonalization with overlap
     ethr =  1.11E-03,  avg # of iterations =  4.0

     negative rho (up, down):  7.620E-04 0.000E+00

     total cpu time spent up to now is        5.7 secs

     total energy              =     -44.03032196 Ry
     Harris-Foulkes estimate   =     -44.14179307 Ry
     estimated scf accuracy    <       0.34521385 Ry

     iteration #  5     ecut=   120.00 Ry     beta= 0.70
     Davidson diagonalization with overlap
     ethr =  1.11E-03,  avg # of iterations =  1.0

     negative rho (up, down):  7.320E-04 0.000E+00

     total cpu time spent up to now is        6.4 secs

     total energy              =     -44.02218602 Ry
     Harris-Foulkes estimate   =     -44.04012155 Ry
     estimated scf accuracy    <       0.13497146 Ry

     iteration #  6     ecut=   120.00 Ry     beta= 0.70
     Davidson diagonalization with overlap
     ethr =  1.11E-03,  avg # of iterations =  3.0

     negative rho (up, down):  7.869E-04 0.000E+00

     total cpu time spent up to now is        7.1 secs

     total energy              =     -44.04571433 Ry
     Harris-Foulkes estimate   =     -44.04525207 Ry
     estimated scf accuracy    <       0.01950707 Ry

     iteration #  7     ecut=   120.00 Ry     beta= 0.70
     Davidson diagonalization with overlap
     ethr =  2.44E-04,  avg # of iterations =  1.0

     negative rho (up, down):  9.219E-04 0.000E+00

     total cpu time spent up to now is        7.8 secs

     total energy              =     -44.04290215 Ry
     Harris-Foulkes estimate   =     -44.04578447 Ry
     estimated scf accuracy    <       0.02101704 Ry

     iteration #  8     ecut=   120.00 Ry     beta= 0.70
     Davidson diagonalization with overlap
     ethr =  2.44E-04,  avg # of iterations =  1.0

     negative rho (up, down):  1.596E-03 0.000E+00

     total cpu time spent up to now is        8.4 secs

     total energy              =     -44.04211880 Ry
     Harris-Foulkes estimate   =     -44.04305811 Ry
     estimated scf accuracy    <       0.01487164 Ry

     iteration #  9     ecut=   120.00 Ry     beta= 0.70
     Davidson diagonalization with overlap
     ethr =  1.86E-04,  avg # of iterations =  1.0

     negative rho (up, down):  1.589E-03 0.000E+00

     total cpu time spent up to now is        9.1 secs

     total energy              =     -44.04149093 Ry
     Harris-Foulkes estimate   =     -44.04231038 Ry
     estimated scf accuracy    <       0.01141517 Ry

     iteration # 10     ecut=   120.00 Ry     beta= 0.70
     Davidson diagonalization with overlap
     ethr =  1.43E-04,  avg # of iterations =  1.0

     negative rho (up, down):  1.503E-03 0.000E+00

     total cpu time spent up to now is        9.8 secs

     total energy              =     -44.04135612 Ry
     Harris-Foulkes estimate   =     -44.04157938 Ry
     estimated scf accuracy    <       0.00921667 Ry

     iteration # 11     ecut=   120.00 Ry     beta= 0.70
     Davidson diagonalization with overlap
     ethr =  1.15E-04,  avg # of iterations =  1.0

     negative rho (up, down):  1.433E-03 0.000E+00

     total cpu time spent up to now is       10.5 secs

     total energy              =     -44.04092369 Ry
     Harris-Foulkes estimate   =     -44.04146925 Ry
     estimated scf accuracy    <       0.00743332 Ry

     iteration # 12     ecut=   120.00 Ry     beta= 0.70
     Davidson diagonalization with overlap
     ethr =  9.29E-05,  avg # of iterations =  1.0

     negative rho (up, down):  1.323E-03 0.000E+00

     total cpu time spent up to now is       11.2 secs

     total energy              =     -44.03914091 Ry
     Harris-Foulkes estimate   =     -44.04099234 Ry
     estimated scf accuracy    <       0.00593468 Ry

     iteration # 13     ecut=   120.00 Ry     beta= 0.70
     Davidson diagonalization with overlap
     ethr =  7.42E-05,  avg # of iterations =  1.0

     negative rho (up, down):  1.326E-03 0.000E+00

     total cpu time spent up to now is       11.9 secs

     total energy              =     -44.03946320 Ry
     Harris-Foulkes estimate   =     -44.03946105 Ry
     estimated scf accuracy    <       0.00169581 Ry

     iteration # 14     ecut=   120.00 Ry     beta= 0.70
     Davidson diagonalization with overlap
     ethr =  2.12E-05,  avg # of iterations =  7.0

     negative rho (up, down):  1.231E-03 0.000E+00

     total cpu time spent up to now is       12.8 secs

     total energy              =     -44.03986812 Ry
     Harris-Foulkes estimate   =     -44.04002424 Ry
     estimated scf accuracy    <       0.00026800 Ry

     iteration # 15     ecut=   120.00 Ry     beta= 0.70
     Davidson diagonalization with overlap
     ethr =  3.35E-06,  avg # of iterations =  3.0

     negative rho (up, down):  1.222E-03 0.000E+00

     total cpu time spent up to now is       13.5 secs

     total energy              =     -44.03590608 Ry
     Harris-Foulkes estimate   =     -44.03587246 Ry
     estimated scf accuracy    <       0.00006109 Ry

     iteration # 16     ecut=   120.00 Ry     beta= 0.70
     Davidson diagonalization with overlap
     ethr =  7.64E-07,  avg # of iterations =  4.0

     negative rho (up, down):  1.201E-03 0.000E+00

     total cpu time spent up to now is       14.3 secs

     total energy              =     -44.03590351 Ry
     Harris-Foulkes estimate   =     -44.03609368 Ry
     estimated scf accuracy    <       0.00079043 Ry

     iteration # 17     ecut=   120.00 Ry     beta= 0.70
     Davidson diagonalization with overlap
     ethr =  7.64E-07,  avg # of iterations =  3.0

     negative rho (up, down):  1.210E-03 0.000E+00

     total cpu time spent up to now is       15.0 secs

     total energy              =     -44.03589908 Ry
     Harris-Foulkes estimate   =     -44.03592120 Ry
     estimated scf accuracy    <       0.00035883 Ry

     iteration # 18     ecut=   120.00 Ry     beta= 0.70
     Davidson diagonalization with overlap
     ethr =  7.64E-07,  avg # of iterations =  3.0

     negative rho (up, down):  1.212E-03 0.000E+00

     total cpu time spent up to now is       15.8 secs

     total energy              =     -44.03591544 Ry
     Harris-Foulkes estimate   =     -44.03591987 Ry
     estimated scf accuracy    <       0.00016695 Ry

     iteration # 19     ecut=   120.00 Ry     beta= 0.70
     Davidson diagonalization with overlap
     ethr =  7.64E-07,  avg # of iterations =  1.0

     negative rho (up, down):  1.214E-03 0.000E+00

     total cpu time spent up to now is       16.5 secs

     total energy              =     -44.03591762 Ry
     Harris-Foulkes estimate   =     -44.03591554 Ry
     estimated scf accuracy    <       0.00015648 Ry

     iteration # 20     ecut=   120.00 Ry     beta= 0.70
     Davidson diagonalization with overlap
     ethr =  7.64E-07,  avg # of iterations =  1.0

     negative rho (up, down):  1.213E-03 0.000E+00

     total cpu time spent up to now is       17.2 secs

     total energy              =     -44.03591659 Ry
     Harris-Foulkes estimate   =     -44.03591772 Ry
     estimated scf accuracy    <       0.00015835 Ry

     iteration # 21     ecut=   120.00 Ry     beta= 0.70
     Davidson diagonalization with overlap
     ethr =  7.64E-07,  avg # of iterations =  1.0

     negative rho (up, down):  1.218E-03 0.000E+00

     total cpu time spent up to now is       17.9 secs

     total energy              =     -44.03592388 Ry
     Harris-Foulkes estimate   =     -44.03591671 Ry
     estimated scf accuracy    <       0.00015157 Ry

     iteration # 22     ecut=   120.00 Ry     beta= 0.70
     Davidson diagonalization with overlap
     ethr =  7.64E-07,  avg # of iterations =  1.0

     negative rho (up, down):  1.229E-03 0.000E+00

     total cpu time spent up to now is       18.5 secs

     total energy              =     -44.03587322 Ry
     Harris-Foulkes estimate   =     -44.03592396 Ry
     estimated scf accuracy    <       0.00016589 Ry

     iteration # 23     ecut=   120.00 Ry     beta= 0.70
     Davidson diagonalization with overlap
     ethr =  7.64E-07,  avg # of iterations =  1.0

     negative rho (up, down):  1.230E-03 0.000E+00

     total cpu time spent up to now is       19.2 secs

     total energy              =     -44.03992917 Ry
     Harris-Foulkes estimate   =     -44.03995454 Ry
     estimated scf accuracy    <       0.00006971 Ry

     iteration # 24     ecut=   120.00 Ry     beta= 0.70
     Davidson diagonalization with overlap
     ethr =  7.64E-07,  avg # of iterations =  3.0

     negative rho (up, down):  1.226E-03 0.000E+00

     total cpu time spent up to now is       20.0 secs

     total energy              =     -44.03995279 Ry
     Harris-Foulkes estimate   =     -44.03995408 Ry
     estimated scf accuracy    <       0.00000278 Ry

     iteration # 25     ecut=   120.00 Ry     beta= 0.70
     Davidson diagonalization with overlap
     ethr =  3.47E-08,  avg # of iterations =  3.0

     negative rho (up, down):  1.224E-03 0.000E+00

     total cpu time spent up to now is       20.7 secs

     total energy              =     -44.03995535 Ry
     Harris-Foulkes estimate   =     -44.03995497 Ry
     estimated scf accuracy    <       0.00000574 Ry

     iteration # 26     ecut=   120.00 Ry     beta= 0.70
     Davidson diagonalization with overlap
     ethr =  3.47E-08,  avg # of iterations =  1.0

     negative rho (up, down):  1.221E-03 0.000E+00

     total cpu time spent up to now is       21.5 secs

     total energy              =     -44.03995498 Ry
     Harris-Foulkes estimate   =     -44.03995536 Ry
     estimated scf accuracy    <       0.00000638 Ry

     iteration # 27     ecut=   120.00 Ry     beta= 0.70
     Davidson diagonalization with overlap
     ethr =  3.47E-08,  avg # of iterations =  1.0

     negative rho (up, down):  1.221E-03 0.000E+00

     total cpu time spent up to now is       22.2 secs

     total energy              =     -44.03995293 Ry
     Harris-Foulkes estimate   =     -44.03995500 Ry
     estimated scf accuracy    <       0.00000543 Ry

     iteration # 28     ecut=   120.00 Ry     beta= 0.70
     Davidson diagonalization with overlap
     ethr =  3.47E-08,  avg # of iterations =  2.0

     negative rho (up, down):  1.220E-03 0.000E+00

     total cpu time spent up to now is       22.9 secs

     total energy              =     -44.03995441 Ry
     Harris-Foulkes estimate   =     -44.03995327 Ry
     estimated scf accuracy    <       0.00000125 Ry

     iteration # 29     ecut=   120.00 Ry     beta= 0.70
     Davidson diagonalization with overlap
     ethr =  1.57E-08,  avg # of iterations =  3.0

     negative rho (up, down):  1.222E-03 0.000E+00

     total cpu time spent up to now is       23.6 secs

     total energy              =     -44.03995159 Ry
     Harris-Foulkes estimate   =     -44.03995467 Ry
     estimated scf accuracy    <       0.00000412 Ry

     iteration # 30     ecut=   120.00 Ry     beta= 0.70
     Davidson diagonalization with overlap
     ethr =  1.57E-08,  avg # of iterations =  4.0

     negative rho (up, down):  1.222E-03 0.000E+00

     total cpu time spent up to now is       24.4 secs

     total energy              =     -44.03995346 Ry
     Harris-Foulkes estimate   =     -44.03995550 Ry
     estimated scf accuracy    <       0.00000735 Ry

     iteration # 31     ecut=   120.00 Ry     beta= 0.70
     Davidson diagonalization with overlap
     ethr =  1.57E-08,  avg # of iterations =  1.0

     negative rho (up, down):  1.221E-03 0.000E+00

     total cpu time spent up to now is       25.1 secs

     total energy              =     -44.03995172 Ry
     Harris-Foulkes estimate   =     -44.03995361 Ry
     estimated scf accuracy    <       0.00000343 Ry

     iteration # 32     ecut=   120.00 Ry     beta= 0.70
     Davidson diagonalization with overlap
     ethr =  1.57E-08,  avg # of iterations =  3.0

     negative rho (up, down):  1.221E-03 0.000E+00

     total cpu time spent up to now is       25.8 secs

     total energy              =     -44.03995336 Ry
     Harris-Foulkes estimate   =     -44.03995385 Ry
     estimated scf accuracy    <       0.00000136 Ry

     iteration # 33     ecut=   120.00 Ry     beta= 0.70
     Davidson diagonalization with overlap
     ethr =  1.57E-08,  avg # of iterations =  1.0

     negative rho (up, down):  1.221E-03 0.000E+00

     total cpu time spent up to now is       26.8 secs

     total energy              =     -44.03995346 Ry
     Harris-Foulkes estimate   =     -44.03995341 Ry
     estimated scf accuracy    <       0.00000044 Ry

     iteration # 34     ecut=   120.00 Ry     beta= 0.70
     Davidson diagonalization with overlap
     ethr =  5.56E-09,  avg # of iterations =  1.0

     negative rho (up, down):  1.221E-03 0.000E+00

     total cpu time spent up to now is       27.6 secs

     total energy              =     -44.03995351 Ry
     Harris-Foulkes estimate   =     -44.03995347 Ry
     estimated scf accuracy    <       0.00000054 Ry

     iteration # 35     ecut=   120.00 Ry     beta= 0.70
     Davidson diagonalization with overlap
     ethr =  5.56E-09,  avg # of iterations =  1.0

     negative rho (up, down):  1.221E-03 0.000E+00

     total cpu time spent up to now is       28.5 secs

     total energy              =     -44.03995347 Ry
     Harris-Foulkes estimate   =     -44.03995352 Ry
     estimated scf accuracy    <       0.00000051 Ry

     iteration # 36     ecut=   120.00 Ry     beta= 0.70
     Davidson diagonalization with overlap
     ethr =  5.56E-09,  avg # of iterations =  1.0

     negative rho (up, down):  1.221E-03 0.000E+00

     total cpu time spent up to now is       29.2 secs

     total energy              =     -44.03995348 Ry
     Harris-Foulkes estimate   =     -44.03995349 Ry
     estimated scf accuracy    <       0.00000037 Ry

     iteration # 37     ecut=   120.00 Ry     beta= 0.70
     Davidson diagonalization with overlap
     ethr =  4.68E-09,  avg # of iterations =  1.0

     negative rho (up, down):  1.221E-03 0.000E+00

     total cpu time spent up to now is       29.9 secs

     total energy              =     -44.03995352 Ry
     Harris-Foulkes estimate   =     -44.03995349 Ry
     estimated scf accuracy    <       0.00000032 Ry

     iteration # 38     ecut=   120.00 Ry     beta= 0.70
     Davidson diagonalization with overlap
     ethr =  4.03E-09,  avg # of iterations =  1.0

     negative rho (up, down):  1.221E-03 0.000E+00

     total cpu time spent up to now is       30.6 secs

     total energy              =     -44.03995383 Ry
     Harris-Foulkes estimate   =     -44.03995353 Ry
     estimated scf accuracy    <       0.00000039 Ry

     iteration # 39     ecut=   120.00 Ry     beta= 0.70
     Davidson diagonalization with overlap
     ethr =  4.03E-09,  avg # of iterations =  1.0

     negative rho (up, down):  1.222E-03 0.000E+00

     total cpu time spent up to now is       31.3 secs

     total energy              =     -44.03995310 Ry
     Harris-Foulkes estimate   =     -44.03995385 Ry
     estimated scf accuracy    <       0.00000103 Ry

     iteration # 40     ecut=   120.00 Ry     beta= 0.70
     Davidson diagonalization with overlap
     ethr =  4.03E-09,  avg # of iterations =  3.0

     negative rho (up, down):  1.222E-03 0.000E+00

     total cpu time spent up to now is       32.2 secs

     total energy              =     -44.03995345 Ry
     Harris-Foulkes estimate   =     -44.03995366 Ry
     estimated scf accuracy    <       0.00000066 Ry

     iteration # 41     ecut=   120.00 Ry     beta= 0.70
     Davidson diagonalization with overlap
     ethr =  4.03E-09,  avg # of iterations =  1.0

     negative rho (up, down):  1.222E-03 0.000E+00

     total cpu time spent up to now is       33.0 secs

     total energy              =     -44.03995339 Ry
     Harris-Foulkes estimate   =     -44.03995347 Ry
     estimated scf accuracy    <       0.00000026 Ry

     iteration # 42     ecut=   120.00 Ry     beta= 0.70
     Davidson diagonalization with overlap
     ethr =  3.19E-09,  avg # of iterations =  2.0

     negative rho (up, down):  1.222E-03 0.000E+00

     total cpu time spent up to now is       33.7 secs

     End of self-consistent calculation

          k = 0.0000 0.0000 0.0000 (177509 PWs)   bands (ev):

   -25.2212 -12.9824  -9.2225  -7.1305  -0.9572   0.2828   0.6514   0.9610

     the Fermi energy is    -5.2444 ev

!    total energy              =     -44.03995348 Ry
     Harris-Foulkes estimate   =     -44.03995348 Ry
     estimated scf accuracy    <          3.1E-09 Ry

     total all-electron energy =      -152.886835 Ry

     The total energy is the sum of the following terms:

     one-electron contribution =     -64.04788567 Ry
     hartree contribution      =      33.69980162 Ry
     xc contribution           =      -8.85721385 Ry
     ewald contribution        =       4.75191570 Ry
     one-center paw contrib.   =      -9.58657128 Ry
     smearing contrib. (-TS)   =       0.00000000 Ry

     convergence has been achieved in  42 iterations

     Writing output data file pwscf.save
 
     init_run     :      1.19s CPU      1.42s WALL (       1 calls)
     electrons    :     28.11s CPU     31.20s WALL (       1 calls)

     Called by init_run:
     wfcinit      :      0.14s CPU      0.19s WALL (       1 calls)
     potinit      :      0.21s CPU      0.23s WALL (       1 calls)

     Called by electrons:
     c_bands      :      9.79s CPU      9.94s WALL (      42 calls)
     sum_band     :      6.29s CPU      6.39s WALL (      42 calls)
     v_of_rho     :      5.39s CPU      5.47s WALL (      43 calls)
     newd         :      2.28s CPU      2.32s WALL (      43 calls)
     PAW_pot      :      0.39s CPU      0.42s WALL (      43 calls)
     mix_rho      :      3.82s CPU      6.30s WALL (      42 calls)

     Called by c_bands:
     init_us_2    :      0.18s CPU      0.18s WALL (      85 calls)
     cegterg      :      9.60s CPU      9.72s WALL (      42 calls)

     Called by sum_band:
     sum_band:bec :      0.00s CPU      0.00s WALL (      42 calls)
     addusdens    :      3.11s CPU      3.15s WALL (      42 calls)

     Called by *egterg:
     h_psi        :      9.08s CPU      9.21s WALL (     128 calls)
     s_psi        :      0.05s CPU      0.05s WALL (     128 calls)
     g_psi        :      0.03s CPU      0.03s WALL (      85 calls)
     cdiaghg      :      0.03s CPU      0.03s WALL (     127 calls)

     Called by h_psi:
     h_psi:pot    :      9.04s CPU      9.16s WALL (     128 calls)
     h_psi:calbec :      0.15s CPU      0.17s WALL (     128 calls)
     vloc_psi     :      8.85s CPU      8.95s WALL (     128 calls)
     add_vuspsi   :      0.04s CPU      0.04s WALL (     128 calls)

     General routines
     calbec       :      0.19s CPU      0.21s WALL (     170 calls)
     fft          :      5.52s CPU      5.70s WALL (     558 calls)
     fftw         :      9.40s CPU      9.53s WALL (    1942 calls)
     davcio       :      0.43s CPU      2.62s WALL (     747 calls)
 
     Parallel routines
     fft_scatt_xy :      1.51s CPU      1.52s WALL (    2500 calls)
     fft_scatt_yz :      4.16s CPU      4.28s WALL (    2500 calls)
 
     PWSCF        :    30.15s CPU        34.82s WALL

 
   This run was terminated on:  14:14:21  18May2018            

=------------------------------------------------------------------------------=
   JOB DONE.
=------------------------------------------------------------------------------=
