
     Program PWSCF v.6.2 (svn rev. 14038) starts on 18May2018 at 14:26:56 

     This program is part of the open-source Quantum ESPRESSO suite
     for quantum simulation of materials; please cite
         "P. Giannozzi et al., J. Phys.:Condens. Matter 21 395502 (2009);
         "P. Giannozzi et al., J. Phys.:Condens. Matter 29 465901 (2017);
          URL http://www.quantum-espresso.org", 
     in publications or presentations arising from this work. More details at
     http://www.quantum-espresso.org/quote

     Parallel version (MPI), running on    28 processors

     MPI processes distributed on     1 nodes
     R & G space division:  proc/nbgrp/npool/nimage =      28
     Reading input from ../ecut2-120/17000.in
Warning: card &IONS ignored
Warning: card     POT_EXTRAPOLATION='SECOND-ORDER' ignored
Warning: card     WFC_EXTRAPOLATION='SECOND-ORDER' ignored
Warning: card     ION_TEMPERATURE = 'ANDERSEN' ignored
Warning: card / ignored

     Current dimensions of program PWSCF are:
     Max number of different atomic species (ntypx) = 10
     Max number of k-points (npk) =  40000
     Max angular momentum in pseudopotentials (lmaxx) =  3
               file H.pbe-kjpaw_psl.1.0.0.UPF: wavefunction(s)  1S renormalized
               file O.pbe-n-kjpaw_psl.1.0.0.UPF: wavefunction(s)  2S 2P renormalized

     Subspace diagonalization in iterative solution of the eigenvalue problem:
     a serial algorithm will be used

 
     Parallelization info
     --------------------
     sticks:   dense  smooth     PW     G-vecs:    dense   smooth      PW
     Min         545     545    136                50739    50739    6338
     Max         546     546    137                50746    50746    6341
     Sum       15273   15273   3809              1420755  1420755  177509
 


     bravais-lattice index     =            1
     lattice parameter (alat)  =      20.0000  a.u.
     unit-cell volume          =    8000.0000 (a.u.)^3
     number of atoms/cell      =            3
     number of atomic types    =            2
     number of electrons       =         8.00
     number of Kohn-Sham states=            8
     kinetic-energy cutoff     =     120.0000  Ry
     charge density cutoff     =     480.0000  Ry
     convergence threshold     =      1.0E-08
     mixing beta               =       0.7000
     number of iterations used =            8  plain     mixing
     Exchange-correlation      = SLA PW PBX PBC ( 1  4  3  4 0 0)

     celldm(1)=  20.000000  celldm(2)=   0.000000  celldm(3)=   0.000000
     celldm(4)=   0.000000  celldm(5)=   0.000000  celldm(6)=   0.000000

     crystal axes: (cart. coord. in units of alat)
               a(1) = (   1.000000   0.000000   0.000000 )  
               a(2) = (   0.000000   1.000000   0.000000 )  
               a(3) = (   0.000000   0.000000   1.000000 )  

     reciprocal axes: (cart. coord. in units 2 pi/alat)
               b(1) = (  1.000000  0.000000  0.000000 )  
               b(2) = (  0.000000  1.000000  0.000000 )  
               b(3) = (  0.000000  0.000000  1.000000 )  


     PseudoPot. # 1 for H  read from file:
     ../pslibrary/pbe/PSEUDOPOTENTIALS/H.pbe-kjpaw_psl.1.0.0.UPF
     MD5 check sum: e77ef4e89cfa2d6a63e4c80bb1a147aa
     Pseudo is Projector augmented-wave, Zval =  1.0
     Generated using "atomic" code by A. Dal Corso v.6.2 svn rev. 14038
     Shape of augmentation charge: PSQ
     Using radial grid of  929 points,  2 beta functions with: 
                l(1) =   0
                l(2) =   0
     Q(r) pseudized with 0 coefficients 


     PseudoPot. # 2 for O  read from file:
     ../pslibrary/pbe/PSEUDOPOTENTIALS/O.pbe-n-kjpaw_psl.1.0.0.UPF
     MD5 check sum: bb09017f9a02654af35f7312a94eda3e
     Pseudo is Projector augmented-wave + core cor, Zval =  6.0
     Generated using "atomic" code by A. Dal Corso v.6.2 svn rev. 14038
     Shape of augmentation charge: PSQ
     Using radial grid of 1095 points,  4 beta functions with: 
                l(1) =   0
                l(2) =   0
                l(3) =   1
                l(4) =   1
     Q(r) pseudized with 0 coefficients 


     atomic species   valence    mass     pseudopotential
        H              1.00     1.01000     H ( 1.00)
        O              6.00    16.00000     O ( 1.00)

     No symmetry found



   Cartesian axes

     site n.     atom                  positions (alat units)
         1           O   tau(   1) = (  -0.0088774   0.0028914   0.0090424  )
         2           H   tau(   2) = (   0.0878224  -0.0935777   0.0182027  )
         3           H   tau(   3) = (   0.0528092   0.0477734  -0.0730858  )

     number of k points=     1  Marzari-Vanderbilt smearing, width (Ry)=  0.0250
                       cart. coord. in units 2pi/alat
        k(    1) = (   0.0000000   0.0000000   0.0000000), wk =   2.0000000

     Dense  grid:  1420755 G-vectors     FFT dimensions: ( 144, 144, 144)

     Estimated max dynamical RAM per process >      58.78 MB

     Estimated total dynamical RAM >       1.61 GB

     Initial potential from superposition of free atoms
     Check: negative starting charge=   -0.000724

     starting charge    7.99998, renormalised to    8.00000

     negative rho (up, down):  7.241E-04 0.000E+00
     Starting wfc are    6 randomized atomic wfcs +    2 random wfc
     Checking if some PAW data can be deallocated... 

     total cpu time spent up to now is        2.0 secs

     Self-consistent Calculation

     iteration #  1     ecut=   120.00 Ry     beta= 0.70
     Davidson diagonalization with overlap
     ethr =  1.00E-02,  avg # of iterations =  7.0

     negative rho (up, down):  1.066E-03 0.000E+00

     total cpu time spent up to now is        2.9 secs

     total energy              =     -43.60135217 Ry
     Harris-Foulkes estimate   =     -43.93400131 Ry
     estimated scf accuracy    <       0.44435793 Ry

     iteration #  2     ecut=   120.00 Ry     beta= 0.70
     Davidson diagonalization with overlap
     ethr =  5.55E-03,  avg # of iterations =  3.0

     negative rho (up, down):  7.977E-04 0.000E+00

     total cpu time spent up to now is        3.5 secs

     total energy              =     -43.53053714 Ry
     Harris-Foulkes estimate   =     -44.16926815 Ry
     estimated scf accuracy    <       1.86529359 Ry

     iteration #  3     ecut=   120.00 Ry     beta= 0.70
     Davidson diagonalization with overlap
     ethr =  5.55E-03,  avg # of iterations =  1.0

     negative rho (up, down):  4.873E-04 0.000E+00

     total cpu time spent up to now is        4.1 secs

     total energy              =     -43.70907012 Ry
     Harris-Foulkes estimate   =     -43.73050564 Ry
     estimated scf accuracy    <       0.12184534 Ry

     iteration #  4     ecut=   120.00 Ry     beta= 0.70
     Davidson diagonalization with overlap
     ethr =  1.52E-03,  avg # of iterations =  3.0

     negative rho (up, down):  5.571E-04 0.000E+00

     total cpu time spent up to now is        4.8 secs

     total energy              =     -43.82730918 Ry
     Harris-Foulkes estimate   =     -43.83720384 Ry
     estimated scf accuracy    <       0.05087403 Ry

     iteration #  5     ecut=   120.00 Ry     beta= 0.70
     Davidson diagonalization with overlap
     ethr =  6.36E-04,  avg # of iterations =  1.0

     negative rho (up, down):  6.231E-04 0.000E+00

     total cpu time spent up to now is        5.5 secs

     total energy              =     -43.83106804 Ry
     Harris-Foulkes estimate   =     -43.83282940 Ry
     estimated scf accuracy    <       0.01819643 Ry

     iteration #  6     ecut=   120.00 Ry     beta= 0.70
     Davidson diagonalization with overlap
     ethr =  2.27E-04,  avg # of iterations =  1.0

     negative rho (up, down):  6.551E-04 0.000E+00

     total cpu time spent up to now is        6.1 secs

     total energy              =     -43.83050030 Ry
     Harris-Foulkes estimate   =     -43.83130835 Ry
     estimated scf accuracy    <       0.01260635 Ry

     iteration #  7     ecut=   120.00 Ry     beta= 0.70
     Davidson diagonalization with overlap
     ethr =  1.58E-04,  avg # of iterations =  1.0

     negative rho (up, down):  7.261E-04 0.000E+00

     total cpu time spent up to now is        6.7 secs

     total energy              =     -43.82969047 Ry
     Harris-Foulkes estimate   =     -43.83072038 Ry
     estimated scf accuracy    <       0.00832538 Ry

     iteration #  8     ecut=   120.00 Ry     beta= 0.70
     Davidson diagonalization with overlap
     ethr =  1.04E-04,  avg # of iterations =  1.0

     negative rho (up, down):  7.035E-04 0.000E+00

     total cpu time spent up to now is        7.4 secs

     total energy              =     -43.83023212 Ry
     Harris-Foulkes estimate   =     -43.83002552 Ry
     estimated scf accuracy    <       0.00434254 Ry

     iteration #  9     ecut=   120.00 Ry     beta= 0.70
     Davidson diagonalization with overlap
     ethr =  5.43E-05,  avg # of iterations =  7.0

     negative rho (up, down):  7.221E-04 0.000E+00

     total cpu time spent up to now is        8.2 secs

     total energy              =     -43.83052874 Ry
     Harris-Foulkes estimate   =     -43.83059484 Ry
     estimated scf accuracy    <       0.00346898 Ry

     iteration # 10     ecut=   120.00 Ry     beta= 0.70
     Davidson diagonalization with overlap
     ethr =  4.34E-05,  avg # of iterations =  1.0

     negative rho (up, down):  7.260E-04 0.000E+00

     total cpu time spent up to now is        8.8 secs

     total energy              =     -43.83052526 Ry
     Harris-Foulkes estimate   =     -43.83064315 Ry
     estimated scf accuracy    <       0.00280859 Ry

     iteration # 11     ecut=   120.00 Ry     beta= 0.70
     Davidson diagonalization with overlap
     ethr =  3.51E-05,  avg # of iterations =  1.0

     negative rho (up, down):  7.504E-04 0.000E+00

     total cpu time spent up to now is        9.5 secs

     total energy              =     -43.83025554 Ry
     Harris-Foulkes estimate   =     -43.83057134 Ry
     estimated scf accuracy    <       0.00222165 Ry

     iteration # 12     ecut=   120.00 Ry     beta= 0.70
     Davidson diagonalization with overlap
     ethr =  2.78E-05,  avg # of iterations =  2.0

     negative rho (up, down):  9.503E-04 0.000E+00

     total cpu time spent up to now is       10.2 secs

     total energy              =     -43.83016686 Ry
     Harris-Foulkes estimate   =     -43.83049071 Ry
     estimated scf accuracy    <       0.00061622 Ry

     iteration # 13     ecut=   120.00 Ry     beta= 0.70
     Davidson diagonalization with overlap
     ethr =  7.70E-06,  avg # of iterations =  8.0

     negative rho (up, down):  9.575E-04 0.000E+00

     total cpu time spent up to now is       11.1 secs

     total energy              =     -43.82704151 Ry
     Harris-Foulkes estimate   =     -43.82696135 Ry
     estimated scf accuracy    <       0.00268381 Ry

     iteration # 14     ecut=   120.00 Ry     beta= 0.70
     Davidson diagonalization with overlap
     ethr =  7.70E-06,  avg # of iterations =  1.0

     negative rho (up, down):  9.645E-04 0.000E+00

     total cpu time spent up to now is       11.8 secs

     total energy              =     -43.82698472 Ry
     Harris-Foulkes estimate   =     -43.82704289 Ry
     estimated scf accuracy    <       0.00297394 Ry

     iteration # 15     ecut=   120.00 Ry     beta= 0.70
     Davidson diagonalization with overlap
     ethr =  7.70E-06,  avg # of iterations =  1.0

     negative rho (up, down):  9.971E-04 0.000E+00

     total cpu time spent up to now is       12.5 secs

     total energy              =     -43.82638941 Ry
     Harris-Foulkes estimate   =     -43.82698615 Ry
     estimated scf accuracy    <       0.00279430 Ry

     iteration # 16     ecut=   120.00 Ry     beta= 0.70
     Davidson diagonalization with overlap
     ethr =  7.70E-06,  avg # of iterations =  1.0

     negative rho (up, down):  1.023E-03 0.000E+00

     total cpu time spent up to now is       13.2 secs

     total energy              =     -43.83023257 Ry
     Harris-Foulkes estimate   =     -43.83054175 Ry
     estimated scf accuracy    <       0.00107775 Ry

     iteration # 17     ecut=   120.00 Ry     beta= 0.70
     Davidson diagonalization with overlap
     ethr =  7.70E-06,  avg # of iterations =  3.0

     negative rho (up, down):  1.028E-03 0.000E+00

     total cpu time spent up to now is       13.9 secs

     total energy              =     -43.83044474 Ry
     Harris-Foulkes estimate   =     -43.83045197 Ry
     estimated scf accuracy    <       0.00007592 Ry

     iteration # 18     ecut=   120.00 Ry     beta= 0.70
     Davidson diagonalization with overlap
     ethr =  9.49E-07,  avg # of iterations = 19.0

     negative rho (up, down):  1.029E-03 0.000E+00

     total cpu time spent up to now is       14.8 secs

     total energy              =     -43.83043016 Ry
     Harris-Foulkes estimate   =     -43.83044600 Ry
     estimated scf accuracy    <       0.00005085 Ry

     iteration # 19     ecut=   120.00 Ry     beta= 0.70
     Davidson diagonalization with overlap
     ethr =  6.36E-07,  avg # of iterations =  2.0

     negative rho (up, down):  1.033E-03 0.000E+00

     total cpu time spent up to now is       15.5 secs

     total energy              =     -43.83043627 Ry
     Harris-Foulkes estimate   =     -43.83043633 Ry
     estimated scf accuracy    <       0.00000292 Ry

     iteration # 20     ecut=   120.00 Ry     beta= 0.70
     Davidson diagonalization with overlap
     ethr =  3.65E-08,  avg # of iterations =  3.0

     negative rho (up, down):  1.030E-03 0.000E+00

     total cpu time spent up to now is       16.3 secs

     total energy              =     -43.83043637 Ry
     Harris-Foulkes estimate   =     -43.83043686 Ry
     estimated scf accuracy    <       0.00000270 Ry

     iteration # 21     ecut=   120.00 Ry     beta= 0.70
     Davidson diagonalization with overlap
     ethr =  3.37E-08,  avg # of iterations =  1.0

     negative rho (up, down):  1.030E-03 0.000E+00

     total cpu time spent up to now is       17.2 secs

     total energy              =     -43.83043600 Ry
     Harris-Foulkes estimate   =     -43.83043647 Ry
     estimated scf accuracy    <       0.00000143 Ry

     iteration # 22     ecut=   120.00 Ry     beta= 0.70
     Davidson diagonalization with overlap
     ethr =  1.79E-08,  avg # of iterations =  1.0

     negative rho (up, down):  1.030E-03 0.000E+00

     total cpu time spent up to now is       18.0 secs

     total energy              =     -43.83043615 Ry
     Harris-Foulkes estimate   =     -43.83043615 Ry
     estimated scf accuracy    <       0.00000015 Ry

     iteration # 23     ecut=   120.00 Ry     beta= 0.70
     Davidson diagonalization with overlap
     ethr =  1.82E-09,  avg # of iterations =  3.0

     negative rho (up, down):  1.031E-03 0.000E+00

     total cpu time spent up to now is       18.7 secs

     total energy              =     -43.83043616 Ry
     Harris-Foulkes estimate   =     -43.83043618 Ry
     estimated scf accuracy    <       0.00000009 Ry

     iteration # 24     ecut=   120.00 Ry     beta= 0.70
     Davidson diagonalization with overlap
     ethr =  1.09E-09,  avg # of iterations =  3.0

     negative rho (up, down):  1.031E-03 0.000E+00

     total cpu time spent up to now is       19.4 secs

     total energy              =     -43.83043617 Ry
     Harris-Foulkes estimate   =     -43.83043618 Ry
     estimated scf accuracy    <       0.00000002 Ry

     iteration # 25     ecut=   120.00 Ry     beta= 0.70
     Davidson diagonalization with overlap
     ethr =  2.05E-10,  avg # of iterations =  3.0

     negative rho (up, down):  1.031E-03 0.000E+00

     total cpu time spent up to now is       20.0 secs

     End of self-consistent calculation

          k = 0.0000 0.0000 0.0000 (177509 PWs)   bands (ev):

   -22.9820 -10.1224  -9.4454  -6.7411  -3.1125  -0.9042   0.0182   0.8655

     the Fermi energy is    -4.7562 ev

!    total energy              =     -43.83043618 Ry
     Harris-Foulkes estimate   =     -43.83043618 Ry
     estimated scf accuracy    <          7.6E-10 Ry

     total all-electron energy =      -152.677318 Ry

     The total energy is the sum of the following terms:

     one-electron contribution =     -57.78080609 Ry
     hartree contribution      =      30.65811184 Ry
     xc contribution           =      -8.39519905 Ry
     ewald contribution        =       1.28320893 Ry
     one-center paw contrib.   =      -9.59575181 Ry
     smearing contrib. (-TS)   =       0.00000000 Ry

     convergence has been achieved in  25 iterations

     Writing output data file pwscf.save
 
     init_run     :      1.18s CPU      1.27s WALL (       1 calls)
     electrons    :     16.29s CPU     18.11s WALL (       1 calls)

     Called by init_run:
     wfcinit      :      0.14s CPU      0.16s WALL (       1 calls)
     potinit      :      0.22s CPU      0.23s WALL (       1 calls)

     Called by electrons:
     c_bands      :      6.11s CPU      6.20s WALL (      25 calls)
     sum_band     :      3.72s CPU      3.77s WALL (      25 calls)
     v_of_rho     :      3.19s CPU      3.24s WALL (      26 calls)
     newd         :      1.33s CPU      1.36s WALL (      26 calls)
     PAW_pot      :      0.25s CPU      0.28s WALL (      26 calls)
     mix_rho      :      1.68s CPU      3.05s WALL (      25 calls)

     Called by c_bands:
     init_us_2    :      0.11s CPU      0.11s WALL (      51 calls)
     cegterg      :      6.00s CPU      6.07s WALL (      25 calls)

     Called by sum_band:
     sum_band:bec :      0.00s CPU      0.00s WALL (      25 calls)
     addusdens    :      1.84s CPU      1.86s WALL (      25 calls)

     Called by *egterg:
     h_psi        :      5.64s CPU      5.70s WALL (     104 calls)
     s_psi        :      0.03s CPU      0.03s WALL (     104 calls)
     g_psi        :      0.02s CPU      0.02s WALL (      78 calls)
     cdiaghg      :      0.02s CPU      0.03s WALL (     103 calls)

     Called by h_psi:
     h_psi:pot    :      5.61s CPU      5.68s WALL (     104 calls)
     h_psi:calbec :      0.11s CPU      0.12s WALL (     104 calls)
     vloc_psi     :      5.47s CPU      5.53s WALL (     104 calls)
     add_vuspsi   :      0.03s CPU      0.03s WALL (     104 calls)

     General routines
     calbec       :      0.13s CPU      0.14s WALL (     129 calls)
     fft          :      3.27s CPU      3.32s WALL (     337 calls)
     fftw         :      5.70s CPU      5.77s WALL (    1188 calls)
     davcio       :      0.22s CPU      1.47s WALL (     407 calls)
 
     Parallel routines
     fft_scatt_xy :      0.98s CPU      0.98s WALL (    1525 calls)
     fft_scatt_yz :      2.36s CPU      2.41s WALL (    1525 calls)
 
     PWSCF        :    18.20s CPU        20.70s WALL

 
   This run was terminated on:  14:27:16  18May2018            

=------------------------------------------------------------------------------=
   JOB DONE.
=------------------------------------------------------------------------------=
