
     Program PWSCF v.6.2 (svn rev. 14038) starts on 18May2018 at 14:17:42 

     This program is part of the open-source Quantum ESPRESSO suite
     for quantum simulation of materials; please cite
         "P. Giannozzi et al., J. Phys.:Condens. Matter 21 395502 (2009);
         "P. Giannozzi et al., J. Phys.:Condens. Matter 29 465901 (2017);
          URL http://www.quantum-espresso.org", 
     in publications or presentations arising from this work. More details at
     http://www.quantum-espresso.org/quote

     Parallel version (MPI), running on    28 processors

     MPI processes distributed on     1 nodes
     R & G space division:  proc/nbgrp/npool/nimage =      28
     Reading input from ../ecut2-120/5000.in
Warning: card &IONS ignored
Warning: card     POT_EXTRAPOLATION='SECOND-ORDER' ignored
Warning: card     WFC_EXTRAPOLATION='SECOND-ORDER' ignored
Warning: card     ION_TEMPERATURE = 'ANDERSEN' ignored
Warning: card / ignored

     Current dimensions of program PWSCF are:
     Max number of different atomic species (ntypx) = 10
     Max number of k-points (npk) =  40000
     Max angular momentum in pseudopotentials (lmaxx) =  3
               file H.pbe-kjpaw_psl.1.0.0.UPF: wavefunction(s)  1S renormalized
               file O.pbe-n-kjpaw_psl.1.0.0.UPF: wavefunction(s)  2S 2P renormalized

     Subspace diagonalization in iterative solution of the eigenvalue problem:
     a serial algorithm will be used

 
     Parallelization info
     --------------------
     sticks:   dense  smooth     PW     G-vecs:    dense   smooth      PW
     Min         545     545    136                50739    50739    6338
     Max         546     546    137                50746    50746    6341
     Sum       15273   15273   3809              1420755  1420755  177509
 


     bravais-lattice index     =            1
     lattice parameter (alat)  =      20.0000  a.u.
     unit-cell volume          =    8000.0000 (a.u.)^3
     number of atoms/cell      =            3
     number of atomic types    =            2
     number of electrons       =         8.00
     number of Kohn-Sham states=            8
     kinetic-energy cutoff     =     120.0000  Ry
     charge density cutoff     =     480.0000  Ry
     convergence threshold     =      1.0E-08
     mixing beta               =       0.7000
     number of iterations used =            8  plain     mixing
     Exchange-correlation      = SLA PW PBX PBC ( 1  4  3  4 0 0)

     celldm(1)=  20.000000  celldm(2)=   0.000000  celldm(3)=   0.000000
     celldm(4)=   0.000000  celldm(5)=   0.000000  celldm(6)=   0.000000

     crystal axes: (cart. coord. in units of alat)
               a(1) = (   1.000000   0.000000   0.000000 )  
               a(2) = (   0.000000   1.000000   0.000000 )  
               a(3) = (   0.000000   0.000000   1.000000 )  

     reciprocal axes: (cart. coord. in units 2 pi/alat)
               b(1) = (  1.000000  0.000000  0.000000 )  
               b(2) = (  0.000000  1.000000  0.000000 )  
               b(3) = (  0.000000  0.000000  1.000000 )  


     PseudoPot. # 1 for H  read from file:
     ../pslibrary/pbe/PSEUDOPOTENTIALS/H.pbe-kjpaw_psl.1.0.0.UPF
     MD5 check sum: e77ef4e89cfa2d6a63e4c80bb1a147aa
     Pseudo is Projector augmented-wave, Zval =  1.0
     Generated using "atomic" code by A. Dal Corso v.6.2 svn rev. 14038
     Shape of augmentation charge: PSQ
     Using radial grid of  929 points,  2 beta functions with: 
                l(1) =   0
                l(2) =   0
     Q(r) pseudized with 0 coefficients 


     PseudoPot. # 2 for O  read from file:
     ../pslibrary/pbe/PSEUDOPOTENTIALS/O.pbe-n-kjpaw_psl.1.0.0.UPF
     MD5 check sum: bb09017f9a02654af35f7312a94eda3e
     Pseudo is Projector augmented-wave + core cor, Zval =  6.0
     Generated using "atomic" code by A. Dal Corso v.6.2 svn rev. 14038
     Shape of augmentation charge: PSQ
     Using radial grid of 1095 points,  4 beta functions with: 
                l(1) =   0
                l(2) =   0
                l(3) =   1
                l(4) =   1
     Q(r) pseudized with 0 coefficients 


     atomic species   valence    mass     pseudopotential
        H              1.00     1.01000     H ( 1.00)
        O              6.00    16.00000     O ( 1.00)

     No symmetry found



   Cartesian axes

     site n.     atom                  positions (alat units)
         1           O   tau(   1) = (   0.0067099  -0.0005510   0.0092690  )
         2           H   tau(   2) = (  -0.0815971  -0.0274234  -0.1349449  )
         3           H   tau(   3) = (  -0.0246987   0.0361531   0.0764730  )

     number of k points=     1  Marzari-Vanderbilt smearing, width (Ry)=  0.0250
                       cart. coord. in units 2pi/alat
        k(    1) = (   0.0000000   0.0000000   0.0000000), wk =   2.0000000

     Dense  grid:  1420755 G-vectors     FFT dimensions: ( 144, 144, 144)

     Estimated max dynamical RAM per process >      58.78 MB

     Estimated total dynamical RAM >       1.61 GB

     Initial potential from superposition of free atoms
     Check: negative starting charge=   -0.000696

     starting charge    7.99998, renormalised to    8.00000

     negative rho (up, down):  6.960E-04 0.000E+00
     Starting wfc are    6 randomized atomic wfcs +    2 random wfc
     Checking if some PAW data can be deallocated... 

     total cpu time spent up to now is        2.5 secs

     Self-consistent Calculation

     iteration #  1     ecut=   120.00 Ry     beta= 0.70
     Davidson diagonalization with overlap
     ethr =  1.00E-02,  avg # of iterations =  7.0

     negative rho (up, down):  1.170E-03 0.000E+00

     total cpu time spent up to now is        3.7 secs

     total energy              =     -43.19036854 Ry
     Harris-Foulkes estimate   =     -43.91681397 Ry
     estimated scf accuracy    <       0.94955044 Ry

     iteration #  2     ecut=   120.00 Ry     beta= 0.70
     Davidson diagonalization with overlap
     ethr =  1.00E-02,  avg # of iterations =  4.0

     negative rho (up, down):  3.980E-05 0.000E+00

     total cpu time spent up to now is        4.5 secs

     total energy              =     -43.15302119 Ry
     Harris-Foulkes estimate   =     -44.62819754 Ry
     estimated scf accuracy    <       4.50748579 Ry

     iteration #  3     ecut=   120.00 Ry     beta= 0.70
     Davidson diagonalization with overlap
     ethr =  1.00E-02,  avg # of iterations =  5.0

     negative rho (up, down):  9.784E-05 0.000E+00

     total cpu time spent up to now is        5.2 secs

     total energy              =     -43.69374862 Ry
     Harris-Foulkes estimate   =     -43.69948006 Ry
     estimated scf accuracy    <       0.02514780 Ry

     iteration #  4     ecut=   120.00 Ry     beta= 0.70
     Davidson diagonalization with overlap
     ethr =  3.14E-04,  avg # of iterations =  5.0

     negative rho (up, down):  8.630E-04 0.000E+00

     total cpu time spent up to now is        5.9 secs

     total energy              =     -43.69153637 Ry
     Harris-Foulkes estimate   =     -43.69479563 Ry
     estimated scf accuracy    <       0.00929473 Ry

     iteration #  5     ecut=   120.00 Ry     beta= 0.70
     Davidson diagonalization with overlap
     ethr =  1.16E-04,  avg # of iterations =  4.0

     negative rho (up, down):  9.626E-04 0.000E+00

     total cpu time spent up to now is        6.6 secs

     total energy              =     -43.69217382 Ry
     Harris-Foulkes estimate   =     -43.69226563 Ry
     estimated scf accuracy    <       0.00025346 Ry

     iteration #  6     ecut=   120.00 Ry     beta= 0.70
     Davidson diagonalization with overlap
     c_bands:  1 eigenvalues not converged
     ethr =  3.17E-06,  avg # of iterations = 20.0

     negative rho (up, down):  1.055E-03 0.000E+00

     total cpu time spent up to now is        7.7 secs

     total energy              =     -43.69236997 Ry
     Harris-Foulkes estimate   =     -43.69239293 Ry
     estimated scf accuracy    <       0.00006258 Ry

     iteration #  7     ecut=   120.00 Ry     beta= 0.70
     Davidson diagonalization with overlap
     ethr =  7.82E-07,  avg # of iterations =  2.0

     negative rho (up, down):  1.027E-03 0.000E+00

     total cpu time spent up to now is        8.5 secs

     total energy              =     -43.69237791 Ry
     Harris-Foulkes estimate   =     -43.69238180 Ry
     estimated scf accuracy    <       0.00001246 Ry

     iteration #  8     ecut=   120.00 Ry     beta= 0.70
     Davidson diagonalization with overlap
     ethr =  1.56E-07,  avg # of iterations =  1.0

     negative rho (up, down):  1.054E-03 0.000E+00

     total cpu time spent up to now is        9.4 secs

     total energy              =     -43.69238039 Ry
     Harris-Foulkes estimate   =     -43.69238158 Ry
     estimated scf accuracy    <       0.00000546 Ry

     iteration #  9     ecut=   120.00 Ry     beta= 0.70
     Davidson diagonalization with overlap
     ethr =  6.83E-08,  avg # of iterations =  1.0

     negative rho (up, down):  1.057E-03 0.000E+00

     total cpu time spent up to now is       10.3 secs

     total energy              =     -43.69238093 Ry
     Harris-Foulkes estimate   =     -43.69238096 Ry
     estimated scf accuracy    <       0.00000013 Ry

     iteration # 10     ecut=   120.00 Ry     beta= 0.70
     Davidson diagonalization with overlap
     ethr =  1.64E-09,  avg # of iterations =  4.0

     negative rho (up, down):  1.057E-03 0.000E+00

     total cpu time spent up to now is       11.2 secs

     total energy              =     -43.69238190 Ry
     Harris-Foulkes estimate   =     -43.69238188 Ry
     estimated scf accuracy    <       0.00000035 Ry

     iteration # 11     ecut=   120.00 Ry     beta= 0.70
     Davidson diagonalization with overlap
     ethr =  1.64E-09,  avg # of iterations =  1.0

     negative rho (up, down):  1.060E-03 0.000E+00

     total cpu time spent up to now is       11.9 secs

     total energy              =     -43.69238170 Ry
     Harris-Foulkes estimate   =     -43.69238190 Ry
     estimated scf accuracy    <       0.00000040 Ry

     iteration # 12     ecut=   120.00 Ry     beta= 0.70
     Davidson diagonalization with overlap
     ethr =  1.64E-09,  avg # of iterations =  3.0

     negative rho (up, down):  1.060E-03 0.000E+00

     total cpu time spent up to now is       12.7 secs

     total energy              =     -43.69238170 Ry
     Harris-Foulkes estimate   =     -43.69238193 Ry
     estimated scf accuracy    <       0.00000061 Ry

     iteration # 13     ecut=   120.00 Ry     beta= 0.70
     Davidson diagonalization with overlap
     ethr =  1.64E-09,  avg # of iterations =  3.0

     negative rho (up, down):  1.060E-03 0.000E+00

     total cpu time spent up to now is       13.4 secs

     total energy              =     -43.69238173 Ry
     Harris-Foulkes estimate   =     -43.69238174 Ry
     estimated scf accuracy    <       0.00000005 Ry

     iteration # 14     ecut=   120.00 Ry     beta= 0.70
     Davidson diagonalization with overlap
     ethr =  6.23E-10,  avg # of iterations =  3.0

     negative rho (up, down):  1.060E-03 0.000E+00

     total cpu time spent up to now is       14.0 secs

     End of self-consistent calculation

          k = 0.0000 0.0000 0.0000 (177509 PWs)   bands (ev):

   -24.3402 -11.1133  -8.0239  -6.6897  -5.2593  -0.3588   0.4993   0.8615

     the Fermi energy is    -6.3764 ev

!    total energy              =     -43.69238176 Ry
     Harris-Foulkes estimate   =     -43.69238176 Ry
     estimated scf accuracy    <          8.6E-10 Ry

     total all-electron energy =      -152.539263 Ry

     The total energy is the sum of the following terms:

     one-electron contribution =     -59.03555299 Ry
     hartree contribution      =      31.32474416 Ry
     xc contribution           =      -8.56214606 Ry
     ewald contribution        =       2.16938884 Ry
     one-center paw contrib.   =      -9.59289317 Ry
     smearing contrib. (-TS)   =       0.00407746 Ry

     convergence has been achieved in  14 iterations

     Writing output data file pwscf.save
 
     init_run     :      1.50s CPU      1.77s WALL (       1 calls)
     electrons    :     10.60s CPU     11.59s WALL (       1 calls)

     Called by init_run:
     wfcinit      :      0.12s CPU      0.20s WALL (       1 calls)
     potinit      :      0.24s CPU      0.36s WALL (       1 calls)

     Called by electrons:
     c_bands      :      4.41s CPU      4.50s WALL (      14 calls)
     sum_band     :      2.26s CPU      2.32s WALL (      14 calls)
     v_of_rho     :      1.91s CPU      2.05s WALL (      15 calls)
     newd         :      0.84s CPU      0.87s WALL (      15 calls)
     PAW_pot      :      0.15s CPU      0.17s WALL (      15 calls)
     mix_rho      :      1.00s CPU      1.61s WALL (      14 calls)

     Called by c_bands:
     init_us_2    :      0.06s CPU      0.06s WALL (      29 calls)
     cegterg      :      4.34s CPU      4.43s WALL (      14 calls)

     Called by sum_band:
     sum_band:bec :      0.00s CPU      0.00s WALL (      14 calls)
     addusdens    :      1.11s CPU      1.15s WALL (      14 calls)

     Called by *egterg:
     h_psi        :      4.09s CPU      4.17s WALL (      78 calls)
     s_psi        :      0.02s CPU      0.02s WALL (      78 calls)
     g_psi        :      0.01s CPU      0.01s WALL (      63 calls)
     cdiaghg      :      0.02s CPU      0.02s WALL (      77 calls)

     Called by h_psi:
     h_psi:pot    :      4.07s CPU      4.15s WALL (      78 calls)
     h_psi:calbec :      0.15s CPU      0.15s WALL (      78 calls)
     vloc_psi     :      3.91s CPU      3.97s WALL (      78 calls)
     add_vuspsi   :      0.02s CPU      0.02s WALL (      78 calls)

     General routines
     calbec       :      0.18s CPU      0.19s WALL (      92 calls)
     fft          :      2.14s CPU      2.25s WALL (     194 calls)
     fftw         :      4.04s CPU      4.11s WALL (     770 calls)
     davcio       :      0.11s CPU      0.63s WALL (     187 calls)
 
     Parallel routines
     fft_scatt_xy :      0.57s CPU      0.59s WALL (     964 calls)
     fft_scatt_yz :      2.10s CPU      2.20s WALL (     964 calls)
 
     PWSCF        :    13.09s CPU        14.79s WALL

 
   This run was terminated on:  14:17:56  18May2018            

=------------------------------------------------------------------------------=
   JOB DONE.
=------------------------------------------------------------------------------=
