
     Program PWSCF v.6.0 (svn rev. 13079) starts on  8May2018 at 19:22: 7 

     This program is part of the open-source Quantum ESPRESSO suite
     for quantum simulation of materials; please cite
         "P. Giannozzi et al., J. Phys.:Condens. Matter 21 395502 (2009);
          URL http://www.quantum-espresso.org", 
     in publications or presentations arising from this work. More details at
     http://www.quantum-espresso.org/quote

     Parallel version (MPI), running on    28 processors
     R & G space division:  proc/nbgrp/npool/nimage =      28
     Reading input from SCFH2O-1000-in-2/0.in
Warning: card &IONS ignored
Warning: card     POT_EXTRAPOLATION='SECOND-ORDER' ignored
Warning: card     WFC_EXTRAPOLATION='SECOND-ORDER' ignored
Warning: card     ION_TEMPERATURE = 'ANDERSEN' ignored
Warning: card / ignored

     Current dimensions of program PWSCF are:
     Max number of different atomic species (ntypx) = 10
     Max number of k-points (npk) =  40000
     Max angular momentum in pseudopotentials (lmaxx) =  3

     Subspace diagonalization in iterative solution of the eigenvalue problem:
     a serial algorithm will be used

 
     Parallelization info
     --------------------
     sticks:   dense  smooth     PW     G-vecs:    dense   smooth      PW
     Min         273     273     67                17945    17945    2235
     Max         274     274     68                17950    17950    2240
     Sum        7645    7645   1901               502479   502479   62669
 


     bravais-lattice index     =            1
     lattice parameter (alat)  =      20.0000  a.u.
     unit-cell volume          =    8000.0000 (a.u.)^3
     number of atoms/cell      =            3
     number of atomic types    =            2
     number of electrons       =         8.00
     number of Kohn-Sham states=            8
     kinetic-energy cutoff     =      60.0000  Ry
     charge density cutoff     =     240.0000  Ry
     convergence threshold     =      1.0E-08
     mixing beta               =       0.7000
     number of iterations used =            8  plain     mixing
     Exchange-correlation      = BLYP ( 1  3  1  3 0 0)

     celldm(1)=  20.000000  celldm(2)=   0.000000  celldm(3)=   0.000000
     celldm(4)=   0.000000  celldm(5)=   0.000000  celldm(6)=   0.000000

     crystal axes: (cart. coord. in units of alat)
               a(1) = (   1.000000   0.000000   0.000000 )  
               a(2) = (   0.000000   1.000000   0.000000 )  
               a(3) = (   0.000000   0.000000   1.000000 )  

     reciprocal axes: (cart. coord. in units 2 pi/alat)
               b(1) = (  1.000000  0.000000  0.000000 )  
               b(2) = (  0.000000  1.000000  0.000000 )  
               b(3) = (  0.000000  0.000000  1.000000 )  


     PseudoPot. # 1 for  H read from file:
     ./H.blyp-hgh.UPF
     MD5 check sum: c576e69559cde411e611be972c763230
     Pseudo is Norm-conserving, Zval =  1.0
     Generated in analytical, separable form
     Using radial grid of  929 points,  0 beta functions with: 

     PseudoPot. # 2 for  O read from file:
     ./O.blyp-hgh.UPF
     MD5 check sum: d0b7156309aa9befef28faac7bc56342
     Pseudo is Norm-conserving, Zval =  6.0
     Generated in analytical, separable form
     Using radial grid of 1095 points,  1 beta functions with: 
                l(1) =   0

     atomic species   valence    mass     pseudopotential
        H              1.00     1.01000      H( 1.00)
        O              6.00    16.00000      O( 1.00)

     No symmetry found



   Cartesian axes

     site n.     atom                  positions (alat units)
         1           O   tau(   1) = (   0.0000000   0.0000000   0.0112686  )
         2           H   tau(   2) = (   0.0000000   0.0721156  -0.0450744  )
         3           H   tau(   3) = (   0.0000000  -0.0721156  -0.0450744  )

     number of k points=     1  Marzari-Vanderbilt smearing, width (Ry)=  0.0250
                       cart. coord. in units 2pi/alat
        k(    1) = (   0.0000000   0.0000000   0.0000000), wk =   2.0000000

     Dense  grid:   502479 G-vectors     FFT dimensions: ( 100, 100, 100)

     Estimated max dynamical RAM per process >      17.25Mb

     Estimated total allocated dynamical RAM >     483.03Mb

     Initial potential from superposition of free atoms
     Check: negative starting charge=   -0.071145

     starting charge    7.99998, renormalised to    8.00000

     negative rho (up, down):  7.115E-02 0.000E+00
     Starting wfc are    6 randomized atomic wfcs +    2 random wfc

     total cpu time spent up to now is       10.5 secs

     per-process dynamical memory:    30.5 Mb

     Self-consistent Calculation

     iteration #  1     ecut=    60.00 Ry     beta=0.70
     Davidson diagonalization with overlap
     ethr =  1.00E-02,  avg # of iterations =  8.0

     negative rho (up, down):  2.059E-02 0.000E+00

     total cpu time spent up to now is       14.2 secs

     total energy              =     -33.66095752 Ry
     Harris-Foulkes estimate   =     -33.73037087 Ry
     estimated scf accuracy    <       0.20731731 Ry

     iteration #  2     ecut=    60.00 Ry     beta=0.70
     Davidson diagonalization with overlap
     ethr =  2.59E-03,  avg # of iterations =  2.0

     negative rho (up, down):  1.160E-02 0.000E+00

     total cpu time spent up to now is       16.4 secs

     total energy              =     -33.69154141 Ry
     Harris-Foulkes estimate   =     -33.75067961 Ry
     estimated scf accuracy    <       0.13672646 Ry

     iteration #  3     ecut=    60.00 Ry     beta=0.70
     Davidson diagonalization with overlap
     ethr =  1.71E-03,  avg # of iterations =  2.0

     negative rho (up, down):  2.425E-04 0.000E+00

     total cpu time spent up to now is       18.6 secs

     total energy              =     -33.73645651 Ry
     Harris-Foulkes estimate   =     -33.72668477 Ry
     estimated scf accuracy    <       0.00681938 Ry

     iteration #  4     ecut=    60.00 Ry     beta=0.70
     Davidson diagonalization with overlap
     ethr =  8.52E-05,  avg # of iterations =  8.0

     negative rho (up, down):  2.472E-04 0.000E+00

     total cpu time spent up to now is       22.1 secs

     total energy              =     -33.73796938 Ry
     Harris-Foulkes estimate   =     -33.73799256 Ry
     estimated scf accuracy    <       0.00005665 Ry

     iteration #  5     ecut=    60.00 Ry     beta=0.70
     Davidson diagonalization with overlap
     ethr =  7.08E-07,  avg # of iterations = 12.0

     negative rho (up, down):  1.549E-05 0.000E+00

     total cpu time spent up to now is       25.5 secs

     total energy              =     -33.73797920 Ry
     Harris-Foulkes estimate   =     -33.73798342 Ry
     estimated scf accuracy    <       0.00000504 Ry

     iteration #  6     ecut=    60.00 Ry     beta=0.70
     Davidson diagonalization with overlap
     ethr =  6.29E-08,  avg # of iterations = 10.0

     total cpu time spent up to now is       28.6 secs

     total energy              =     -33.74205619 Ry
     Harris-Foulkes estimate   =     -33.74205731 Ry
     estimated scf accuracy    <       0.00000017 Ry

     iteration #  7     ecut=    60.00 Ry     beta=0.70
     Davidson diagonalization with overlap
     ethr =  2.09E-09,  avg # of iterations =  2.0

     total cpu time spent up to now is       30.4 secs

     End of self-consistent calculation

          k = 0.0000 0.0000 0.0000 ( 62669 PWs)   bands (ev):

   -25.4812 -12.9157  -9.2080  -7.0609  -0.9110   0.4220   0.7968   1.1102

     the Fermi energy is    -5.1975 ev

!    total energy              =     -33.74205615 Ry
     Harris-Foulkes estimate   =     -33.74205623 Ry
     estimated scf accuracy    <          9.0E-09 Ry

     The total energy is the sum of the following terms:

     one-electron contribution =     -63.08316259 Ry
     hartree contribution      =      32.87899457 Ry
     xc contribution           =      -8.28980382 Ry
     ewald contribution        =       4.75191570 Ry
     smearing contrib. (-TS)   =       0.00000000 Ry

     convergence has been achieved in   7 iterations

     Writing output data file pwscf.save
 
     init_run     :      0.20s CPU      6.36s WALL (       1 calls)
     electrons    :      0.68s CPU     21.46s WALL (       1 calls)

     Called by init_run:
     wfcinit      :      0.01s CPU      0.48s WALL (       1 calls)
     potinit      :      0.05s CPU      1.70s WALL (       1 calls)

     Called by electrons:
     c_bands      :      0.39s CPU     11.45s WALL (       7 calls)
     sum_band     :      0.06s CPU      1.78s WALL (       7 calls)
     v_of_rho     :      0.16s CPU      4.61s WALL (       8 calls)
     mix_rho      :      0.04s CPU      2.02s WALL (       7 calls)

     Called by c_bands:
     init_us_2    :      0.00s CPU      0.00s WALL (      15 calls)
     cegterg      :      0.38s CPU     11.09s WALL (       7 calls)

     Called by sum_band:

     Called by *egterg:
     h_psi        :      0.31s CPU      9.08s WALL (      52 calls)
     g_psi        :      0.00s CPU      0.00s WALL (      44 calls)
     cdiaghg      :      0.02s CPU      0.54s WALL (      51 calls)

     Called by h_psi:
     h_psi:pot    :      0.31s CPU      9.08s WALL (      52 calls)
     h_psi:calbec :      0.03s CPU      1.08s WALL (      52 calls)
     vloc_psi     :      0.28s CPU      8.00s WALL (      52 calls)
     add_vuspsi   :      0.00s CPU      0.00s WALL (      52 calls)

     General routines
     calbec       :      0.03s CPU      1.08s WALL (      52 calls)
     fft          :      0.11s CPU      4.26s WALL (      87 calls)
     fftw         :      0.28s CPU      9.22s WALL (     480 calls)
     davcio       :      0.00s CPU      0.13s WALL (      54 calls)
 
     Parallel routines
     fft_scatter  :      0.18s CPU     13.17s WALL (     567 calls)
 
     PWSCF        :     1.06s CPU        34.50s WALL

 
   This run was terminated on:  19:22:41   8May2018            

=------------------------------------------------------------------------------=
   JOB DONE.
=------------------------------------------------------------------------------=
