
     Program PWSCF v.6.0 (svn rev. 13079) starts on  8May2018 at 19:37:39 

     This program is part of the open-source Quantum ESPRESSO suite
     for quantum simulation of materials; please cite
         "P. Giannozzi et al., J. Phys.:Condens. Matter 21 395502 (2009);
          URL http://www.quantum-espresso.org", 
     in publications or presentations arising from this work. More details at
     http://www.quantum-espresso.org/quote

     Parallel version (MPI), running on    28 processors
     R & G space division:  proc/nbgrp/npool/nimage =      28
     Reading input from SCFH2O-1000-in-2/4500.in
Warning: card &IONS ignored
Warning: card     POT_EXTRAPOLATION='SECOND-ORDER' ignored
Warning: card     WFC_EXTRAPOLATION='SECOND-ORDER' ignored
Warning: card     ION_TEMPERATURE = 'ANDERSEN' ignored
Warning: card / ignored

     Current dimensions of program PWSCF are:
     Max number of different atomic species (ntypx) = 10
     Max number of k-points (npk) =  40000
     Max angular momentum in pseudopotentials (lmaxx) =  3

     Subspace diagonalization in iterative solution of the eigenvalue problem:
     a serial algorithm will be used

 
     Parallelization info
     --------------------
     sticks:   dense  smooth     PW     G-vecs:    dense   smooth      PW
     Min         273     273     67                17945    17945    2235
     Max         274     274     68                17950    17950    2240
     Sum        7645    7645   1901               502479   502479   62669
 


     bravais-lattice index     =            1
     lattice parameter (alat)  =      20.0000  a.u.
     unit-cell volume          =    8000.0000 (a.u.)^3
     number of atoms/cell      =            3
     number of atomic types    =            2
     number of electrons       =         8.00
     number of Kohn-Sham states=            8
     kinetic-energy cutoff     =      60.0000  Ry
     charge density cutoff     =     240.0000  Ry
     convergence threshold     =      1.0E-08
     mixing beta               =       0.7000
     number of iterations used =            8  plain     mixing
     Exchange-correlation      = BLYP ( 1  3  1  3 0 0)

     celldm(1)=  20.000000  celldm(2)=   0.000000  celldm(3)=   0.000000
     celldm(4)=   0.000000  celldm(5)=   0.000000  celldm(6)=   0.000000

     crystal axes: (cart. coord. in units of alat)
               a(1) = (   1.000000   0.000000   0.000000 )  
               a(2) = (   0.000000   1.000000   0.000000 )  
               a(3) = (   0.000000   0.000000   1.000000 )  

     reciprocal axes: (cart. coord. in units 2 pi/alat)
               b(1) = (  1.000000  0.000000  0.000000 )  
               b(2) = (  0.000000  1.000000  0.000000 )  
               b(3) = (  0.000000  0.000000  1.000000 )  


     PseudoPot. # 1 for  H read from file:
     ./H.blyp-hgh.UPF
     MD5 check sum: c576e69559cde411e611be972c763230
     Pseudo is Norm-conserving, Zval =  1.0
     Generated in analytical, separable form
     Using radial grid of  929 points,  0 beta functions with: 

     PseudoPot. # 2 for  O read from file:
     ./O.blyp-hgh.UPF
     MD5 check sum: d0b7156309aa9befef28faac7bc56342
     Pseudo is Norm-conserving, Zval =  6.0
     Generated in analytical, separable form
     Using radial grid of 1095 points,  1 beta functions with: 
                l(1) =   0

     atomic species   valence    mass     pseudopotential
        H              1.00     1.01000      H( 1.00)
        O              6.00    16.00000      O( 1.00)

     No symmetry found



   Cartesian axes

     site n.     atom                  positions (alat units)
         1           O   tau(   1) = (  -0.0056644  -0.0004022   0.0083576  )
         2           H   tau(   2) = (   0.0388136   0.0760231  -0.0333762  )
         3           H   tau(   3) = (   0.0509186  -0.0696518  -0.0106578  )

     number of k points=     1  Marzari-Vanderbilt smearing, width (Ry)=  0.0250
                       cart. coord. in units 2pi/alat
        k(    1) = (   0.0000000   0.0000000   0.0000000), wk =   2.0000000

     Dense  grid:   502479 G-vectors     FFT dimensions: ( 100, 100, 100)

     Estimated max dynamical RAM per process >      17.25Mb

     Estimated total allocated dynamical RAM >     483.03Mb

     Initial potential from superposition of free atoms
     Check: negative starting charge=   -0.071100

     starting charge    7.99998, renormalised to    8.00000

     negative rho (up, down):  7.110E-02 0.000E+00
     Starting wfc are    6 randomized atomic wfcs +    2 random wfc

     total cpu time spent up to now is        9.6 secs

     per-process dynamical memory:    31.2 Mb

     Self-consistent Calculation

     iteration #  1     ecut=    60.00 Ry     beta=0.70
     Davidson diagonalization with overlap
     ethr =  1.00E-02,  avg # of iterations =  8.0

     negative rho (up, down):  2.052E-02 0.000E+00

     total cpu time spent up to now is       13.1 secs

     total energy              =     -33.66419716 Ry
     Harris-Foulkes estimate   =     -33.72132149 Ry
     estimated scf accuracy    <       0.19298068 Ry

     iteration #  2     ecut=    60.00 Ry     beta=0.70
     Davidson diagonalization with overlap
     ethr =  2.41E-03,  avg # of iterations =  2.0

     negative rho (up, down):  1.167E-02 0.000E+00

     total cpu time spent up to now is       15.3 secs

     total energy              =     -33.68958955 Ry
     Harris-Foulkes estimate   =     -33.74686741 Ry
     estimated scf accuracy    <       0.13468414 Ry

     iteration #  3     ecut=    60.00 Ry     beta=0.70
     Davidson diagonalization with overlap
     ethr =  1.68E-03,  avg # of iterations =  2.0

     negative rho (up, down):  3.358E-04 0.000E+00

     total cpu time spent up to now is       17.4 secs

     total energy              =     -33.73465098 Ry
     Harris-Foulkes estimate   =     -33.72462680 Ry
     estimated scf accuracy    <       0.00747118 Ry

     iteration #  4     ecut=    60.00 Ry     beta=0.70
     Davidson diagonalization with overlap
     ethr =  9.34E-05,  avg # of iterations =  7.0

     negative rho (up, down):  2.625E-04 0.000E+00

     total cpu time spent up to now is       20.6 secs

     total energy              =     -33.74033994 Ry
     Harris-Foulkes estimate   =     -33.74036087 Ry
     estimated scf accuracy    <       0.00005009 Ry

     iteration #  5     ecut=    60.00 Ry     beta=0.70
     Davidson diagonalization with overlap
     c_bands:  1 eigenvalues not converged
     ethr =  6.26E-07,  avg # of iterations = 20.0

     negative rho (up, down):  8.091E-06 0.000E+00

     total cpu time spent up to now is       24.7 secs

     total energy              =     -33.73627342 Ry
     Harris-Foulkes estimate   =     -33.73627770 Ry
     estimated scf accuracy    <       0.00000431 Ry

     iteration #  6     ecut=    60.00 Ry     beta=0.70
     Davidson diagonalization with overlap
     ethr =  5.39E-08,  avg # of iterations = 14.0

     total cpu time spent up to now is       28.3 secs

     total energy              =     -33.74035087 Ry
     Harris-Foulkes estimate   =     -33.74035154 Ry
     estimated scf accuracy    <       0.00000012 Ry

     iteration #  7     ecut=    60.00 Ry     beta=0.70
     Davidson diagonalization with overlap
     ethr =  1.53E-09,  avg # of iterations =  2.0

     total cpu time spent up to now is       30.0 secs

     End of self-consistent calculation

          k = 0.0000 0.0000 0.0000 ( 62669 PWs)   bands (ev):

   -25.1761 -12.5633  -9.2184  -7.0066  -1.0207   0.3793   0.7337   1.0990

     the Fermi energy is    -5.1296 ev

!    total energy              =     -33.74035077 Ry
     Harris-Foulkes estimate   =     -33.74035089 Ry
     estimated scf accuracy    <          9.0E-09 Ry

     The total energy is the sum of the following terms:

     one-electron contribution =     -62.36367131 Ry
     hartree contribution      =      32.53406690 Ry
     xc contribution           =      -8.23344437 Ry
     ewald contribution        =       4.32269801 Ry
     smearing contrib. (-TS)   =       0.00000000 Ry

     convergence has been achieved in   7 iterations

     Writing output data file pwscf.save
 
     init_run     :      0.21s CPU      6.16s WALL (       1 calls)
     electrons    :      0.70s CPU     22.01s WALL (       1 calls)

     Called by init_run:
     wfcinit      :      0.01s CPU      0.41s WALL (       1 calls)
     potinit      :      0.06s CPU      1.63s WALL (       1 calls)

     Called by electrons:
     c_bands      :      0.41s CPU     12.05s WALL (       7 calls)
     sum_band     :      0.06s CPU      1.83s WALL (       7 calls)
     v_of_rho     :      0.16s CPU      4.47s WALL (       8 calls)
     mix_rho      :      0.04s CPU      2.10s WALL (       7 calls)

     Called by c_bands:
     init_us_2    :      0.00s CPU      0.00s WALL (      15 calls)
     cegterg      :      0.40s CPU     11.78s WALL (       7 calls)

     Called by sum_band:

     Called by *egterg:
     h_psi        :      0.32s CPU      9.36s WALL (      63 calls)
     g_psi        :      0.00s CPU      0.00s WALL (      55 calls)
     cdiaghg      :      0.02s CPU      0.73s WALL (      62 calls)

     Called by h_psi:
     h_psi:pot    :      0.32s CPU      9.36s WALL (      63 calls)
     h_psi:calbec :      0.03s CPU      1.15s WALL (      63 calls)
     vloc_psi     :      0.29s CPU      8.21s WALL (      63 calls)
     add_vuspsi   :      0.00s CPU      0.00s WALL (      63 calls)

     General routines
     calbec       :      0.03s CPU      1.15s WALL (      63 calls)
     fft          :      0.11s CPU      4.50s WALL (      87 calls)
     fftw         :      0.29s CPU      9.45s WALL (     506 calls)
     davcio       :      0.00s CPU      0.12s WALL (      54 calls)
 
     Parallel routines
     fft_scatter  :      0.19s CPU     13.73s WALL (     593 calls)
 
     PWSCF        :     1.08s CPU        34.18s WALL

 
   This run was terminated on:  19:38:14   8May2018            

=------------------------------------------------------------------------------=
   JOB DONE.
=------------------------------------------------------------------------------=
