
     Program PWSCF v.6.0 (svn rev. 13079) starts on  8May2018 at 19:27:12 

     This program is part of the open-source Quantum ESPRESSO suite
     for quantum simulation of materials; please cite
         "P. Giannozzi et al., J. Phys.:Condens. Matter 21 395502 (2009);
          URL http://www.quantum-espresso.org", 
     in publications or presentations arising from this work. More details at
     http://www.quantum-espresso.org/quote

     Parallel version (MPI), running on    28 processors
     R & G space division:  proc/nbgrp/npool/nimage =      28
     Reading input from SCFH2O-1000-in-2/500.in
Warning: card &IONS ignored
Warning: card     POT_EXTRAPOLATION='SECOND-ORDER' ignored
Warning: card     WFC_EXTRAPOLATION='SECOND-ORDER' ignored
Warning: card     ION_TEMPERATURE = 'ANDERSEN' ignored
Warning: card / ignored

     Current dimensions of program PWSCF are:
     Max number of different atomic species (ntypx) = 10
     Max number of k-points (npk) =  40000
     Max angular momentum in pseudopotentials (lmaxx) =  3

     Subspace diagonalization in iterative solution of the eigenvalue problem:
     a serial algorithm will be used

 
     Parallelization info
     --------------------
     sticks:   dense  smooth     PW     G-vecs:    dense   smooth      PW
     Min         273     273     67                17945    17945    2235
     Max         274     274     68                17950    17950    2240
     Sum        7645    7645   1901               502479   502479   62669
 


     bravais-lattice index     =            1
     lattice parameter (alat)  =      20.0000  a.u.
     unit-cell volume          =    8000.0000 (a.u.)^3
     number of atoms/cell      =            3
     number of atomic types    =            2
     number of electrons       =         8.00
     number of Kohn-Sham states=            8
     kinetic-energy cutoff     =      60.0000  Ry
     charge density cutoff     =     240.0000  Ry
     convergence threshold     =      1.0E-08
     mixing beta               =       0.7000
     number of iterations used =            8  plain     mixing
     Exchange-correlation      = BLYP ( 1  3  1  3 0 0)

     celldm(1)=  20.000000  celldm(2)=   0.000000  celldm(3)=   0.000000
     celldm(4)=   0.000000  celldm(5)=   0.000000  celldm(6)=   0.000000

     crystal axes: (cart. coord. in units of alat)
               a(1) = (   1.000000   0.000000   0.000000 )  
               a(2) = (   0.000000   1.000000   0.000000 )  
               a(3) = (   0.000000   0.000000   1.000000 )  

     reciprocal axes: (cart. coord. in units 2 pi/alat)
               b(1) = (  1.000000  0.000000  0.000000 )  
               b(2) = (  0.000000  1.000000  0.000000 )  
               b(3) = (  0.000000  0.000000  1.000000 )  


     PseudoPot. # 1 for  H read from file:
     ./H.blyp-hgh.UPF
     MD5 check sum: c576e69559cde411e611be972c763230
     Pseudo is Norm-conserving, Zval =  1.0
     Generated in analytical, separable form
     Using radial grid of  929 points,  0 beta functions with: 

     PseudoPot. # 2 for  O read from file:
     ./O.blyp-hgh.UPF
     MD5 check sum: d0b7156309aa9befef28faac7bc56342
     Pseudo is Norm-conserving, Zval =  6.0
     Generated in analytical, separable form
     Using radial grid of 1095 points,  1 beta functions with: 
                l(1) =   0

     atomic species   valence    mass     pseudopotential
        H              1.00     1.01000      H( 1.00)
        O              6.00    16.00000      O( 1.00)

     No symmetry found



   Cartesian axes

     site n.     atom                  positions (alat units)
         1           O   tau(   1) = (   0.0011000  -0.0010844   0.0113858  )
         2           H   tau(   2) = (  -0.0333780   0.0782182  -0.0271420  )
         3           H   tau(   3) = (   0.0159527  -0.0610387  -0.0648635  )

     number of k points=     1  Marzari-Vanderbilt smearing, width (Ry)=  0.0250
                       cart. coord. in units 2pi/alat
        k(    1) = (   0.0000000   0.0000000   0.0000000), wk =   2.0000000

     Dense  grid:   502479 G-vectors     FFT dimensions: ( 100, 100, 100)

     Estimated max dynamical RAM per process >      17.25Mb

     Estimated total allocated dynamical RAM >     483.03Mb

     Initial potential from superposition of free atoms
     Check: negative starting charge=   -0.071010

     starting charge    7.99998, renormalised to    8.00000

     negative rho (up, down):  7.101E-02 0.000E+00
     Starting wfc are    6 randomized atomic wfcs +    2 random wfc

     total cpu time spent up to now is        9.5 secs

     per-process dynamical memory:    31.4 Mb

     Self-consistent Calculation

     iteration #  1     ecut=    60.00 Ry     beta=0.70
     Davidson diagonalization with overlap
     ethr =  1.00E-02,  avg # of iterations =  8.0

     negative rho (up, down):  2.048E-02 0.000E+00

     total cpu time spent up to now is       12.9 secs

     total energy              =     -33.66805032 Ry
     Harris-Foulkes estimate   =     -33.71989965 Ry
     estimated scf accuracy    <       0.18478409 Ry

     iteration #  2     ecut=    60.00 Ry     beta=0.70
     Davidson diagonalization with overlap
     ethr =  2.31E-03,  avg # of iterations =  2.0

     negative rho (up, down):  1.169E-02 0.000E+00

     total cpu time spent up to now is       15.1 secs

     total energy              =     -33.69075424 Ry
     Harris-Foulkes estimate   =     -33.74596443 Ry
     estimated scf accuracy    <       0.13019091 Ry

     iteration #  3     ecut=    60.00 Ry     beta=0.70
     Davidson diagonalization with overlap
     ethr =  1.63E-03,  avg # of iterations =  2.0

     negative rho (up, down):  3.894E-04 0.000E+00

     total cpu time spent up to now is       17.3 secs

     total energy              =     -33.73478985 Ry
     Harris-Foulkes estimate   =     -33.72509933 Ry
     estimated scf accuracy    <       0.00767494 Ry

     iteration #  4     ecut=    60.00 Ry     beta=0.70
     Davidson diagonalization with overlap
     ethr =  9.59E-05,  avg # of iterations =  6.0

     negative rho (up, down):  2.421E-04 0.000E+00

     total cpu time spent up to now is       20.2 secs

     total energy              =     -33.74043576 Ry
     Harris-Foulkes estimate   =     -33.74044902 Ry
     estimated scf accuracy    <       0.00003384 Ry

     iteration #  5     ecut=    60.00 Ry     beta=0.70
     Davidson diagonalization with overlap
     ethr =  4.23E-07,  avg # of iterations = 18.0

     negative rho (up, down):  3.847E-06 0.000E+00

     total cpu time spent up to now is       24.2 secs

     total energy              =     -33.74045137 Ry
     Harris-Foulkes estimate   =     -33.74045310 Ry
     estimated scf accuracy    <       0.00000282 Ry

     iteration #  6     ecut=    60.00 Ry     beta=0.70
     Davidson diagonalization with overlap
     ethr =  3.52E-08,  avg # of iterations =  3.0

     negative rho (up, down):  2.702E-08 0.000E+00

     total cpu time spent up to now is       26.6 secs

     total energy              =     -33.74045167 Ry
     Harris-Foulkes estimate   =     -33.74045182 Ry
     estimated scf accuracy    <       0.00000007 Ry

     iteration #  7     ecut=    60.00 Ry     beta=0.70
     Davidson diagonalization with overlap
     ethr =  8.71E-10,  avg # of iterations =  2.0

     total cpu time spent up to now is       28.3 secs

     End of self-consistent calculation

          k = 0.0000 0.0000 0.0000 ( 62669 PWs)   bands (ev):

   -24.9417 -12.4779  -9.1051  -6.9639  -1.0708   0.3692   0.6713   1.1203

     the Fermi energy is    -5.0551 ev

!    total energy              =     -33.74045161 Ry
     Harris-Foulkes estimate   =     -33.74045168 Ry
     estimated scf accuracy    <          1.8E-09 Ry

     The total energy is the sum of the following terms:

     one-electron contribution =     -61.92564963 Ry
     hartree contribution      =      32.32743094 Ry
     xc contribution           =      -8.19934179 Ry
     ewald contribution        =       4.05710886 Ry
     smearing contrib. (-TS)   =       0.00000000 Ry

     convergence has been achieved in   7 iterations

     Writing output data file pwscf.save
 
     init_run     :      0.20s CPU      6.18s WALL (       1 calls)
     electrons    :      0.66s CPU     20.47s WALL (       1 calls)

     Called by init_run:
     wfcinit      :      0.01s CPU      0.46s WALL (       1 calls)
     potinit      :      0.06s CPU      1.65s WALL (       1 calls)

     Called by electrons:
     c_bands      :      0.36s CPU     10.76s WALL (       7 calls)
     sum_band     :      0.07s CPU      1.78s WALL (       7 calls)
     v_of_rho     :      0.16s CPU      4.35s WALL (       8 calls)
     mix_rho      :      0.04s CPU      1.98s WALL (       7 calls)

     Called by c_bands:
     init_us_2    :      0.00s CPU      0.00s WALL (      15 calls)
     cegterg      :      0.36s CPU     10.43s WALL (       7 calls)

     Called by sum_band:

     Called by *egterg:
     h_psi        :      0.30s CPU      8.78s WALL (      49 calls)
     g_psi        :      0.00s CPU      0.00s WALL (      41 calls)
     cdiaghg      :      0.01s CPU      0.49s WALL (      48 calls)

     Called by h_psi:
     h_psi:pot    :      0.30s CPU      8.78s WALL (      49 calls)
     h_psi:calbec :      0.02s CPU      0.96s WALL (      49 calls)
     vloc_psi     :      0.27s CPU      7.82s WALL (      49 calls)
     add_vuspsi   :      0.00s CPU      0.00s WALL (      49 calls)

     General routines
     calbec       :      0.02s CPU      0.96s WALL (      49 calls)
     fft          :      0.11s CPU      4.39s WALL (      87 calls)
     fftw         :      0.28s CPU      9.05s WALL (     474 calls)
     davcio       :      0.01s CPU      0.12s WALL (      54 calls)
 
     Parallel routines
     fft_scatter  :      0.19s CPU     13.04s WALL (     561 calls)
 
     PWSCF        :     1.02s CPU        32.55s WALL

 
   This run was terminated on:  19:27:44   8May2018            

=------------------------------------------------------------------------------=
   JOB DONE.
=------------------------------------------------------------------------------=
