
     Program PWSCF v.6.2 (svn rev. 14038) starts on 12May2018 at 23:28:42 

     This program is part of the open-source Quantum ESPRESSO suite
     for quantum simulation of materials; please cite
         "P. Giannozzi et al., J. Phys.:Condens. Matter 21 395502 (2009);
         "P. Giannozzi et al., J. Phys.:Condens. Matter 29 465901 (2017);
          URL http://www.quantum-espresso.org", 
     in publications or presentations arising from this work. More details at
     http://www.quantum-espresso.org/quote

     Parallel version (MPI), running on    28 processors

     MPI processes distributed on     1 nodes
     R & G space division:  proc/nbgrp/npool/nimage =      28
     Reading input from ../ecut200/1000.in
Warning: card &IONS ignored
Warning: card     POT_EXTRAPOLATION='SECOND-ORDER' ignored
Warning: card     WFC_EXTRAPOLATION='SECOND-ORDER' ignored
Warning: card     ION_TEMPERATURE = 'ANDERSEN' ignored
Warning: card / ignored

     Current dimensions of program PWSCF are:
     Max number of different atomic species (ntypx) = 10
     Max number of k-points (npk) =  40000
     Max angular momentum in pseudopotentials (lmaxx) =  3

     Subspace diagonalization in iterative solution of the eigenvalue problem:
     a serial algorithm will be used

 
     Parallelization info
     --------------------
     sticks:   dense  smooth     PW     G-vecs:    dense   smooth      PW
     Min         909     909    227               109161   109161   13653
     Max         911     911    228               109164   109164   13656
     Sum       25477   25477   6369              3056521  3056521  382323
 


     bravais-lattice index     =            1
     lattice parameter (alat)  =      20.0000  a.u.
     unit-cell volume          =    8000.0000 (a.u.)^3
     number of atoms/cell      =            3
     number of atomic types    =            2
     number of electrons       =         8.00
     number of Kohn-Sham states=            8
     kinetic-energy cutoff     =     200.0000  Ry
     charge density cutoff     =     800.0000  Ry
     convergence threshold     =      1.0E-08
     mixing beta               =       0.7000
     number of iterations used =            8  plain     mixing
     Exchange-correlation      = PBE ( 1  4  3  4 0 0)

     celldm(1)=  20.000000  celldm(2)=   0.000000  celldm(3)=   0.000000
     celldm(4)=   0.000000  celldm(5)=   0.000000  celldm(6)=   0.000000

     crystal axes: (cart. coord. in units of alat)
               a(1) = (   1.000000   0.000000   0.000000 )  
               a(2) = (   0.000000   1.000000   0.000000 )  
               a(3) = (   0.000000   0.000000   1.000000 )  

     reciprocal axes: (cart. coord. in units 2 pi/alat)
               b(1) = (  1.000000  0.000000  0.000000 )  
               b(2) = (  0.000000  1.000000  0.000000 )  
               b(3) = (  0.000000  0.000000  1.000000 )  


     PseudoPot. # 1 for H  read from file:
     ../pslibrary/pbe/PSEUDOPOTENTIALS/H.pbe-rrkjus_psl.1.0.0.UPF
     MD5 check sum: b2b1ff84b4ceabe23335d1bf25025923
     Pseudo is Ultrasoft, Zval =  1.0
     Generated using "atomic" code by A. Dal Corso v.6.2 svn rev. 14038
     Using radial grid of  929 points,  2 beta functions with: 
                l(1) =   0
                l(2) =   0
     Q(r) pseudized with 0 coefficients 


     PseudoPot. # 2 for O  read from file:
     ../pslibrary/pbe/PSEUDOPOTENTIALS/O.pbe-n-rrkjus_psl.1.0.0.UPF
     MD5 check sum: 61455b21a47f6823f888c3bfb9bd1235
     Pseudo is Ultrasoft + core correction, Zval =  6.0
     Generated using "atomic" code by A. Dal Corso v.6.2 svn rev. 14038
     Using radial grid of 1095 points,  4 beta functions with: 
                l(1) =   0
                l(2) =   0
                l(3) =   1
                l(4) =   1
     Q(r) pseudized with 0 coefficients 


     atomic species   valence    mass     pseudopotential
        H              1.00     1.01000     H ( 1.00)
        O              6.00    16.00000     O ( 1.00)

     No symmetry found



   Cartesian axes

     site n.     atom                  positions (alat units)
         1           O   tau(   1) = (   0.0029113   0.0053424   0.0061959  )
         2           H   tau(   2) = (  -0.0600680   0.0170295   0.0801483  )
         3           H   tau(   3) = (   0.0139478  -0.1016613  -0.0899374  )

     number of k points=     1  Marzari-Vanderbilt smearing, width (Ry)=  0.0250
                       cart. coord. in units 2pi/alat
        k(    1) = (   0.0000000   0.0000000   0.0000000), wk =   2.0000000

     Dense  grid:  3056521 G-vectors     FFT dimensions: ( 192, 192, 192)

     Estimated max dynamical RAM per process >     123.03 MB

     Estimated total dynamical RAM >       3.36 GB

     Initial potential from superposition of free atoms
     Check: negative starting charge=   -0.000112

     starting charge    7.99998, renormalised to    8.00000

     negative rho (up, down):  1.123E-04 0.000E+00
     Starting wfc are    6 randomized atomic wfcs +    2 random wfc

     total cpu time spent up to now is        3.8 secs

     Self-consistent Calculation

     iteration #  1     ecut=   200.00 Ry     beta= 0.70
     Davidson diagonalization with overlap
     ethr =  1.00E-02,  avg # of iterations =  7.0

     negative rho (up, down):  1.553E-04 0.000E+00

     total cpu time spent up to now is        6.3 secs

     total energy              =     -34.23376545 Ry
     Harris-Foulkes estimate   =     -34.69263846 Ry
     estimated scf accuracy    <       0.61135921 Ry

     iteration #  2     ecut=   200.00 Ry     beta= 0.70
     Davidson diagonalization with overlap
     ethr =  7.64E-03,  avg # of iterations =  3.0

     negative rho (up, down):  2.951E-05 0.000E+00

     total cpu time spent up to now is        8.1 secs

     total energy              =     -34.12149332 Ry
     Harris-Foulkes estimate   =     -35.00579123 Ry
     estimated scf accuracy    <       2.65188645 Ry

     iteration #  3     ecut=   200.00 Ry     beta= 0.70
     Davidson diagonalization with overlap
     ethr =  7.64E-03,  avg # of iterations =  1.0

     negative rho (up, down):  4.702E-06 0.000E+00

     total cpu time spent up to now is        9.8 secs

     total energy              =     -34.38765140 Ry
     Harris-Foulkes estimate   =     -34.40725306 Ry
     estimated scf accuracy    <       0.14505596 Ry

     iteration #  4     ecut=   200.00 Ry     beta= 0.70
     Davidson diagonalization with overlap
     ethr =  1.81E-03,  avg # of iterations =  3.0

     negative rho (up, down):  1.570E-05 0.000E+00

     total cpu time spent up to now is       11.8 secs

     total energy              =     -34.53344836 Ry
     Harris-Foulkes estimate   =     -34.55095547 Ry
     estimated scf accuracy    <       0.05126524 Ry

     iteration #  5     ecut=   200.00 Ry     beta= 0.70
     Davidson diagonalization with overlap
     ethr =  6.41E-04,  avg # of iterations =  1.0

     negative rho (up, down):  2.074E-05 0.000E+00

     total cpu time spent up to now is       13.5 secs

     total energy              =     -34.53824889 Ry
     Harris-Foulkes estimate   =     -34.53829289 Ry
     estimated scf accuracy    <       0.00325656 Ry

     iteration #  6     ecut=   200.00 Ry     beta= 0.70
     Davidson diagonalization with overlap
     ethr =  4.07E-05,  avg # of iterations =  7.0

     negative rho (up, down):  3.234E-05 0.000E+00

     total cpu time spent up to now is       16.0 secs

     total energy              =     -34.53964747 Ry
     Harris-Foulkes estimate   =     -34.53981560 Ry
     estimated scf accuracy    <       0.00152088 Ry

     iteration #  7     ecut=   200.00 Ry     beta= 0.70
     Davidson diagonalization with overlap
     ethr =  1.90E-05,  avg # of iterations =  1.0

     negative rho (up, down):  7.591E-05 0.000E+00

     total cpu time spent up to now is       17.8 secs

     total energy              =     -34.53948259 Ry
     Harris-Foulkes estimate   =     -34.53966241 Ry
     estimated scf accuracy    <       0.00094511 Ry

     iteration #  8     ecut=   200.00 Ry     beta= 0.70
     Davidson diagonalization with overlap
     ethr =  1.18E-05,  avg # of iterations =  1.0

     negative rho (up, down):  7.532E-05 0.000E+00

     total cpu time spent up to now is       19.6 secs

     total energy              =     -34.53949550 Ry
     Harris-Foulkes estimate   =     -34.53951294 Ry
     estimated scf accuracy    <       0.00036130 Ry

     iteration #  9     ecut=   200.00 Ry     beta= 0.70
     Davidson diagonalization with overlap
     ethr =  4.52E-06,  avg # of iterations =  8.0

     negative rho (up, down):  7.635E-05 0.000E+00

     total cpu time spent up to now is       21.7 secs

     total energy              =     -34.53950814 Ry
     Harris-Foulkes estimate   =     -34.53951175 Ry
     estimated scf accuracy    <       0.00027825 Ry

     iteration # 10     ecut=   200.00 Ry     beta= 0.70
     Davidson diagonalization with overlap
     ethr =  3.48E-06,  avg # of iterations =  1.0

     negative rho (up, down):  7.351E-05 0.000E+00

     total cpu time spent up to now is       23.6 secs

     total energy              =     -34.53951650 Ry
     Harris-Foulkes estimate   =     -34.53951764 Ry
     estimated scf accuracy    <       0.00019610 Ry

     iteration # 11     ecut=   200.00 Ry     beta= 0.70
     Davidson diagonalization with overlap
     ethr =  2.45E-06,  avg # of iterations =  1.0

     negative rho (up, down):  7.790E-05 0.000E+00

     total cpu time spent up to now is       25.4 secs

     total energy              =     -34.53951650 Ry
     Harris-Foulkes estimate   =     -34.53952140 Ry
     estimated scf accuracy    <       0.00019006 Ry

     iteration # 12     ecut=   200.00 Ry     beta= 0.70
     Davidson diagonalization with overlap
     ethr =  2.38E-06,  avg # of iterations =  1.0

     negative rho (up, down):  1.327E-04 0.000E+00

     total cpu time spent up to now is       27.3 secs

     total energy              =     -34.53948956 Ry
     Harris-Foulkes estimate   =     -34.53952299 Ry
     estimated scf accuracy    <       0.00013094 Ry

     iteration # 13     ecut=   200.00 Ry     beta= 0.70
     Davidson diagonalization with overlap
     ethr =  1.64E-06,  avg # of iterations =  2.0

     negative rho (up, down):  1.409E-04 0.000E+00

     total cpu time spent up to now is       29.1 secs

     total energy              =     -34.53949742 Ry
     Harris-Foulkes estimate   =     -34.53950260 Ry
     estimated scf accuracy    <       0.00003180 Ry

     iteration # 14     ecut=   200.00 Ry     beta= 0.70
     Davidson diagonalization with overlap
     ethr =  3.98E-07,  avg # of iterations =  3.0

     negative rho (up, down):  1.391E-04 0.000E+00

     total cpu time spent up to now is       31.1 secs

     total energy              =     -34.53950723 Ry
     Harris-Foulkes estimate   =     -34.53950777 Ry
     estimated scf accuracy    <       0.00000655 Ry

     iteration # 15     ecut=   200.00 Ry     beta= 0.70
     Davidson diagonalization with overlap
     ethr =  8.19E-08,  avg # of iterations =  2.0

     negative rho (up, down):  1.421E-04 0.000E+00

     total cpu time spent up to now is       33.0 secs

     total energy              =     -34.53950727 Ry
     Harris-Foulkes estimate   =     -34.53950841 Ry
     estimated scf accuracy    <       0.00000407 Ry

     iteration # 16     ecut=   200.00 Ry     beta= 0.70
     Davidson diagonalization with overlap
     ethr =  5.08E-08,  avg # of iterations =  1.0

     negative rho (up, down):  1.468E-04 0.000E+00

     total cpu time spent up to now is       34.9 secs

     total energy              =     -34.53950685 Ry
     Harris-Foulkes estimate   =     -34.53950748 Ry
     estimated scf accuracy    <       0.00000166 Ry

     iteration # 17     ecut=   200.00 Ry     beta= 0.70
     Davidson diagonalization with overlap
     ethr =  2.08E-08,  avg # of iterations =  3.0

     negative rho (up, down):  1.440E-04 0.000E+00

     total cpu time spent up to now is       37.0 secs

     total energy              =     -34.53950722 Ry
     Harris-Foulkes estimate   =     -34.53950796 Ry
     estimated scf accuracy    <       0.00000289 Ry

     iteration # 18     ecut=   200.00 Ry     beta= 0.70
     Davidson diagonalization with overlap
     ethr =  2.08E-08,  avg # of iterations =  1.0

     negative rho (up, down):  1.436E-04 0.000E+00

     total cpu time spent up to now is       38.9 secs

     total energy              =     -34.53950721 Ry
     Harris-Foulkes estimate   =     -34.53950732 Ry
     estimated scf accuracy    <       0.00000134 Ry

     iteration # 19     ecut=   200.00 Ry     beta= 0.70
     Davidson diagonalization with overlap
     ethr =  1.67E-08,  avg # of iterations =  3.0

     negative rho (up, down):  1.430E-04 0.000E+00

     total cpu time spent up to now is       40.9 secs

     total energy              =     -34.53950734 Ry
     Harris-Foulkes estimate   =     -34.53950750 Ry
     estimated scf accuracy    <       0.00000095 Ry

     iteration # 20     ecut=   200.00 Ry     beta= 0.70
     Davidson diagonalization with overlap
     ethr =  1.18E-08,  avg # of iterations =  1.0

     negative rho (up, down):  1.436E-04 0.000E+00

     total cpu time spent up to now is       42.7 secs

     total energy              =     -34.53950732 Ry
     Harris-Foulkes estimate   =     -34.53950736 Ry
     estimated scf accuracy    <       0.00000055 Ry

     iteration # 21     ecut=   200.00 Ry     beta= 0.70
     Davidson diagonalization with overlap
     ethr =  6.87E-09,  avg # of iterations =  1.0

     negative rho (up, down):  1.435E-04 0.000E+00

     total cpu time spent up to now is       44.6 secs

     total energy              =     -34.53950720 Ry
     Harris-Foulkes estimate   =     -34.53950733 Ry
     estimated scf accuracy    <       0.00000044 Ry

     iteration # 22     ecut=   200.00 Ry     beta= 0.70
     Davidson diagonalization with overlap
     ethr =  5.51E-09,  avg # of iterations =  2.0

     negative rho (up, down):  1.437E-04 0.000E+00

     total cpu time spent up to now is       46.5 secs

     total energy              =     -34.53950728 Ry
     Harris-Foulkes estimate   =     -34.53950727 Ry
     estimated scf accuracy    <       0.00000013 Ry

     iteration # 23     ecut=   200.00 Ry     beta= 0.70
     Davidson diagonalization with overlap
     ethr =  1.61E-09,  avg # of iterations =  1.0

     negative rho (up, down):  1.437E-04 0.000E+00

     total cpu time spent up to now is       48.3 secs

     total energy              =     -34.53950724 Ry
     Harris-Foulkes estimate   =     -34.53950728 Ry
     estimated scf accuracy    <       0.00000009 Ry

     iteration # 24     ecut=   200.00 Ry     beta= 0.70
     Davidson diagonalization with overlap
     ethr =  1.10E-09,  avg # of iterations =  3.0

     negative rho (up, down):  1.440E-04 0.000E+00

     total cpu time spent up to now is       50.0 secs

     End of self-consistent calculation

          k = 0.0000 0.0000 0.0000 (382323 PWs)   bands (ev):

   -23.1830 -11.3835  -7.7513  -6.5384  -3.9439  -0.3571   0.2926   0.9342

     the Fermi energy is    -6.2251 ev

!    total energy              =     -34.53950726 Ry
     Harris-Foulkes estimate   =     -34.53950726 Ry
     estimated scf accuracy    <          3.1E-09 Ry

     The total energy is the sum of the following terms:

     one-electron contribution =     -58.92913524 Ry
     hartree contribution      =      31.14568345 Ry
     xc contribution           =      -8.47433374 Ry
     ewald contribution        =       1.71420078 Ry
     smearing contrib. (-TS)   =       0.00407751 Ry

     convergence has been achieved in  24 iterations

     Writing output data file pwscf.save
 
     init_run     :      2.87s CPU      3.02s WALL (       1 calls)
     electrons    :     41.37s CPU     46.47s WALL (       1 calls)

     Called by init_run:
     wfcinit      :      0.34s CPU      0.38s WALL (       1 calls)
     potinit      :      0.47s CPU      0.49s WALL (       1 calls)

     Called by electrons:
     c_bands      :     16.24s CPU     16.40s WALL (      24 calls)
     sum_band     :     10.30s CPU     11.18s WALL (      24 calls)
     v_of_rho     :      7.40s CPU      7.67s WALL (      25 calls)
     newd         :      3.48s CPU      4.26s WALL (      25 calls)
     mix_rho      :      4.00s CPU      6.73s WALL (      24 calls)

     Called by c_bands:
     init_us_2    :      0.25s CPU      0.26s WALL (      49 calls)
     cegterg      :     16.00s CPU     16.14s WALL (      24 calls)

     Called by sum_band:
     sum_band:bec :      0.00s CPU      0.00s WALL (      24 calls)
     addusdens    :      5.27s CPU      6.05s WALL (      24 calls)

     Called by *egterg:
     h_psi        :     15.41s CPU     15.54s WALL (      83 calls)
     s_psi        :      0.10s CPU      0.10s WALL (      83 calls)
     g_psi        :      0.03s CPU      0.03s WALL (      58 calls)
     cdiaghg      :      0.02s CPU      0.02s WALL (      82 calls)

     Called by h_psi:
     h_psi:pot    :     15.33s CPU     15.45s WALL (      83 calls)
     h_psi:calbec :      0.15s CPU      0.16s WALL (      83 calls)
     vloc_psi     :     15.09s CPU     15.21s WALL (      83 calls)
     add_vuspsi   :      0.08s CPU      0.09s WALL (      83 calls)

     General routines
     calbec       :      0.19s CPU      0.20s WALL (     107 calls)
     fft          :      7.64s CPU      8.05s WALL (     324 calls)
     fftw         :     15.71s CPU     15.83s WALL (    1126 calls)
     davcio       :      0.39s CPU      2.82s WALL (     387 calls)
 
     Parallel routines
     fft_scatt_xy :      4.01s CPU      4.02s WALL (    1450 calls)
     fft_scatt_yz :      5.21s CPU      5.65s WALL (    1450 calls)
 
     PWSCF        :    44.91s CPU        51.15s WALL

 
   This run was terminated on:  23:29:33  12May2018            

=------------------------------------------------------------------------------=
   JOB DONE.
=------------------------------------------------------------------------------=
