
     Program PWSCF v.6.2 (svn rev. 14038) starts on 12May2018 at 23:46:19 

     This program is part of the open-source Quantum ESPRESSO suite
     for quantum simulation of materials; please cite
         "P. Giannozzi et al., J. Phys.:Condens. Matter 21 395502 (2009);
         "P. Giannozzi et al., J. Phys.:Condens. Matter 29 465901 (2017);
          URL http://www.quantum-espresso.org", 
     in publications or presentations arising from this work. More details at
     http://www.quantum-espresso.org/quote

     Parallel version (MPI), running on    28 processors

     MPI processes distributed on     1 nodes
     R & G space division:  proc/nbgrp/npool/nimage =      28
     Reading input from ../ecut200/10500.in
Warning: card &IONS ignored
Warning: card     POT_EXTRAPOLATION='SECOND-ORDER' ignored
Warning: card     WFC_EXTRAPOLATION='SECOND-ORDER' ignored
Warning: card     ION_TEMPERATURE = 'ANDERSEN' ignored
Warning: card / ignored

     Current dimensions of program PWSCF are:
     Max number of different atomic species (ntypx) = 10
     Max number of k-points (npk) =  40000
     Max angular momentum in pseudopotentials (lmaxx) =  3

     Subspace diagonalization in iterative solution of the eigenvalue problem:
     a serial algorithm will be used

 
     Parallelization info
     --------------------
     sticks:   dense  smooth     PW     G-vecs:    dense   smooth      PW
     Min         909     909    227               109161   109161   13653
     Max         911     911    228               109164   109164   13656
     Sum       25477   25477   6369              3056521  3056521  382323
 


     bravais-lattice index     =            1
     lattice parameter (alat)  =      20.0000  a.u.
     unit-cell volume          =    8000.0000 (a.u.)^3
     number of atoms/cell      =            3
     number of atomic types    =            2
     number of electrons       =         8.00
     number of Kohn-Sham states=            8
     kinetic-energy cutoff     =     200.0000  Ry
     charge density cutoff     =     800.0000  Ry
     convergence threshold     =      1.0E-08
     mixing beta               =       0.7000
     number of iterations used =            8  plain     mixing
     Exchange-correlation      = PBE ( 1  4  3  4 0 0)

     celldm(1)=  20.000000  celldm(2)=   0.000000  celldm(3)=   0.000000
     celldm(4)=   0.000000  celldm(5)=   0.000000  celldm(6)=   0.000000

     crystal axes: (cart. coord. in units of alat)
               a(1) = (   1.000000   0.000000   0.000000 )  
               a(2) = (   0.000000   1.000000   0.000000 )  
               a(3) = (   0.000000   0.000000   1.000000 )  

     reciprocal axes: (cart. coord. in units 2 pi/alat)
               b(1) = (  1.000000  0.000000  0.000000 )  
               b(2) = (  0.000000  1.000000  0.000000 )  
               b(3) = (  0.000000  0.000000  1.000000 )  


     PseudoPot. # 1 for H  read from file:
     ../pslibrary/pbe/PSEUDOPOTENTIALS/H.pbe-rrkjus_psl.1.0.0.UPF
     MD5 check sum: b2b1ff84b4ceabe23335d1bf25025923
     Pseudo is Ultrasoft, Zval =  1.0
     Generated using "atomic" code by A. Dal Corso v.6.2 svn rev. 14038
     Using radial grid of  929 points,  2 beta functions with: 
                l(1) =   0
                l(2) =   0
     Q(r) pseudized with 0 coefficients 


     PseudoPot. # 2 for O  read from file:
     ../pslibrary/pbe/PSEUDOPOTENTIALS/O.pbe-n-rrkjus_psl.1.0.0.UPF
     MD5 check sum: 61455b21a47f6823f888c3bfb9bd1235
     Pseudo is Ultrasoft + core correction, Zval =  6.0
     Generated using "atomic" code by A. Dal Corso v.6.2 svn rev. 14038
     Using radial grid of 1095 points,  4 beta functions with: 
                l(1) =   0
                l(2) =   0
                l(3) =   1
                l(4) =   1
     Q(r) pseudized with 0 coefficients 


     atomic species   valence    mass     pseudopotential
        H              1.00     1.01000     H ( 1.00)
        O              6.00    16.00000     O ( 1.00)

     No symmetry found



   Cartesian axes

     site n.     atom                  positions (alat units)
         1           O   tau(   1) = (   0.0042177   0.0104666   0.0003017  )
         2           H   tau(   2) = (  -0.1082871  -0.1425812  -0.0212552  )
         3           H   tau(   3) = (   0.0414722  -0.0232270   0.1048398  )

     number of k points=     1  Marzari-Vanderbilt smearing, width (Ry)=  0.0250
                       cart. coord. in units 2pi/alat
        k(    1) = (   0.0000000   0.0000000   0.0000000), wk =   2.0000000

     Dense  grid:  3056521 G-vectors     FFT dimensions: ( 192, 192, 192)

     Estimated max dynamical RAM per process >     123.03 MB

     Estimated total dynamical RAM >       3.36 GB

     Initial potential from superposition of free atoms
     Check: negative starting charge=   -0.000109

     starting charge    7.99998, renormalised to    8.00000

     negative rho (up, down):  1.089E-04 0.000E+00
     Starting wfc are    6 randomized atomic wfcs +    2 random wfc

     total cpu time spent up to now is        3.7 secs

     Self-consistent Calculation

     iteration #  1     ecut=   200.00 Ry     beta= 0.70
     Davidson diagonalization with overlap
     ethr =  1.00E-02,  avg # of iterations =  7.0

     negative rho (up, down):  1.413E-04 0.000E+00

     total cpu time spent up to now is        5.9 secs

     total energy              =     -33.89016179 Ry
     Harris-Foulkes estimate   =     -34.51302824 Ry
     estimated scf accuracy    <       0.81485564 Ry

     iteration #  2     ecut=   200.00 Ry     beta= 0.70
     Davidson diagonalization with overlap
     ethr =  1.00E-02,  avg # of iterations =  4.0

     total cpu time spent up to now is        7.8 secs

     total energy              =     -33.68769676 Ry
     Harris-Foulkes estimate   =     -35.44667377 Ry
     estimated scf accuracy    <       6.12186896 Ry

     iteration #  3     ecut=   200.00 Ry     beta= 0.70
     Davidson diagonalization with overlap
     ethr =  1.00E-02,  avg # of iterations =  5.0

     total cpu time spent up to now is        9.7 secs

     total energy              =     -34.36855842 Ry
     Harris-Foulkes estimate   =     -34.38110524 Ry
     estimated scf accuracy    <       0.10476617 Ry

     iteration #  4     ecut=   200.00 Ry     beta= 0.70
     Davidson diagonalization with overlap
     ethr =  1.31E-03,  avg # of iterations =  2.0

     total cpu time spent up to now is       11.5 secs

     total energy              =     -34.37413126 Ry
     Harris-Foulkes estimate   =     -34.37996754 Ry
     estimated scf accuracy    <       0.04079075 Ry

     iteration #  5     ecut=   200.00 Ry     beta= 0.70
     Davidson diagonalization with overlap
     ethr =  5.10E-04,  avg # of iterations =  1.0

     negative rho (up, down):  2.338E-04 0.000E+00

     total cpu time spent up to now is       13.2 secs

     total energy              =     -34.36803122 Ry
     Harris-Foulkes estimate   =     -34.37455160 Ry
     estimated scf accuracy    <       0.02560021 Ry

     iteration #  6     ecut=   200.00 Ry     beta= 0.70
     Davidson diagonalization with overlap
     ethr =  3.20E-04,  avg # of iterations =  1.0

     negative rho (up, down):  2.206E-04 0.000E+00

     total cpu time spent up to now is       14.9 secs

     total energy              =     -34.36876236 Ry
     Harris-Foulkes estimate   =     -34.36902633 Ry
     estimated scf accuracy    <       0.00250597 Ry

     iteration #  7     ecut=   200.00 Ry     beta= 0.70
     Davidson diagonalization with overlap
     ethr =  3.13E-05,  avg # of iterations =  9.0

     negative rho (up, down):  1.978E-04 0.000E+00

     total cpu time spent up to now is       17.2 secs

     total energy              =     -34.36944399 Ry
     Harris-Foulkes estimate   =     -34.36945510 Ry
     estimated scf accuracy    <       0.00087887 Ry

     iteration #  8     ecut=   200.00 Ry     beta= 0.70
     Davidson diagonalization with overlap
     ethr =  1.10E-05,  avg # of iterations =  2.0

     negative rho (up, down):  1.239E-04 0.000E+00

     total cpu time spent up to now is       19.1 secs

     total energy              =     -34.36939140 Ry
     Harris-Foulkes estimate   =     -34.36944739 Ry
     estimated scf accuracy    <       0.00077096 Ry

     iteration #  9     ecut=   200.00 Ry     beta= 0.70
     Davidson diagonalization with overlap
     ethr =  9.64E-06,  avg # of iterations =  1.0

     negative rho (up, down):  1.034E-04 0.000E+00

     total cpu time spent up to now is       20.9 secs

     total energy              =     -34.36936189 Ry
     Harris-Foulkes estimate   =     -34.36940241 Ry
     estimated scf accuracy    <       0.00027606 Ry

     iteration # 10     ecut=   200.00 Ry     beta= 0.70
     Davidson diagonalization with overlap
     ethr =  3.45E-06,  avg # of iterations =  5.0

     negative rho (up, down):  1.156E-04 0.000E+00

     total cpu time spent up to now is       23.0 secs

     total energy              =     -34.36937416 Ry
     Harris-Foulkes estimate   =     -34.36937699 Ry
     estimated scf accuracy    <       0.00002309 Ry

     iteration # 11     ecut=   200.00 Ry     beta= 0.70
     Davidson diagonalization with overlap
     ethr =  2.89E-07,  avg # of iterations =  2.0

     negative rho (up, down):  1.428E-04 0.000E+00

     total cpu time spent up to now is       25.0 secs

     total energy              =     -34.36937533 Ry
     Harris-Foulkes estimate   =     -34.36937697 Ry
     estimated scf accuracy    <       0.00000845 Ry

     iteration # 12     ecut=   200.00 Ry     beta= 0.70
     Davidson diagonalization with overlap
     ethr =  1.06E-07,  avg # of iterations =  1.0

     negative rho (up, down):  1.372E-04 0.000E+00

     total cpu time spent up to now is       26.8 secs

     total energy              =     -34.36937471 Ry
     Harris-Foulkes estimate   =     -34.36937571 Ry
     estimated scf accuracy    <       0.00000265 Ry

     iteration # 13     ecut=   200.00 Ry     beta= 0.70
     Davidson diagonalization with overlap
     ethr =  3.31E-08,  avg # of iterations =  3.0

     negative rho (up, down):  1.351E-04 0.000E+00

     total cpu time spent up to now is       28.8 secs

     total energy              =     -34.36937519 Ry
     Harris-Foulkes estimate   =     -34.36937518 Ry
     estimated scf accuracy    <       0.00000019 Ry

     iteration # 14     ecut=   200.00 Ry     beta= 0.70
     Davidson diagonalization with overlap
     ethr =  2.41E-09,  avg # of iterations =  3.0

     negative rho (up, down):  1.351E-04 0.000E+00

     total cpu time spent up to now is       30.7 secs

     total energy              =     -34.36937525 Ry
     Harris-Foulkes estimate   =     -34.36937526 Ry
     estimated scf accuracy    <       0.00000015 Ry

     iteration # 15     ecut=   200.00 Ry     beta= 0.70
     Davidson diagonalization with overlap
     ethr =  1.93E-09,  avg # of iterations =  2.0

     negative rho (up, down):  1.321E-04 0.000E+00

     total cpu time spent up to now is       32.5 secs

     total energy              =     -34.36937520 Ry
     Harris-Foulkes estimate   =     -34.36937527 Ry
     estimated scf accuracy    <       0.00000012 Ry

     iteration # 16     ecut=   200.00 Ry     beta= 0.70
     Davidson diagonalization with overlap
     ethr =  1.52E-09,  avg # of iterations =  1.0

     negative rho (up, down):  1.321E-04 0.000E+00

     total cpu time spent up to now is       34.4 secs

     total energy              =     -34.36937520 Ry
     Harris-Foulkes estimate   =     -34.36937521 Ry
     estimated scf accuracy    <       0.00000002 Ry

     iteration # 17     ecut=   200.00 Ry     beta= 0.70
     Davidson diagonalization with overlap
     ethr =  2.53E-10,  avg # of iterations =  3.0

     negative rho (up, down):  1.321E-04 0.000E+00

     total cpu time spent up to now is       35.9 secs

     End of self-consistent calculation

          k = 0.0000 0.0000 0.0000 (382323 PWs)   bands (ev):

   -22.5624  -9.8547  -8.3632  -6.6304  -5.6187  -1.3477  -0.0092   0.8410

     the Fermi energy is    -6.3173 ev

!    total energy              =     -34.36937520 Ry
     Harris-Foulkes estimate   =     -34.36937520 Ry
     estimated scf accuracy    <          7.9E-09 Ry

     The total energy is the sum of the following terms:

     one-electron contribution =     -55.01557627 Ry
     hartree contribution      =      29.14022994 Ry
     xc contribution           =      -8.23965782 Ry
     ewald contribution        =      -0.25841043 Ry
     smearing contrib. (-TS)   =       0.00403939 Ry

     convergence has been achieved in  17 iterations

     Writing output data file pwscf.save
 
     init_run     :      2.80s CPU      2.98s WALL (       1 calls)
     electrons    :     28.78s CPU     32.60s WALL (       1 calls)

     Called by init_run:
     wfcinit      :      0.30s CPU      0.35s WALL (       1 calls)
     potinit      :      0.47s CPU      0.49s WALL (       1 calls)

     Called by electrons:
     c_bands      :     11.69s CPU     11.81s WALL (      17 calls)
     sum_band     :      7.22s CPU      7.87s WALL (      17 calls)
     v_of_rho     :      5.31s CPU      5.53s WALL (      18 calls)
     newd         :      2.50s CPU      3.07s WALL (      18 calls)
     mix_rho      :      2.25s CPU      4.20s WALL (      17 calls)

     Called by c_bands:
     init_us_2    :      0.18s CPU      0.19s WALL (      35 calls)
     cegterg      :     11.52s CPU     11.63s WALL (      17 calls)

     Called by sum_band:
     sum_band:bec :      0.00s CPU      0.00s WALL (      17 calls)
     addusdens    :      3.69s CPU      4.27s WALL (      17 calls)

     Called by *egterg:
     h_psi        :     11.12s CPU     11.23s WALL (      70 calls)
     s_psi        :      0.07s CPU      0.08s WALL (      70 calls)
     g_psi        :      0.03s CPU      0.03s WALL (      52 calls)
     cdiaghg      :      0.02s CPU      0.02s WALL (      69 calls)

     Called by h_psi:
     h_psi:pot    :     11.06s CPU     11.17s WALL (      70 calls)
     h_psi:calbec :      0.11s CPU      0.11s WALL (      70 calls)
     vloc_psi     :     10.89s CPU     10.99s WALL (      70 calls)
     add_vuspsi   :      0.07s CPU      0.07s WALL (      70 calls)

     General routines
     calbec       :      0.14s CPU      0.14s WALL (      87 calls)
     fft          :      5.43s CPU      5.77s WALL (     233 calls)
     fftw         :     11.34s CPU     11.44s WALL (     808 calls)
     davcio       :      0.24s CPU      2.03s WALL (     247 calls)
 
     Parallel routines
     fft_scatt_xy :      2.89s CPU      2.90s WALL (    1041 calls)
     fft_scatt_yz :      3.87s CPU      4.24s WALL (    1041 calls)
 
     PWSCF        :    32.28s CPU        37.02s WALL

 
   This run was terminated on:  23:46:56  12May2018            

=------------------------------------------------------------------------------=
   JOB DONE.
=------------------------------------------------------------------------------=
