
     Program PWSCF v.6.2 (svn rev. 14038) starts on 12May2018 at 23:57:45 

     This program is part of the open-source Quantum ESPRESSO suite
     for quantum simulation of materials; please cite
         "P. Giannozzi et al., J. Phys.:Condens. Matter 21 395502 (2009);
         "P. Giannozzi et al., J. Phys.:Condens. Matter 29 465901 (2017);
          URL http://www.quantum-espresso.org", 
     in publications or presentations arising from this work. More details at
     http://www.quantum-espresso.org/quote

     Parallel version (MPI), running on    28 processors

     MPI processes distributed on     1 nodes
     R & G space division:  proc/nbgrp/npool/nimage =      28
     Reading input from ../ecut200/17000.in
Warning: card &IONS ignored
Warning: card     POT_EXTRAPOLATION='SECOND-ORDER' ignored
Warning: card     WFC_EXTRAPOLATION='SECOND-ORDER' ignored
Warning: card     ION_TEMPERATURE = 'ANDERSEN' ignored
Warning: card / ignored

     Current dimensions of program PWSCF are:
     Max number of different atomic species (ntypx) = 10
     Max number of k-points (npk) =  40000
     Max angular momentum in pseudopotentials (lmaxx) =  3

     Subspace diagonalization in iterative solution of the eigenvalue problem:
     a serial algorithm will be used

 
     Parallelization info
     --------------------
     sticks:   dense  smooth     PW     G-vecs:    dense   smooth      PW
     Min         909     909    227               109161   109161   13653
     Max         911     911    228               109164   109164   13656
     Sum       25477   25477   6369              3056521  3056521  382323
 


     bravais-lattice index     =            1
     lattice parameter (alat)  =      20.0000  a.u.
     unit-cell volume          =    8000.0000 (a.u.)^3
     number of atoms/cell      =            3
     number of atomic types    =            2
     number of electrons       =         8.00
     number of Kohn-Sham states=            8
     kinetic-energy cutoff     =     200.0000  Ry
     charge density cutoff     =     800.0000  Ry
     convergence threshold     =      1.0E-08
     mixing beta               =       0.7000
     number of iterations used =            8  plain     mixing
     Exchange-correlation      = PBE ( 1  4  3  4 0 0)

     celldm(1)=  20.000000  celldm(2)=   0.000000  celldm(3)=   0.000000
     celldm(4)=   0.000000  celldm(5)=   0.000000  celldm(6)=   0.000000

     crystal axes: (cart. coord. in units of alat)
               a(1) = (   1.000000   0.000000   0.000000 )  
               a(2) = (   0.000000   1.000000   0.000000 )  
               a(3) = (   0.000000   0.000000   1.000000 )  

     reciprocal axes: (cart. coord. in units 2 pi/alat)
               b(1) = (  1.000000  0.000000  0.000000 )  
               b(2) = (  0.000000  1.000000  0.000000 )  
               b(3) = (  0.000000  0.000000  1.000000 )  


     PseudoPot. # 1 for H  read from file:
     ../pslibrary/pbe/PSEUDOPOTENTIALS/H.pbe-rrkjus_psl.1.0.0.UPF
     MD5 check sum: b2b1ff84b4ceabe23335d1bf25025923
     Pseudo is Ultrasoft, Zval =  1.0
     Generated using "atomic" code by A. Dal Corso v.6.2 svn rev. 14038
     Using radial grid of  929 points,  2 beta functions with: 
                l(1) =   0
                l(2) =   0
     Q(r) pseudized with 0 coefficients 


     PseudoPot. # 2 for O  read from file:
     ../pslibrary/pbe/PSEUDOPOTENTIALS/O.pbe-n-rrkjus_psl.1.0.0.UPF
     MD5 check sum: 61455b21a47f6823f888c3bfb9bd1235
     Pseudo is Ultrasoft + core correction, Zval =  6.0
     Generated using "atomic" code by A. Dal Corso v.6.2 svn rev. 14038
     Using radial grid of 1095 points,  4 beta functions with: 
                l(1) =   0
                l(2) =   0
                l(3) =   1
                l(4) =   1
     Q(r) pseudized with 0 coefficients 


     atomic species   valence    mass     pseudopotential
        H              1.00     1.01000     H ( 1.00)
        O              6.00    16.00000     O ( 1.00)

     No symmetry found



   Cartesian axes

     site n.     atom                  positions (alat units)
         1           O   tau(   1) = (  -0.0088774   0.0028914   0.0090424  )
         2           H   tau(   2) = (   0.0878224  -0.0935777   0.0182027  )
         3           H   tau(   3) = (   0.0528092   0.0477734  -0.0730858  )

     number of k points=     1  Marzari-Vanderbilt smearing, width (Ry)=  0.0250
                       cart. coord. in units 2pi/alat
        k(    1) = (   0.0000000   0.0000000   0.0000000), wk =   2.0000000

     Dense  grid:  3056521 G-vectors     FFT dimensions: ( 192, 192, 192)

     Estimated max dynamical RAM per process >     123.03 MB

     Estimated total dynamical RAM >       3.36 GB

     Initial potential from superposition of free atoms
     Check: negative starting charge=   -0.000118

     starting charge    7.99998, renormalised to    8.00000

     negative rho (up, down):  1.185E-04 0.000E+00
     Starting wfc are    6 randomized atomic wfcs +    2 random wfc

     total cpu time spent up to now is        3.6 secs

     Self-consistent Calculation

     iteration #  1     ecut=   200.00 Ry     beta= 0.70
     Davidson diagonalization with overlap
     ethr =  1.00E-02,  avg # of iterations =  7.0

     negative rho (up, down):  1.477E-04 0.000E+00

     total cpu time spent up to now is        5.9 secs

     total energy              =     -34.34578715 Ry
     Harris-Foulkes estimate   =     -34.67740901 Ry
     estimated scf accuracy    <       0.44370830 Ry

     iteration #  2     ecut=   200.00 Ry     beta= 0.70
     Davidson diagonalization with overlap
     ethr =  5.55E-03,  avg # of iterations =  3.0

     negative rho (up, down):  7.296E-05 0.000E+00

     total cpu time spent up to now is        7.8 secs

     total energy              =     -34.27580749 Ry
     Harris-Foulkes estimate   =     -34.90787603 Ry
     estimated scf accuracy    <       1.85040205 Ry

     iteration #  3     ecut=   200.00 Ry     beta= 0.70
     Davidson diagonalization with overlap
     ethr =  5.55E-03,  avg # of iterations =  1.0

     negative rho (up, down):  4.502E-06 0.000E+00

     total cpu time spent up to now is        9.4 secs

     total energy              =     -34.45787050 Ry
     Harris-Foulkes estimate   =     -34.47791972 Ry
     estimated scf accuracy    <       0.11138598 Ry

     iteration #  4     ecut=   200.00 Ry     beta= 0.70
     Davidson diagonalization with overlap
     ethr =  1.39E-03,  avg # of iterations =  3.0

     negative rho (up, down):  5.660E-06 0.000E+00

     total cpu time spent up to now is       11.4 secs

     total energy              =     -34.56995877 Ry
     Harris-Foulkes estimate   =     -34.57972740 Ry
     estimated scf accuracy    <       0.04900134 Ry

     iteration #  5     ecut=   200.00 Ry     beta= 0.70
     Davidson diagonalization with overlap
     ethr =  6.13E-04,  avg # of iterations =  1.0

     negative rho (up, down):  8.649E-06 0.000E+00

     total cpu time spent up to now is       13.2 secs

     total energy              =     -34.57377570 Ry
     Harris-Foulkes estimate   =     -34.57545921 Ry
     estimated scf accuracy    <       0.01716016 Ry

     iteration #  6     ecut=   200.00 Ry     beta= 0.70
     Davidson diagonalization with overlap
     ethr =  2.15E-04,  avg # of iterations =  1.0

     negative rho (up, down):  1.048E-05 0.000E+00

     total cpu time spent up to now is       14.9 secs

     total energy              =     -34.57339736 Ry
     Harris-Foulkes estimate   =     -34.57405095 Ry
     estimated scf accuracy    <       0.01194855 Ry

     iteration #  7     ecut=   200.00 Ry     beta= 0.70
     Davidson diagonalization with overlap
     ethr =  1.49E-04,  avg # of iterations =  1.0

     negative rho (up, down):  1.759E-05 0.000E+00

     total cpu time spent up to now is       16.7 secs

     total energy              =     -34.57264936 Ry
     Harris-Foulkes estimate   =     -34.57363268 Ry
     estimated scf accuracy    <       0.00821412 Ry

     iteration #  8     ecut=   200.00 Ry     beta= 0.70
     Davidson diagonalization with overlap
     ethr =  1.03E-04,  avg # of iterations =  8.0

     negative rho (up, down):  2.342E-05 0.000E+00

     total cpu time spent up to now is       18.8 secs

     total energy              =     -34.57350635 Ry
     Harris-Foulkes estimate   =     -34.57357177 Ry
     estimated scf accuracy    <       0.00189495 Ry

     iteration #  9     ecut=   200.00 Ry     beta= 0.70
     Davidson diagonalization with overlap
     ethr =  2.37E-05,  avg # of iterations =  1.0

     negative rho (up, down):  5.767E-05 0.000E+00

     total cpu time spent up to now is       20.6 secs

     total energy              =     -34.57330210 Ry
     Harris-Foulkes estimate   =     -34.57352806 Ry
     estimated scf accuracy    <       0.00149841 Ry

     iteration # 10     ecut=   200.00 Ry     beta= 0.70
     Davidson diagonalization with overlap
     ethr =  1.87E-05,  avg # of iterations =  1.0

     negative rho (up, down):  1.258E-04 0.000E+00

     total cpu time spent up to now is       22.5 secs

     total energy              =     -34.57323757 Ry
     Harris-Foulkes estimate   =     -34.57334781 Ry
     estimated scf accuracy    <       0.00065907 Ry

     iteration # 11     ecut=   200.00 Ry     beta= 0.70
     Davidson diagonalization with overlap
     ethr =  8.24E-06,  avg # of iterations =  4.0

     negative rho (up, down):  1.277E-04 0.000E+00

     total cpu time spent up to now is       24.5 secs

     total energy              =     -34.57332619 Ry
     Harris-Foulkes estimate   =     -34.57333189 Ry
     estimated scf accuracy    <       0.00010333 Ry

     iteration # 12     ecut=   200.00 Ry     beta= 0.70
     Davidson diagonalization with overlap
     ethr =  1.29E-06,  avg # of iterations = 10.0

     negative rho (up, down):  1.459E-04 0.000E+00

     total cpu time spent up to now is       26.8 secs

     total energy              =     -34.57333320 Ry
     Harris-Foulkes estimate   =     -34.57333859 Ry
     estimated scf accuracy    <       0.00004597 Ry

     iteration # 13     ecut=   200.00 Ry     beta= 0.70
     Davidson diagonalization with overlap
     ethr =  5.75E-07,  avg # of iterations =  1.0

     negative rho (up, down):  1.506E-04 0.000E+00

     total cpu time spent up to now is       28.7 secs

     total energy              =     -34.57332811 Ry
     Harris-Foulkes estimate   =     -34.57333378 Ry
     estimated scf accuracy    <       0.00002630 Ry

     iteration # 14     ecut=   200.00 Ry     beta= 0.70
     Davidson diagonalization with overlap
     ethr =  3.29E-07,  avg # of iterations =  1.0

     negative rho (up, down):  1.496E-04 0.000E+00

     total cpu time spent up to now is       30.5 secs

     total energy              =     -34.57332844 Ry
     Harris-Foulkes estimate   =     -34.57332956 Ry
     estimated scf accuracy    <       0.00000619 Ry

     iteration # 15     ecut=   200.00 Ry     beta= 0.70
     Davidson diagonalization with overlap
     ethr =  7.73E-08,  avg # of iterations =  3.0

     negative rho (up, down):  1.485E-04 0.000E+00

     total cpu time spent up to now is       32.5 secs

     total energy              =     -34.57332938 Ry
     Harris-Foulkes estimate   =     -34.57332958 Ry
     estimated scf accuracy    <       0.00000109 Ry

     iteration # 16     ecut=   200.00 Ry     beta= 0.70
     Davidson diagonalization with overlap
     ethr =  1.37E-08,  avg # of iterations =  3.0

     negative rho (up, down):  1.484E-04 0.000E+00

     total cpu time spent up to now is       34.6 secs

     total energy              =     -34.57332993 Ry
     Harris-Foulkes estimate   =     -34.57333087 Ry
     estimated scf accuracy    <       0.00000516 Ry

     iteration # 17     ecut=   200.00 Ry     beta= 0.70
     Davidson diagonalization with overlap
     ethr =  1.37E-08,  avg # of iterations =  1.0

     negative rho (up, down):  1.471E-04 0.000E+00

     total cpu time spent up to now is       36.4 secs

     total energy              =     -34.57332922 Ry
     Harris-Foulkes estimate   =     -34.57333000 Ry
     estimated scf accuracy    <       0.00000259 Ry

     iteration # 18     ecut=   200.00 Ry     beta= 0.70
     Davidson diagonalization with overlap
     ethr =  1.37E-08,  avg # of iterations =  3.0

     negative rho (up, down):  1.471E-04 0.000E+00

     total cpu time spent up to now is       38.4 secs

     total energy              =     -34.57332967 Ry
     Harris-Foulkes estimate   =     -34.57332968 Ry
     estimated scf accuracy    <       0.00000011 Ry

     iteration # 19     ecut=   200.00 Ry     beta= 0.70
     Davidson diagonalization with overlap
     ethr =  1.34E-09,  avg # of iterations =  1.0

     negative rho (up, down):  1.477E-04 0.000E+00

     total cpu time spent up to now is       40.3 secs

     total energy              =     -34.57332965 Ry
     Harris-Foulkes estimate   =     -34.57332967 Ry
     estimated scf accuracy    <       0.00000006 Ry

     iteration # 20     ecut=   200.00 Ry     beta= 0.70
     Davidson diagonalization with overlap
     ethr =  7.38E-10,  avg # of iterations =  1.0

     negative rho (up, down):  1.481E-04 0.000E+00

     total cpu time spent up to now is       41.8 secs

     End of self-consistent calculation

          k = 0.0000 0.0000 0.0000 (382323 PWs)   bands (ev):

   -22.9841 -10.1220  -9.4422  -6.7402  -3.1168  -0.9033   0.0597   0.8928

     the Fermi energy is    -4.7363 ev

!    total energy              =     -34.57332965 Ry
     Harris-Foulkes estimate   =     -34.57332966 Ry
     estimated scf accuracy    <          5.0E-09 Ry

     The total energy is the sum of the following terms:

     one-electron contribution =     -58.11892536 Ry
     hartree contribution      =      30.65729149 Ry
     xc contribution           =      -8.39490471 Ry
     ewald contribution        =       1.28320893 Ry
     smearing contrib. (-TS)   =       0.00000000 Ry

     convergence has been achieved in  20 iterations

     Writing output data file pwscf.save
 
     init_run     :      2.84s CPU      2.99s WALL (       1 calls)
     electrons    :     34.17s CPU     38.40s WALL (       1 calls)

     Called by init_run:
     wfcinit      :      0.32s CPU      0.36s WALL (       1 calls)
     potinit      :      0.46s CPU      0.49s WALL (       1 calls)

     Called by electrons:
     c_bands      :     13.73s CPU     13.86s WALL (      20 calls)
     sum_band     :      8.58s CPU      9.35s WALL (      20 calls)
     v_of_rho     :      6.18s CPU      6.44s WALL (      21 calls)
     newd         :      2.89s CPU      3.56s WALL (      21 calls)
     mix_rho      :      2.92s CPU      5.12s WALL (      20 calls)

     Called by c_bands:
     init_us_2    :      0.20s CPU      0.22s WALL (      41 calls)
     cegterg      :     13.54s CPU     13.65s WALL (      20 calls)

     Called by sum_band:
     sum_band:bec :      0.00s CPU      0.00s WALL (      20 calls)
     addusdens    :      4.41s CPU      5.08s WALL (      20 calls)

     Called by *egterg:
     h_psi        :     13.06s CPU     13.17s WALL (      76 calls)
     s_psi        :      0.09s CPU      0.09s WALL (      76 calls)
     g_psi        :      0.03s CPU      0.03s WALL (      55 calls)
     cdiaghg      :      0.02s CPU      0.02s WALL (      75 calls)

     Called by h_psi:
     h_psi:pot    :     12.99s CPU     13.10s WALL (      76 calls)
     h_psi:calbec :      0.11s CPU      0.11s WALL (      76 calls)
     vloc_psi     :     12.81s CPU     12.91s WALL (      76 calls)
     add_vuspsi   :      0.08s CPU      0.08s WALL (      76 calls)

     General routines
     calbec       :      0.15s CPU      0.15s WALL (      96 calls)
     fft          :      6.49s CPU      6.88s WALL (     272 calls)
     fftw         :     13.47s CPU     13.57s WALL (     950 calls)
     davcio       :      0.33s CPU      2.34s WALL (     307 calls)
 
     Parallel routines
     fft_scatt_xy :      3.32s CPU      3.33s WALL (    1222 calls)
     fft_scatt_yz :      4.86s CPU      5.28s WALL (    1222 calls)
 
     PWSCF        :    37.64s CPU        42.90s WALL

 
   This run was terminated on:  23:58:28  12May2018            

=------------------------------------------------------------------------------=
   JOB DONE.
=------------------------------------------------------------------------------=
