
     Program PWSCF v.6.2 (svn rev. 14038) starts on 12May2018 at 23:30:37 

     This program is part of the open-source Quantum ESPRESSO suite
     for quantum simulation of materials; please cite
         "P. Giannozzi et al., J. Phys.:Condens. Matter 21 395502 (2009);
         "P. Giannozzi et al., J. Phys.:Condens. Matter 29 465901 (2017);
          URL http://www.quantum-espresso.org", 
     in publications or presentations arising from this work. More details at
     http://www.quantum-espresso.org/quote

     Parallel version (MPI), running on    28 processors

     MPI processes distributed on     1 nodes
     R & G space division:  proc/nbgrp/npool/nimage =      28
     Reading input from ../ecut200/2000.in
Warning: card &IONS ignored
Warning: card     POT_EXTRAPOLATION='SECOND-ORDER' ignored
Warning: card     WFC_EXTRAPOLATION='SECOND-ORDER' ignored
Warning: card     ION_TEMPERATURE = 'ANDERSEN' ignored
Warning: card / ignored

     Current dimensions of program PWSCF are:
     Max number of different atomic species (ntypx) = 10
     Max number of k-points (npk) =  40000
     Max angular momentum in pseudopotentials (lmaxx) =  3

     Subspace diagonalization in iterative solution of the eigenvalue problem:
     a serial algorithm will be used

 
     Parallelization info
     --------------------
     sticks:   dense  smooth     PW     G-vecs:    dense   smooth      PW
     Min         909     909    227               109161   109161   13653
     Max         911     911    228               109164   109164   13656
     Sum       25477   25477   6369              3056521  3056521  382323
 


     bravais-lattice index     =            1
     lattice parameter (alat)  =      20.0000  a.u.
     unit-cell volume          =    8000.0000 (a.u.)^3
     number of atoms/cell      =            3
     number of atomic types    =            2
     number of electrons       =         8.00
     number of Kohn-Sham states=            8
     kinetic-energy cutoff     =     200.0000  Ry
     charge density cutoff     =     800.0000  Ry
     convergence threshold     =      1.0E-08
     mixing beta               =       0.7000
     number of iterations used =            8  plain     mixing
     Exchange-correlation      = PBE ( 1  4  3  4 0 0)

     celldm(1)=  20.000000  celldm(2)=   0.000000  celldm(3)=   0.000000
     celldm(4)=   0.000000  celldm(5)=   0.000000  celldm(6)=   0.000000

     crystal axes: (cart. coord. in units of alat)
               a(1) = (   1.000000   0.000000   0.000000 )  
               a(2) = (   0.000000   1.000000   0.000000 )  
               a(3) = (   0.000000   0.000000   1.000000 )  

     reciprocal axes: (cart. coord. in units 2 pi/alat)
               b(1) = (  1.000000  0.000000  0.000000 )  
               b(2) = (  0.000000  1.000000  0.000000 )  
               b(3) = (  0.000000  0.000000  1.000000 )  


     PseudoPot. # 1 for H  read from file:
     ../pslibrary/pbe/PSEUDOPOTENTIALS/H.pbe-rrkjus_psl.1.0.0.UPF
     MD5 check sum: b2b1ff84b4ceabe23335d1bf25025923
     Pseudo is Ultrasoft, Zval =  1.0
     Generated using "atomic" code by A. Dal Corso v.6.2 svn rev. 14038
     Using radial grid of  929 points,  2 beta functions with: 
                l(1) =   0
                l(2) =   0
     Q(r) pseudized with 0 coefficients 


     PseudoPot. # 2 for O  read from file:
     ../pslibrary/pbe/PSEUDOPOTENTIALS/O.pbe-n-rrkjus_psl.1.0.0.UPF
     MD5 check sum: 61455b21a47f6823f888c3bfb9bd1235
     Pseudo is Ultrasoft + core correction, Zval =  6.0
     Generated using "atomic" code by A. Dal Corso v.6.2 svn rev. 14038
     Using radial grid of 1095 points,  4 beta functions with: 
                l(1) =   0
                l(2) =   0
                l(3) =   1
                l(4) =   1
     Q(r) pseudized with 0 coefficients 


     atomic species   valence    mass     pseudopotential
        H              1.00     1.01000     H ( 1.00)
        O              6.00    16.00000     O ( 1.00)

     No symmetry found



   Cartesian axes

     site n.     atom                  positions (alat units)
         1           O   tau(   1) = (   0.0013709   0.0021736   0.0015099  )
         2           H   tau(   2) = (   0.0542936  -0.0166063   0.1119304  )
         3           H   tau(   3) = (  -0.0760110  -0.0178265  -0.0474847  )

     number of k points=     1  Marzari-Vanderbilt smearing, width (Ry)=  0.0250
                       cart. coord. in units 2pi/alat
        k(    1) = (   0.0000000   0.0000000   0.0000000), wk =   2.0000000

     Dense  grid:  3056521 G-vectors     FFT dimensions: ( 192, 192, 192)

     Estimated max dynamical RAM per process >     123.03 MB

     Estimated total dynamical RAM >       3.36 GB

     Initial potential from superposition of free atoms
     Check: negative starting charge=   -0.000115

     starting charge    7.99998, renormalised to    8.00000

     negative rho (up, down):  1.152E-04 0.000E+00
     Starting wfc are    6 randomized atomic wfcs +    2 random wfc

     total cpu time spent up to now is        3.8 secs

     Self-consistent Calculation

     iteration #  1     ecut=   200.00 Ry     beta= 0.70
     Davidson diagonalization with overlap
     ethr =  1.00E-02,  avg # of iterations =  6.0

     negative rho (up, down):  1.608E-04 0.000E+00

     total cpu time spent up to now is        6.2 secs

     total energy              =     -34.35570830 Ry
     Harris-Foulkes estimate   =     -34.77099283 Ry
     estimated scf accuracy    <       0.55701233 Ry

     iteration #  2     ecut=   200.00 Ry     beta= 0.70
     Davidson diagonalization with overlap
     ethr =  6.96E-03,  avg # of iterations =  3.0

     negative rho (up, down):  4.422E-05 0.000E+00

     total cpu time spent up to now is        8.1 secs

     total energy              =     -34.32557731 Ry
     Harris-Foulkes estimate   =     -34.86514113 Ry
     estimated scf accuracy    <       1.37188968 Ry

     iteration #  3     ecut=   200.00 Ry     beta= 0.70
     Davidson diagonalization with overlap
     ethr =  6.96E-03,  avg # of iterations =  1.0

     negative rho (up, down):  6.234E-06 0.000E+00

     total cpu time spent up to now is        9.8 secs

     total energy              =     -34.48238168 Ry
     Harris-Foulkes estimate   =     -34.50172601 Ry
     estimated scf accuracy    <       0.09881687 Ry

     iteration #  4     ecut=   200.00 Ry     beta= 0.70
     Davidson diagonalization with overlap
     ethr =  1.24E-03,  avg # of iterations =  3.0

     negative rho (up, down):  1.161E-05 0.000E+00

     total cpu time spent up to now is       11.7 secs

     total energy              =     -34.60972025 Ry
     Harris-Foulkes estimate   =     -34.62649437 Ry
     estimated scf accuracy    <       0.05530042 Ry

     iteration #  5     ecut=   200.00 Ry     beta= 0.70
     Davidson diagonalization with overlap
     ethr =  6.91E-04,  avg # of iterations =  1.0

     negative rho (up, down):  1.632E-05 0.000E+00

     total cpu time spent up to now is       13.5 secs

     total energy              =     -34.60862749 Ry
     Harris-Foulkes estimate   =     -34.61191186 Ry
     estimated scf accuracy    <       0.01570789 Ry

     iteration #  6     ecut=   200.00 Ry     beta= 0.70
     Davidson diagonalization with overlap
     ethr =  1.96E-04,  avg # of iterations =  4.0

     negative rho (up, down):  1.890E-05 0.000E+00

     total cpu time spent up to now is       15.3 secs

     total energy              =     -34.60996900 Ry
     Harris-Foulkes estimate   =     -34.61031694 Ry
     estimated scf accuracy    <       0.00501662 Ry

     iteration #  7     ecut=   200.00 Ry     beta= 0.70
     Davidson diagonalization with overlap
     ethr =  6.27E-05,  avg # of iterations =  4.0

     negative rho (up, down):  4.679E-05 0.000E+00

     total cpu time spent up to now is       17.4 secs

     total energy              =     -34.61195935 Ry
     Harris-Foulkes estimate   =     -34.61204081 Ry
     estimated scf accuracy    <       0.00037878 Ry

     iteration #  8     ecut=   200.00 Ry     beta= 0.70
     Davidson diagonalization with overlap
     ethr =  4.73E-06,  avg # of iterations = 13.0

     negative rho (up, down):  8.625E-05 0.000E+00

     total cpu time spent up to now is       19.9 secs

     total energy              =     -34.60789042 Ry
     Harris-Foulkes estimate   =     -34.60791233 Ry
     estimated scf accuracy    <       0.00009560 Ry

     iteration #  9     ecut=   200.00 Ry     beta= 0.70
     Davidson diagonalization with overlap
     ethr =  1.20E-06,  avg # of iterations = 19.0

     negative rho (up, down):  1.503E-04 0.000E+00

     total cpu time spent up to now is       22.5 secs

     total energy              =     -34.60789345 Ry
     Harris-Foulkes estimate   =     -34.60789836 Ry
     estimated scf accuracy    <       0.00001847 Ry

     iteration # 10     ecut=   200.00 Ry     beta= 0.70
     Davidson diagonalization with overlap
     ethr =  2.31E-07,  avg # of iterations =  2.0

     negative rho (up, down):  1.510E-04 0.000E+00

     total cpu time spent up to now is       24.4 secs

     total energy              =     -34.60789593 Ry
     Harris-Foulkes estimate   =     -34.60789592 Ry
     estimated scf accuracy    <       0.00000193 Ry

     iteration # 11     ecut=   200.00 Ry     beta= 0.70
     Davidson diagonalization with overlap
     ethr =  2.42E-08,  avg # of iterations =  3.0

     negative rho (up, down):  1.509E-04 0.000E+00

     total cpu time spent up to now is       26.4 secs

     total energy              =     -34.60789635 Ry
     Harris-Foulkes estimate   =     -34.60789633 Ry
     estimated scf accuracy    <       0.00000108 Ry

     iteration # 12     ecut=   200.00 Ry     beta= 0.70
     Davidson diagonalization with overlap
     ethr =  1.35E-08,  avg # of iterations =  1.0

     negative rho (up, down):  1.518E-04 0.000E+00

     total cpu time spent up to now is       28.2 secs

     total energy              =     -34.60789631 Ry
     Harris-Foulkes estimate   =     -34.60789636 Ry
     estimated scf accuracy    <       0.00000098 Ry

     iteration # 13     ecut=   200.00 Ry     beta= 0.70
     Davidson diagonalization with overlap
     ethr =  1.23E-08,  avg # of iterations =  1.0

     negative rho (up, down):  1.515E-04 0.000E+00

     total cpu time spent up to now is       30.1 secs

     total energy              =     -34.60789621 Ry
     Harris-Foulkes estimate   =     -34.60789631 Ry
     estimated scf accuracy    <       0.00000082 Ry

     iteration # 14     ecut=   200.00 Ry     beta= 0.70
     Davidson diagonalization with overlap
     ethr =  1.02E-08,  avg # of iterations =  1.0

     negative rho (up, down):  1.515E-04 0.000E+00

     total cpu time spent up to now is       31.9 secs

     total energy              =     -34.60789625 Ry
     Harris-Foulkes estimate   =     -34.60789622 Ry
     estimated scf accuracy    <       0.00000049 Ry

     iteration # 15     ecut=   200.00 Ry     beta= 0.70
     Davidson diagonalization with overlap
     ethr =  6.10E-09,  avg # of iterations =  1.0

     negative rho (up, down):  1.506E-04 0.000E+00

     total cpu time spent up to now is       33.7 secs

     total energy              =     -34.60789604 Ry
     Harris-Foulkes estimate   =     -34.60789625 Ry
     estimated scf accuracy    <       0.00000055 Ry

     iteration # 16     ecut=   200.00 Ry     beta= 0.70
     Davidson diagonalization with overlap
     ethr =  6.10E-09,  avg # of iterations =  1.0

     negative rho (up, down):  1.504E-04 0.000E+00

     total cpu time spent up to now is       35.7 secs

     total energy              =     -34.60789606 Ry
     Harris-Foulkes estimate   =     -34.60789608 Ry
     estimated scf accuracy    <       0.00000010 Ry

     iteration # 17     ecut=   200.00 Ry     beta= 0.70
     Davidson diagonalization with overlap
     ethr =  1.25E-09,  avg # of iterations =  3.0

     negative rho (up, down):  1.504E-04 0.000E+00

     total cpu time spent up to now is       37.4 secs

     End of self-consistent calculation

          k = 0.0000 0.0000 0.0000 (382323 PWs)   bands (ev):

   -23.4445 -12.4851  -7.2628  -6.5415  -2.8035  -0.1830   0.4085   0.9368

     the Fermi energy is    -6.2293 ev

!    total energy              =     -34.60789613 Ry
     Harris-Foulkes estimate   =     -34.60789613 Ry
     estimated scf accuracy    <          5.6E-09 Ry

     The total energy is the sum of the following terms:

     one-electron contribution =     -60.80511350 Ry
     hartree contribution      =      32.09718688 Ry
     xc contribution           =      -8.59329512 Ry
     ewald contribution        =       2.68910273 Ry
     smearing contrib. (-TS)   =       0.00422288 Ry

     convergence has been achieved in  17 iterations

     Writing output data file pwscf.save
 
     init_run     :      2.84s CPU      3.02s WALL (       1 calls)
     electrons    :     30.14s CPU     33.81s WALL (       1 calls)

     Called by init_run:
     wfcinit      :      0.30s CPU      0.37s WALL (       1 calls)
     potinit      :      0.47s CPU      0.49s WALL (       1 calls)

     Called by electrons:
     c_bands      :     12.68s CPU     12.79s WALL (      17 calls)
     sum_band     :      7.38s CPU      8.05s WALL (      17 calls)
     v_of_rho     :      5.44s CPU      5.65s WALL (      18 calls)
     newd         :      2.48s CPU      3.06s WALL (      18 calls)
     mix_rho      :      2.28s CPU      4.21s WALL (      17 calls)

     Called by c_bands:
     init_us_2    :      0.17s CPU      0.19s WALL (      35 calls)
     cegterg      :     12.51s CPU     12.60s WALL (      17 calls)

     Called by sum_band:
     sum_band:bec :      0.00s CPU      0.00s WALL (      17 calls)
     addusdens    :      3.74s CPU      4.33s WALL (      17 calls)

     Called by *egterg:
     h_psi        :     11.95s CPU     12.03s WALL (      85 calls)
     s_psi        :      0.09s CPU      0.09s WALL (      85 calls)
     g_psi        :      0.03s CPU      0.03s WALL (      67 calls)
     cdiaghg      :      0.02s CPU      0.02s WALL (      84 calls)

     Called by h_psi:
     h_psi:pot    :     11.89s CPU     11.97s WALL (      85 calls)
     h_psi:calbec :      0.12s CPU      0.12s WALL (      85 calls)
     vloc_psi     :     11.69s CPU     11.77s WALL (      85 calls)
     add_vuspsi   :      0.08s CPU      0.08s WALL (      85 calls)

     General routines
     calbec       :      0.17s CPU      0.17s WALL (     102 calls)
     fft          :      5.65s CPU      5.98s WALL (     233 calls)
     fftw         :     12.06s CPU     12.13s WALL (     866 calls)
     davcio       :      0.24s CPU      2.01s WALL (     247 calls)
 
     Parallel routines
     fft_scatt_xy :      3.02s CPU      3.03s WALL (    1099 calls)
     fft_scatt_yz :      3.96s CPU      4.30s WALL (    1099 calls)
 
     PWSCF        :    34.02s CPU        38.70s WALL

 
   This run was terminated on:  23:31:16  12May2018            

=------------------------------------------------------------------------------=
   JOB DONE.
=------------------------------------------------------------------------------=
