
     Program PWSCF v.6.2 (svn rev. 14038) starts on 13May2018 at  0:11:19 

     This program is part of the open-source Quantum ESPRESSO suite
     for quantum simulation of materials; please cite
         "P. Giannozzi et al., J. Phys.:Condens. Matter 21 395502 (2009);
         "P. Giannozzi et al., J. Phys.:Condens. Matter 29 465901 (2017);
          URL http://www.quantum-espresso.org", 
     in publications or presentations arising from this work. More details at
     http://www.quantum-espresso.org/quote

     Parallel version (MPI), running on    28 processors

     MPI processes distributed on     1 nodes
     R & G space division:  proc/nbgrp/npool/nimage =      28
     Reading input from ../ecut200/24500.in
Warning: card &IONS ignored
Warning: card     POT_EXTRAPOLATION='SECOND-ORDER' ignored
Warning: card     WFC_EXTRAPOLATION='SECOND-ORDER' ignored
Warning: card     ION_TEMPERATURE = 'ANDERSEN' ignored
Warning: card / ignored

     Current dimensions of program PWSCF are:
     Max number of different atomic species (ntypx) = 10
     Max number of k-points (npk) =  40000
     Max angular momentum in pseudopotentials (lmaxx) =  3

     Subspace diagonalization in iterative solution of the eigenvalue problem:
     a serial algorithm will be used

 
     Parallelization info
     --------------------
     sticks:   dense  smooth     PW     G-vecs:    dense   smooth      PW
     Min         909     909    227               109161   109161   13653
     Max         911     911    228               109164   109164   13656
     Sum       25477   25477   6369              3056521  3056521  382323
 


     bravais-lattice index     =            1
     lattice parameter (alat)  =      20.0000  a.u.
     unit-cell volume          =    8000.0000 (a.u.)^3
     number of atoms/cell      =            3
     number of atomic types    =            2
     number of electrons       =         8.00
     number of Kohn-Sham states=            8
     kinetic-energy cutoff     =     200.0000  Ry
     charge density cutoff     =     800.0000  Ry
     convergence threshold     =      1.0E-08
     mixing beta               =       0.7000
     number of iterations used =            8  plain     mixing
     Exchange-correlation      = PBE ( 1  4  3  4 0 0)

     celldm(1)=  20.000000  celldm(2)=   0.000000  celldm(3)=   0.000000
     celldm(4)=   0.000000  celldm(5)=   0.000000  celldm(6)=   0.000000

     crystal axes: (cart. coord. in units of alat)
               a(1) = (   1.000000   0.000000   0.000000 )  
               a(2) = (   0.000000   1.000000   0.000000 )  
               a(3) = (   0.000000   0.000000   1.000000 )  

     reciprocal axes: (cart. coord. in units 2 pi/alat)
               b(1) = (  1.000000  0.000000  0.000000 )  
               b(2) = (  0.000000  1.000000  0.000000 )  
               b(3) = (  0.000000  0.000000  1.000000 )  


     PseudoPot. # 1 for H  read from file:
     ../pslibrary/pbe/PSEUDOPOTENTIALS/H.pbe-rrkjus_psl.1.0.0.UPF
     MD5 check sum: b2b1ff84b4ceabe23335d1bf25025923
     Pseudo is Ultrasoft, Zval =  1.0
     Generated using "atomic" code by A. Dal Corso v.6.2 svn rev. 14038
     Using radial grid of  929 points,  2 beta functions with: 
                l(1) =   0
                l(2) =   0
     Q(r) pseudized with 0 coefficients 


     PseudoPot. # 2 for O  read from file:
     ../pslibrary/pbe/PSEUDOPOTENTIALS/O.pbe-n-rrkjus_psl.1.0.0.UPF
     MD5 check sum: 61455b21a47f6823f888c3bfb9bd1235
     Pseudo is Ultrasoft + core correction, Zval =  6.0
     Generated using "atomic" code by A. Dal Corso v.6.2 svn rev. 14038
     Using radial grid of 1095 points,  4 beta functions with: 
                l(1) =   0
                l(2) =   0
                l(3) =   1
                l(4) =   1
     Q(r) pseudized with 0 coefficients 


     atomic species   valence    mass     pseudopotential
        H              1.00     1.01000     H ( 1.00)
        O              6.00    16.00000     O ( 1.00)

     No symmetry found



   Cartesian axes

     site n.     atom                  positions (alat units)
         1           O   tau(   1) = (  -0.0064498  -0.0002381   0.0072615  )
         2           H   tau(   2) = (   0.0334222  -0.0191243  -0.0796802  )
         3           H   tau(   3) = (   0.0687527   0.0228968   0.0530105  )

     number of k points=     1  Marzari-Vanderbilt smearing, width (Ry)=  0.0250
                       cart. coord. in units 2pi/alat
        k(    1) = (   0.0000000   0.0000000   0.0000000), wk =   2.0000000

     Dense  grid:  3056521 G-vectors     FFT dimensions: ( 192, 192, 192)

     Estimated max dynamical RAM per process >     123.03 MB

     Estimated total dynamical RAM >       3.36 GB

     Initial potential from superposition of free atoms
     Check: negative starting charge=   -0.000124

     starting charge    7.99998, renormalised to    8.00000

     negative rho (up, down):  1.240E-04 0.000E+00
     Starting wfc are    6 randomized atomic wfcs +    2 random wfc

     total cpu time spent up to now is        3.7 secs

     Self-consistent Calculation

     iteration #  1     ecut=   200.00 Ry     beta= 0.70
     Davidson diagonalization with overlap
     ethr =  1.00E-02,  avg # of iterations =  7.0

     negative rho (up, down):  1.729E-04 0.000E+00

     total cpu time spent up to now is        6.1 secs

     total energy              =     -34.58415765 Ry
     Harris-Foulkes estimate   =     -34.91589247 Ry
     estimated scf accuracy    <       0.45043323 Ry

     iteration #  2     ecut=   200.00 Ry     beta= 0.70
     Davidson diagonalization with overlap
     ethr =  5.63E-03,  avg # of iterations =  3.0

     negative rho (up, down):  8.451E-05 0.000E+00

     total cpu time spent up to now is        8.0 secs

     total energy              =     -34.65853862 Ry
     Harris-Foulkes estimate   =     -34.88741627 Ry
     estimated scf accuracy    <       0.47391197 Ry

     iteration #  3     ecut=   200.00 Ry     beta= 0.70
     Davidson diagonalization with overlap
     ethr =  5.63E-03,  avg # of iterations =  1.0

     negative rho (up, down):  3.633E-04 0.000E+00

     total cpu time spent up to now is        9.7 secs

     total energy              =     -34.69427871 Ry
     Harris-Foulkes estimate   =     -34.72189871 Ry
     estimated scf accuracy    <       0.04606261 Ry

     iteration #  4     ecut=   200.00 Ry     beta= 0.70
     Davidson diagonalization with overlap
     ethr =  5.76E-04,  avg # of iterations =  5.0

     negative rho (up, down):  4.739E-06 0.000E+00

     total cpu time spent up to now is       12.0 secs

     total energy              =     -34.77428168 Ry
     Harris-Foulkes estimate   =     -34.81274445 Ry
     estimated scf accuracy    <       0.12880753 Ry

     iteration #  5     ecut=   200.00 Ry     beta= 0.70
     Davidson diagonalization with overlap
     ethr =  5.76E-04,  avg # of iterations =  1.0

     negative rho (up, down):  5.203E-06 0.000E+00

     total cpu time spent up to now is       13.7 secs

     total energy              =     -34.76690633 Ry
     Harris-Foulkes estimate   =     -34.77769962 Ry
     estimated scf accuracy    <       0.05254780 Ry

     iteration #  6     ecut=   200.00 Ry     beta= 0.70
     Davidson diagonalization with overlap
     ethr =  5.76E-04,  avg # of iterations =  3.0

     negative rho (up, down):  5.296E-06 0.000E+00

     total cpu time spent up to now is       15.6 secs

     total energy              =     -34.77701127 Ry
     Harris-Foulkes estimate   =     -34.77701986 Ry
     estimated scf accuracy    <       0.00385776 Ry

     iteration #  7     ecut=   200.00 Ry     beta= 0.70
     Davidson diagonalization with overlap
     ethr =  4.82E-05,  avg # of iterations =  2.0

     negative rho (up, down):  4.993E-06 0.000E+00

     total cpu time spent up to now is       17.4 secs

     total energy              =     -34.77781427 Ry
     Harris-Foulkes estimate   =     -34.77718579 Ry
     estimated scf accuracy    <       0.00386309 Ry

     iteration #  8     ecut=   200.00 Ry     beta= 0.70
     Davidson diagonalization with overlap
     ethr =  4.82E-05,  avg # of iterations =  1.0

     negative rho (up, down):  8.140E-06 0.000E+00

     total cpu time spent up to now is       19.3 secs

     total energy              =     -34.77517932 Ry
     Harris-Foulkes estimate   =     -34.77786156 Ry
     estimated scf accuracy    <       0.00528887 Ry

     iteration #  9     ecut=   200.00 Ry     beta= 0.70
     Davidson diagonalization with overlap
     ethr =  4.82E-05,  avg # of iterations =  3.0

     negative rho (up, down):  9.340E-06 0.000E+00

     total cpu time spent up to now is       21.2 secs

     total energy              =     -34.77598630 Ry
     Harris-Foulkes estimate   =     -34.77600798 Ry
     estimated scf accuracy    <       0.00035489 Ry

     iteration # 10     ecut=   200.00 Ry     beta= 0.70
     Davidson diagonalization with overlap
     ethr =  4.44E-06,  avg # of iterations =  6.0

     negative rho (up, down):  4.300E-05 0.000E+00

     total cpu time spent up to now is       23.7 secs

     total energy              =     -34.77535740 Ry
     Harris-Foulkes estimate   =     -34.77245099 Ry
     estimated scf accuracy    <       0.00083475 Ry

     iteration # 11     ecut=   200.00 Ry     beta= 0.70
     Davidson diagonalization with overlap
     ethr =  4.44E-06,  avg # of iterations =  5.0

     negative rho (up, down):  4.107E-05 0.000E+00

     total cpu time spent up to now is       26.5 secs

     total energy              =     -34.77587672 Ry
     Harris-Foulkes estimate   =     -34.77843454 Ry
     estimated scf accuracy    <       0.02337464 Ry

     iteration # 12     ecut=   200.00 Ry     beta= 0.70
     Davidson diagonalization with overlap
     ethr =  4.44E-06,  avg # of iterations =  3.0

     negative rho (up, down):  8.391E-05 0.000E+00

     total cpu time spent up to now is       28.6 secs

     total energy              =     -34.77498254 Ry
     Harris-Foulkes estimate   =     -34.77608508 Ry
     estimated scf accuracy    <       0.01442311 Ry

     iteration # 13     ecut=   200.00 Ry     beta= 0.70
     Davidson diagonalization with overlap
     ethr =  4.44E-06,  avg # of iterations =  3.0

     negative rho (up, down):  9.679E-05 0.000E+00

     total cpu time spent up to now is       30.5 secs

     total energy              =     -34.77358114 Ry
     Harris-Foulkes estimate   =     -34.77504326 Ry
     estimated scf accuracy    <       0.01165970 Ry

     iteration # 14     ecut=   200.00 Ry     beta= 0.70
     Davidson diagonalization with overlap
     c_bands:  1 eigenvalues not converged
     ethr =  4.44E-06,  avg # of iterations = 20.0

     negative rho (up, down):  2.450E-04 0.000E+00

     total cpu time spent up to now is       33.3 secs

     total energy              =     -34.77214609 Ry
     Harris-Foulkes estimate   =     -34.77394765 Ry
     estimated scf accuracy    <       0.00592218 Ry

     iteration # 15     ecut=   200.00 Ry     beta= 0.70
     Davidson diagonalization with overlap
     ethr =  4.44E-06,  avg # of iterations =  4.0

     negative rho (up, down):  1.234E-04 0.000E+00

     total cpu time spent up to now is       35.6 secs

     total energy              =     -34.77599996 Ry
     Harris-Foulkes estimate   =     -34.77758881 Ry
     estimated scf accuracy    <       0.00379450 Ry

     iteration # 16     ecut=   200.00 Ry     beta= 0.70
     Davidson diagonalization with overlap
     ethr =  4.44E-06,  avg # of iterations =  4.0

     negative rho (up, down):  1.476E-04 0.000E+00

     total cpu time spent up to now is       38.3 secs

     total energy              =     -34.77034450 Ry
     Harris-Foulkes estimate   =     -34.77564448 Ry
     estimated scf accuracy    <       0.01276096 Ry

     iteration # 17     ecut=   200.00 Ry     beta= 0.70
     Davidson diagonalization with overlap
     ethr =  4.44E-06,  avg # of iterations =  4.0

     negative rho (up, down):  1.665E-04 0.000E+00

     total cpu time spent up to now is       40.7 secs

     total energy              =     -34.77638761 Ry
     Harris-Foulkes estimate   =     -34.77638147 Ry
     estimated scf accuracy    <       0.00017424 Ry

     iteration # 18     ecut=   200.00 Ry     beta= 0.70
     Davidson diagonalization with overlap
     ethr =  2.18E-06,  avg # of iterations =  1.0

     negative rho (up, down):  1.693E-04 0.000E+00

     total cpu time spent up to now is       42.6 secs

     total energy              =     -34.77635630 Ry
     Harris-Foulkes estimate   =     -34.77639180 Ry
     estimated scf accuracy    <       0.00019533 Ry

     iteration # 19     ecut=   200.00 Ry     beta= 0.70
     Davidson diagonalization with overlap
     ethr =  2.18E-06,  avg # of iterations =  1.0

     negative rho (up, down):  1.709E-04 0.000E+00

     total cpu time spent up to now is       45.1 secs

     total energy              =     -34.77632844 Ry
     Harris-Foulkes estimate   =     -34.77635811 Ry
     estimated scf accuracy    <       0.00012452 Ry

     iteration # 20     ecut=   200.00 Ry     beta= 0.70
     Davidson diagonalization with overlap
     ethr =  1.56E-06,  avg # of iterations =  1.0

     negative rho (up, down):  1.722E-04 0.000E+00

     total cpu time spent up to now is       47.7 secs

     total energy              =     -34.77632233 Ry
     Harris-Foulkes estimate   =     -34.77633365 Ry
     estimated scf accuracy    <       0.00005444 Ry

     iteration # 21     ecut=   200.00 Ry     beta= 0.70
     Davidson diagonalization with overlap
     ethr =  6.80E-07,  avg # of iterations =  1.0

     negative rho (up, down):  1.714E-04 0.000E+00

     total cpu time spent up to now is       50.0 secs

     total energy              =     -34.77631446 Ry
     Harris-Foulkes estimate   =     -34.77632427 Ry
     estimated scf accuracy    <       0.00003159 Ry

     iteration # 22     ecut=   200.00 Ry     beta= 0.70
     Davidson diagonalization with overlap
     ethr =  3.95E-07,  avg # of iterations =  2.0

     negative rho (up, down):  1.723E-04 0.000E+00

     total cpu time spent up to now is       52.6 secs

     total energy              =     -34.77631453 Ry
     Harris-Foulkes estimate   =     -34.77631840 Ry
     estimated scf accuracy    <       0.00000650 Ry

     iteration # 23     ecut=   200.00 Ry     beta= 0.70
     Davidson diagonalization with overlap
     ethr =  8.13E-08,  avg # of iterations =  4.0

     negative rho (up, down):  1.718E-04 0.000E+00

     total cpu time spent up to now is       55.5 secs

     total energy              =     -34.77632528 Ry
     Harris-Foulkes estimate   =     -34.77633073 Ry
     estimated scf accuracy    <       0.00001785 Ry

     iteration # 24     ecut=   200.00 Ry     beta= 0.70
     Davidson diagonalization with overlap
     ethr =  8.13E-08,  avg # of iterations =  1.0

     negative rho (up, down):  1.709E-04 0.000E+00

     total cpu time spent up to now is       58.0 secs

     total energy              =     -34.77632345 Ry
     Harris-Foulkes estimate   =     -34.77632576 Ry
     estimated scf accuracy    <       0.00000691 Ry

     iteration # 25     ecut=   200.00 Ry     beta= 0.70
     Davidson diagonalization with overlap
     ethr =  8.13E-08,  avg # of iterations =  3.0

     negative rho (up, down):  1.702E-04 0.000E+00

     total cpu time spent up to now is       60.7 secs

     total energy              =     -34.77632587 Ry
     Harris-Foulkes estimate   =     -34.77632576 Ry
     estimated scf accuracy    <       0.00000017 Ry

     iteration # 26     ecut=   200.00 Ry     beta= 0.70
     Davidson diagonalization with overlap
     ethr =  2.08E-09,  avg # of iterations =  4.0

     negative rho (up, down):  1.710E-04 0.000E+00

     total cpu time spent up to now is       63.7 secs

     total energy              =     -34.77632550 Ry
     Harris-Foulkes estimate   =     -34.77632609 Ry
     estimated scf accuracy    <       0.00000119 Ry

     iteration # 27     ecut=   200.00 Ry     beta= 0.70
     Davidson diagonalization with overlap
     ethr =  2.08E-09,  avg # of iterations =  3.0

     negative rho (up, down):  1.711E-04 0.000E+00

     total cpu time spent up to now is       66.7 secs

     total energy              =     -34.77632575 Ry
     Harris-Foulkes estimate   =     -34.77632575 Ry
     estimated scf accuracy    <       0.00000002 Ry

     iteration # 28     ecut=   200.00 Ry     beta= 0.70
     Davidson diagonalization with overlap
     ethr =  2.38E-10,  avg # of iterations =  1.0

     negative rho (up, down):  1.710E-04 0.000E+00

     total cpu time spent up to now is       68.7 secs

     End of self-consistent calculation

          k = 0.0000 0.0000 0.0000 (382323 PWs)   bands (ev):

   -25.0214 -12.4936  -9.4122  -7.0959  -1.0536   0.2804   0.6181   0.9690

     the Fermi energy is    -5.1884 ev

!    total energy              =     -34.77632574 Ry
     Harris-Foulkes estimate   =     -34.77632575 Ry
     estimated scf accuracy    <          4.8E-09 Ry

     The total energy is the sum of the following terms:

     one-electron contribution =     -63.75757869 Ry
     hartree contribution      =      33.39836966 Ry
     xc contribution           =      -8.80738384 Ry
     ewald contribution        =       4.39026712 Ry
     smearing contrib. (-TS)   =       0.00000000 Ry

     convergence has been achieved in  28 iterations

     Writing output data file pwscf.save
 
     init_run     :      2.81s CPU      2.99s WALL (       1 calls)
     electrons    :     57.92s CPU     65.30s WALL (       1 calls)

     Called by init_run:
     wfcinit      :      0.32s CPU      0.36s WALL (       1 calls)
     potinit      :      0.46s CPU      0.49s WALL (       1 calls)

     Called by electrons:
     c_bands      :     25.88s CPU     26.81s WALL (      28 calls)
     sum_band     :     13.05s CPU     14.20s WALL (      28 calls)
     v_of_rho     :      9.19s CPU      9.81s WALL (      29 calls)
     newd         :      4.24s CPU      5.31s WALL (      29 calls)
     mix_rho      :      5.31s CPU      8.69s WALL (      28 calls)

     Called by c_bands:
     init_us_2    :      0.28s CPU      0.29s WALL (      57 calls)
     cegterg      :     25.56s CPU     26.43s WALL (      28 calls)

     Called by sum_band:
     sum_band:bec :      0.00s CPU      0.00s WALL (      28 calls)
     addusdens    :      6.40s CPU      7.37s WALL (      28 calls)

     Called by *egterg:
     h_psi        :     24.20s CPU     25.00s WALL (     126 calls)
     s_psi        :      0.14s CPU      0.14s WALL (     126 calls)
     g_psi        :      0.05s CPU      0.05s WALL (      97 calls)
     cdiaghg      :      0.07s CPU      0.08s WALL (     125 calls)

     Called by h_psi:
     h_psi:pot    :     24.08s CPU     24.88s WALL (     126 calls)
     h_psi:calbec :      0.31s CPU      0.34s WALL (     126 calls)
     vloc_psi     :     23.65s CPU     24.42s WALL (     126 calls)
     add_vuspsi   :      0.13s CPU      0.13s WALL (     126 calls)

     General routines
     calbec       :      0.44s CPU      0.47s WALL (     154 calls)
     fft          :      9.92s CPU     10.64s WALL (     376 calls)
     fftw         :     24.56s CPU     25.26s WALL (    1546 calls)
     davcio       :      0.49s CPU      3.54s WALL (     467 calls)
 
     Parallel routines
     fft_scatt_xy :      5.20s CPU      5.27s WALL (    1922 calls)
     fft_scatt_yz :     10.91s CPU     11.93s WALL (    1922 calls)
 
     PWSCF        :  1m 1.48s CPU     1m10.23s WALL

 
   This run was terminated on:   0:12:29  13May2018            

=------------------------------------------------------------------------------=
   JOB DONE.
=------------------------------------------------------------------------------=
