
     Program PWSCF v.6.2 (svn rev. 14038) starts on 12May2018 at 23:44:49 

     This program is part of the open-source Quantum ESPRESSO suite
     for quantum simulation of materials; please cite
         "P. Giannozzi et al., J. Phys.:Condens. Matter 21 395502 (2009);
         "P. Giannozzi et al., J. Phys.:Condens. Matter 29 465901 (2017);
          URL http://www.quantum-espresso.org", 
     in publications or presentations arising from this work. More details at
     http://www.quantum-espresso.org/quote

     Parallel version (MPI), running on    28 processors

     MPI processes distributed on     1 nodes
     R & G space division:  proc/nbgrp/npool/nimage =      28
     Reading input from ../ecut200/9500.in
Warning: card &IONS ignored
Warning: card     POT_EXTRAPOLATION='SECOND-ORDER' ignored
Warning: card     WFC_EXTRAPOLATION='SECOND-ORDER' ignored
Warning: card     ION_TEMPERATURE = 'ANDERSEN' ignored
Warning: card / ignored

     Current dimensions of program PWSCF are:
     Max number of different atomic species (ntypx) = 10
     Max number of k-points (npk) =  40000
     Max angular momentum in pseudopotentials (lmaxx) =  3

     Subspace diagonalization in iterative solution of the eigenvalue problem:
     a serial algorithm will be used

 
     Parallelization info
     --------------------
     sticks:   dense  smooth     PW     G-vecs:    dense   smooth      PW
     Min         909     909    227               109161   109161   13653
     Max         911     911    228               109164   109164   13656
     Sum       25477   25477   6369              3056521  3056521  382323
 


     bravais-lattice index     =            1
     lattice parameter (alat)  =      20.0000  a.u.
     unit-cell volume          =    8000.0000 (a.u.)^3
     number of atoms/cell      =            3
     number of atomic types    =            2
     number of electrons       =         8.00
     number of Kohn-Sham states=            8
     kinetic-energy cutoff     =     200.0000  Ry
     charge density cutoff     =     800.0000  Ry
     convergence threshold     =      1.0E-08
     mixing beta               =       0.7000
     number of iterations used =            8  plain     mixing
     Exchange-correlation      = PBE ( 1  4  3  4 0 0)

     celldm(1)=  20.000000  celldm(2)=   0.000000  celldm(3)=   0.000000
     celldm(4)=   0.000000  celldm(5)=   0.000000  celldm(6)=   0.000000

     crystal axes: (cart. coord. in units of alat)
               a(1) = (   1.000000   0.000000   0.000000 )  
               a(2) = (   0.000000   1.000000   0.000000 )  
               a(3) = (   0.000000   0.000000   1.000000 )  

     reciprocal axes: (cart. coord. in units 2 pi/alat)
               b(1) = (  1.000000  0.000000  0.000000 )  
               b(2) = (  0.000000  1.000000  0.000000 )  
               b(3) = (  0.000000  0.000000  1.000000 )  


     PseudoPot. # 1 for H  read from file:
     ../pslibrary/pbe/PSEUDOPOTENTIALS/H.pbe-rrkjus_psl.1.0.0.UPF
     MD5 check sum: b2b1ff84b4ceabe23335d1bf25025923
     Pseudo is Ultrasoft, Zval =  1.0
     Generated using "atomic" code by A. Dal Corso v.6.2 svn rev. 14038
     Using radial grid of  929 points,  2 beta functions with: 
                l(1) =   0
                l(2) =   0
     Q(r) pseudized with 0 coefficients 


     PseudoPot. # 2 for O  read from file:
     ../pslibrary/pbe/PSEUDOPOTENTIALS/O.pbe-n-rrkjus_psl.1.0.0.UPF
     MD5 check sum: 61455b21a47f6823f888c3bfb9bd1235
     Pseudo is Ultrasoft + core correction, Zval =  6.0
     Generated using "atomic" code by A. Dal Corso v.6.2 svn rev. 14038
     Using radial grid of 1095 points,  4 beta functions with: 
                l(1) =   0
                l(2) =   0
                l(3) =   1
                l(4) =   1
     Q(r) pseudized with 0 coefficients 


     atomic species   valence    mass     pseudopotential
        H              1.00     1.01000     H ( 1.00)
        O              6.00    16.00000     O ( 1.00)

     No symmetry found



   Cartesian axes

     site n.     atom                  positions (alat units)
         1           O   tau(   1) = (   0.0015214   0.0051135   0.0075320  )
         2           H   tau(   2) = (  -0.0350339   0.0044770  -0.0958283  )
         3           H   tau(   3) = (   0.0109318  -0.0854833   0.0648736  )

     number of k points=     1  Marzari-Vanderbilt smearing, width (Ry)=  0.0250
                       cart. coord. in units 2pi/alat
        k(    1) = (   0.0000000   0.0000000   0.0000000), wk =   2.0000000

     Dense  grid:  3056521 G-vectors     FFT dimensions: ( 192, 192, 192)

     Estimated max dynamical RAM per process >     123.03 MB

     Estimated total dynamical RAM >       3.36 GB

     Initial potential from superposition of free atoms
     Check: negative starting charge=   -0.000117

     starting charge    7.99998, renormalised to    8.00000

     negative rho (up, down):  1.170E-04 0.000E+00
     Starting wfc are    6 randomized atomic wfcs +    2 random wfc

     total cpu time spent up to now is        3.8 secs

     Self-consistent Calculation

     iteration #  1     ecut=   200.00 Ry     beta= 0.70
     Davidson diagonalization with overlap
     ethr =  1.00E-02,  avg # of iterations =  6.0

     negative rho (up, down):  1.608E-04 0.000E+00

     total cpu time spent up to now is        6.1 secs

     total energy              =     -34.48761395 Ry
     Harris-Foulkes estimate   =     -34.80795402 Ry
     estimated scf accuracy    <       0.43296541 Ry

     iteration #  2     ecut=   200.00 Ry     beta= 0.70
     Davidson diagonalization with overlap
     ethr =  5.41E-03,  avg # of iterations =  3.0

     negative rho (up, down):  6.514E-05 0.000E+00

     total cpu time spent up to now is        8.1 secs

     total energy              =     -34.50414009 Ry
     Harris-Foulkes estimate   =     -34.85508214 Ry
     estimated scf accuracy    <       0.82717219 Ry

     iteration #  3     ecut=   200.00 Ry     beta= 0.70
     Davidson diagonalization with overlap
     ethr =  5.41E-03,  avg # of iterations =  1.0

     negative rho (up, down):  1.928E-06 0.000E+00

     total cpu time spent up to now is        9.8 secs

     total energy              =     -34.58773736 Ry
     Harris-Foulkes estimate   =     -34.61146387 Ry
     estimated scf accuracy    <       0.06124345 Ry

     iteration #  4     ecut=   200.00 Ry     beta= 0.70
     Davidson diagonalization with overlap
     ethr =  7.66E-04,  avg # of iterations =  3.0

     negative rho (up, down):  3.762E-06 0.000E+00

     total cpu time spent up to now is       11.8 secs

     total energy              =     -34.68548056 Ry
     Harris-Foulkes estimate   =     -34.70885444 Ry
     estimated scf accuracy    <       0.09339410 Ry

     iteration #  5     ecut=   200.00 Ry     beta= 0.70
     Davidson diagonalization with overlap
     ethr =  7.66E-04,  avg # of iterations =  1.0

     negative rho (up, down):  9.623E-06 0.000E+00

     total cpu time spent up to now is       13.5 secs

     total energy              =     -34.67802971 Ry
     Harris-Foulkes estimate   =     -34.68800901 Ry
     estimated scf accuracy    <       0.03746677 Ry

     iteration #  6     ecut=   200.00 Ry     beta= 0.70
     Davidson diagonalization with overlap
     ethr =  4.68E-04,  avg # of iterations =  2.0

     negative rho (up, down):  1.529E-05 0.000E+00

     total cpu time spent up to now is       15.3 secs

     total energy              =     -34.68445551 Ry
     Harris-Foulkes estimate   =     -34.68458874 Ry
     estimated scf accuracy    <       0.00144349 Ry

     iteration #  7     ecut=   200.00 Ry     beta= 0.70
     Davidson diagonalization with overlap
     ethr =  1.80E-05,  avg # of iterations =  9.0

     negative rho (up, down):  2.441E-05 0.000E+00

     total cpu time spent up to now is       17.8 secs

     total energy              =     -34.68478829 Ry
     Harris-Foulkes estimate   =     -34.68488799 Ry
     estimated scf accuracy    <       0.00072246 Ry

     iteration #  8     ecut=   200.00 Ry     beta= 0.70
     Davidson diagonalization with overlap
     ethr =  9.03E-06,  avg # of iterations = 14.0

     negative rho (up, down):  9.159E-05 0.000E+00

     total cpu time spent up to now is       20.2 secs

     total energy              =     -34.68472223 Ry
     Harris-Foulkes estimate   =     -34.68480702 Ry
     estimated scf accuracy    <       0.00033876 Ry

     iteration #  9     ecut=   200.00 Ry     beta= 0.70
     Davidson diagonalization with overlap
     ethr =  4.23E-06,  avg # of iterations =  1.0

     negative rho (up, down):  1.287E-04 0.000E+00

     total cpu time spent up to now is       22.0 secs

     total energy              =     -34.68471202 Ry
     Harris-Foulkes estimate   =     -34.68473218 Ry
     estimated scf accuracy    <       0.00009136 Ry

     iteration # 10     ecut=   200.00 Ry     beta= 0.70
     Davidson diagonalization with overlap
     ethr =  1.14E-06,  avg # of iterations =  3.0

     negative rho (up, down):  1.336E-04 0.000E+00

     total cpu time spent up to now is       24.1 secs

     total energy              =     -34.68473773 Ry
     Harris-Foulkes estimate   =     -34.68473786 Ry
     estimated scf accuracy    <       0.00000896 Ry

     iteration # 11     ecut=   200.00 Ry     beta= 0.70
     Davidson diagonalization with overlap
     ethr =  1.12E-07,  avg # of iterations =  3.0

     negative rho (up, down):  1.333E-04 0.000E+00

     total cpu time spent up to now is       26.0 secs

     total energy              =     -34.68473901 Ry
     Harris-Foulkes estimate   =     -34.68473902 Ry
     estimated scf accuracy    <       0.00000719 Ry

     iteration # 12     ecut=   200.00 Ry     beta= 0.70
     Davidson diagonalization with overlap
     ethr =  8.99E-08,  avg # of iterations =  1.0

     negative rho (up, down):  1.487E-04 0.000E+00

     total cpu time spent up to now is       27.9 secs

     total energy              =     -34.68473939 Ry
     Harris-Foulkes estimate   =     -34.68473903 Ry
     estimated scf accuracy    <       0.00000711 Ry

     iteration # 13     ecut=   200.00 Ry     beta= 0.70
     Davidson diagonalization with overlap
     ethr =  8.89E-08,  avg # of iterations =  1.0

     negative rho (up, down):  1.490E-04 0.000E+00

     total cpu time spent up to now is       29.8 secs

     total energy              =     -34.68473889 Ry
     Harris-Foulkes estimate   =     -34.68473959 Ry
     estimated scf accuracy    <       0.00000859 Ry

     iteration # 14     ecut=   200.00 Ry     beta= 0.70
     Davidson diagonalization with overlap
     ethr =  8.89E-08,  avg # of iterations =  1.0

     negative rho (up, down):  1.502E-04 0.000E+00

     total cpu time spent up to now is       31.6 secs

     total energy              =     -34.68473848 Ry
     Harris-Foulkes estimate   =     -34.68473900 Ry
     estimated scf accuracy    <       0.00000592 Ry

     iteration # 15     ecut=   200.00 Ry     beta= 0.70
     Davidson diagonalization with overlap
     ethr =  7.40E-08,  avg # of iterations =  1.0

     negative rho (up, down):  1.514E-04 0.000E+00

     total cpu time spent up to now is       33.4 secs

     total energy              =     -34.68473756 Ry
     Harris-Foulkes estimate   =     -34.68473861 Ry
     estimated scf accuracy    <       0.00000439 Ry

     iteration # 16     ecut=   200.00 Ry     beta= 0.70
     Davidson diagonalization with overlap
     ethr =  5.49E-08,  avg # of iterations =  1.0

     negative rho (up, down):  1.517E-04 0.000E+00

     total cpu time spent up to now is       35.3 secs

     total energy              =     -34.68473775 Ry
     Harris-Foulkes estimate   =     -34.68473782 Ry
     estimated scf accuracy    <       0.00000152 Ry

     iteration # 17     ecut=   200.00 Ry     beta= 0.70
     Davidson diagonalization with overlap
     ethr =  1.90E-08,  avg # of iterations =  3.0

     negative rho (up, down):  1.524E-04 0.000E+00

     total cpu time spent up to now is       37.2 secs

     total energy              =     -34.68473797 Ry
     Harris-Foulkes estimate   =     -34.68473798 Ry
     estimated scf accuracy    <       0.00000164 Ry

     iteration # 18     ecut=   200.00 Ry     beta= 0.70
     Davidson diagonalization with overlap
     ethr =  1.90E-08,  avg # of iterations =  1.0

     negative rho (up, down):  1.515E-04 0.000E+00

     total cpu time spent up to now is       39.1 secs

     total energy              =     -34.68473759 Ry
     Harris-Foulkes estimate   =     -34.68473798 Ry
     estimated scf accuracy    <       0.00000159 Ry

     iteration # 19     ecut=   200.00 Ry     beta= 0.70
     Davidson diagonalization with overlap
     ethr =  1.90E-08,  avg # of iterations =  2.0

     negative rho (up, down):  1.529E-04 0.000E+00

     total cpu time spent up to now is       41.0 secs

     total energy              =     -34.68473754 Ry
     Harris-Foulkes estimate   =     -34.68473773 Ry
     estimated scf accuracy    <       0.00000049 Ry

     iteration # 20     ecut=   200.00 Ry     beta= 0.70
     Davidson diagonalization with overlap
     ethr =  6.11E-09,  avg # of iterations =  3.0

     negative rho (up, down):  1.533E-04 0.000E+00

     total cpu time spent up to now is       42.9 secs

     total energy              =     -34.68473757 Ry
     Harris-Foulkes estimate   =     -34.68473762 Ry
     estimated scf accuracy    <       0.00000021 Ry

     iteration # 21     ecut=   200.00 Ry     beta= 0.70
     Davidson diagonalization with overlap
     ethr =  2.59E-09,  avg # of iterations =  1.0

     negative rho (up, down):  1.530E-04 0.000E+00

     total cpu time spent up to now is       44.7 secs

     total energy              =     -34.68473758 Ry
     Harris-Foulkes estimate   =     -34.68473759 Ry
     estimated scf accuracy    <       0.00000002 Ry

     iteration # 22     ecut=   200.00 Ry     beta= 0.70
     Davidson diagonalization with overlap
     ethr =  2.10E-10,  avg # of iterations =  4.0

     negative rho (up, down):  1.529E-04 0.000E+00

     total cpu time spent up to now is       46.8 secs

     total energy              =     -34.68473761 Ry
     Harris-Foulkes estimate   =     -34.68473762 Ry
     estimated scf accuracy    <       0.00000003 Ry

     iteration # 23     ecut=   200.00 Ry     beta= 0.70
     Davidson diagonalization with overlap
     ethr =  2.10E-10,  avg # of iterations =  1.0

     negative rho (up, down):  1.529E-04 0.000E+00

     total cpu time spent up to now is       48.4 secs

     End of self-consistent calculation

          k = 0.0000 0.0000 0.0000 (382323 PWs)   bands (ev):

   -23.3792 -12.0962  -8.1368  -6.6897  -1.8297   0.0344   0.1045   0.9544

     the Fermi energy is    -4.7888 ev

!    total energy              =     -34.68473761 Ry
     Harris-Foulkes estimate   =     -34.68473761 Ry
     estimated scf accuracy    <          3.3E-09 Ry

     The total energy is the sum of the following terms:

     one-electron contribution =     -60.57229248 Ry
     hartree contribution      =      31.92292403 Ry
     xc contribution           =      -8.56740567 Ry
     ewald contribution        =       2.53203650 Ry
     smearing contrib. (-TS)   =       0.00000000 Ry

     convergence has been achieved in  23 iterations

     Writing output data file pwscf.save
 
     init_run     :      2.89s CPU      3.06s WALL (       1 calls)
     electrons    :     39.86s CPU     44.85s WALL (       1 calls)

     Called by init_run:
     wfcinit      :      0.38s CPU      0.42s WALL (       1 calls)
     potinit      :      0.47s CPU      0.49s WALL (       1 calls)

     Called by electrons:
     c_bands      :     16.00s CPU     16.13s WALL (      23 calls)
     sum_band     :     10.10s CPU     11.02s WALL (      23 calls)
     v_of_rho     :      7.07s CPU      7.36s WALL (      24 calls)
     newd         :      3.38s CPU      4.12s WALL (      24 calls)
     mix_rho      :      3.36s CPU      6.06s WALL (      23 calls)

     Called by c_bands:
     init_us_2    :      0.24s CPU      0.25s WALL (      47 calls)
     cegterg      :     15.76s CPU     15.87s WALL (      23 calls)

     Called by sum_band:
     sum_band:bec :      0.00s CPU      0.00s WALL (      23 calls)
     addusdens    :      5.13s CPU      5.94s WALL (      23 calls)

     Called by *egterg:
     h_psi        :     15.17s CPU     15.28s WALL (      90 calls)
     s_psi        :      0.10s CPU      0.10s WALL (      90 calls)
     g_psi        :      0.03s CPU      0.03s WALL (      66 calls)
     cdiaghg      :      0.02s CPU      0.02s WALL (      89 calls)

     Called by h_psi:
     h_psi:pot    :     15.09s CPU     15.20s WALL (      90 calls)
     h_psi:calbec :      0.14s CPU      0.14s WALL (      90 calls)
     vloc_psi     :     14.86s CPU     14.97s WALL (      90 calls)
     add_vuspsi   :      0.09s CPU      0.09s WALL (      90 calls)

     General routines
     calbec       :      0.19s CPU      0.19s WALL (     113 calls)
     fft          :      7.44s CPU      7.90s WALL (     311 calls)
     fftw         :     15.60s CPU     15.70s WALL (    1104 calls)
     davcio       :      0.39s CPU      2.84s WALL (     367 calls)
 
     Parallel routines
     fft_scatt_xy :      3.94s CPU      3.96s WALL (    1415 calls)
     fft_scatt_yz :      5.39s CPU      5.86s WALL (    1415 calls)
 
     PWSCF        :    43.53s CPU        49.59s WALL

 
   This run was terminated on:  23:45:38  12May2018            

=------------------------------------------------------------------------------=
   JOB DONE.
=------------------------------------------------------------------------------=
