
     Program PWSCF v.6.2 (svn rev. 14038) starts on 18May2018 at 14:16:32 

     This program is part of the open-source Quantum ESPRESSO suite
     for quantum simulation of materials; please cite
         "P. Giannozzi et al., J. Phys.:Condens. Matter 21 395502 (2009);
         "P. Giannozzi et al., J. Phys.:Condens. Matter 29 465901 (2017);
          URL http://www.quantum-espresso.org", 
     in publications or presentations arising from this work. More details at
     http://www.quantum-espresso.org/quote

     Parallel version (MPI), running on    28 processors

     MPI processes distributed on     1 nodes
     R & G space division:  proc/nbgrp/npool/nimage =      28
     Reading input from ../ecut2-90/12500.in
Warning: card &IONS ignored
Warning: card     POT_EXTRAPOLATION='SECOND-ORDER' ignored
Warning: card     WFC_EXTRAPOLATION='SECOND-ORDER' ignored
Warning: card     ION_TEMPERATURE = 'ANDERSEN' ignored
Warning: card / ignored

     Current dimensions of program PWSCF are:
     Max number of different atomic species (ntypx) = 10
     Max number of k-points (npk) =  40000
     Max angular momentum in pseudopotentials (lmaxx) =  3
               file H.pbe-kjpaw_psl.1.0.0.UPF: wavefunction(s)  1S renormalized
               file O.pbe-n-kjpaw_psl.1.0.0.UPF: wavefunction(s)  2S 2P renormalized

     Subspace diagonalization in iterative solution of the eigenvalue problem:
     a serial algorithm will be used

 
     Parallelization info
     --------------------
     sticks:   dense  smooth     PW     G-vecs:    dense   smooth      PW
     Min         408     408    102                32936    32936    4116
     Max         409     409    103                32943    32943    4121
     Sum       11449   11449   2869               922329   922329  115313
 


     bravais-lattice index     =            1
     lattice parameter (alat)  =      20.0000  a.u.
     unit-cell volume          =    8000.0000 (a.u.)^3
     number of atoms/cell      =            3
     number of atomic types    =            2
     number of electrons       =         8.00
     number of Kohn-Sham states=            8
     kinetic-energy cutoff     =      90.0000  Ry
     charge density cutoff     =     360.0000  Ry
     convergence threshold     =      1.0E-08
     mixing beta               =       0.7000
     number of iterations used =            8  plain     mixing
     Exchange-correlation      = SLA PW PBX PBC ( 1  4  3  4 0 0)

     celldm(1)=  20.000000  celldm(2)=   0.000000  celldm(3)=   0.000000
     celldm(4)=   0.000000  celldm(5)=   0.000000  celldm(6)=   0.000000

     crystal axes: (cart. coord. in units of alat)
               a(1) = (   1.000000   0.000000   0.000000 )  
               a(2) = (   0.000000   1.000000   0.000000 )  
               a(3) = (   0.000000   0.000000   1.000000 )  

     reciprocal axes: (cart. coord. in units 2 pi/alat)
               b(1) = (  1.000000  0.000000  0.000000 )  
               b(2) = (  0.000000  1.000000  0.000000 )  
               b(3) = (  0.000000  0.000000  1.000000 )  


     PseudoPot. # 1 for H  read from file:
     ../pslibrary/pbe/PSEUDOPOTENTIALS/H.pbe-kjpaw_psl.1.0.0.UPF
     MD5 check sum: e77ef4e89cfa2d6a63e4c80bb1a147aa
     Pseudo is Projector augmented-wave, Zval =  1.0
     Generated using "atomic" code by A. Dal Corso v.6.2 svn rev. 14038
     Shape of augmentation charge: PSQ
     Using radial grid of  929 points,  2 beta functions with: 
                l(1) =   0
                l(2) =   0
     Q(r) pseudized with 0 coefficients 


     PseudoPot. # 2 for O  read from file:
     ../pslibrary/pbe/PSEUDOPOTENTIALS/O.pbe-n-kjpaw_psl.1.0.0.UPF
     MD5 check sum: bb09017f9a02654af35f7312a94eda3e
     Pseudo is Projector augmented-wave + core cor, Zval =  6.0
     Generated using "atomic" code by A. Dal Corso v.6.2 svn rev. 14038
     Shape of augmentation charge: PSQ
     Using radial grid of 1095 points,  4 beta functions with: 
                l(1) =   0
                l(2) =   0
                l(3) =   1
                l(4) =   1
     Q(r) pseudized with 0 coefficients 


     atomic species   valence    mass     pseudopotential
        H              1.00     1.01000     H ( 1.00)
        O              6.00    16.00000     O ( 1.00)

     No symmetry found



   Cartesian axes

     site n.     atom                  positions (alat units)
         1           O   tau(   1) = (  -0.0053013  -0.0008756   0.0138451  )
         2           H   tau(   2) = (   0.0274939   0.0911008  -0.1218591  )
         3           H   tau(   3) = (   0.0564873  -0.0772293  -0.0091041  )

     number of k points=     1  Marzari-Vanderbilt smearing, width (Ry)=  0.0250
                       cart. coord. in units 2pi/alat
        k(    1) = (   0.0000000   0.0000000   0.0000000), wk =   2.0000000

     Dense  grid:   922329 G-vectors     FFT dimensions: ( 125, 125, 125)

     Estimated max dynamical RAM per process >      38.67 MB

     Estimated total dynamical RAM >       1.06 GB

     Initial potential from superposition of free atoms
     Check: negative starting charge=   -0.001557

     starting charge    7.99998, renormalised to    8.00000

     negative rho (up, down):  1.557E-03 0.000E+00
     Starting wfc are    6 randomized atomic wfcs +    2 random wfc
     Checking if some PAW data can be deallocated... 

     total cpu time spent up to now is        1.8 secs

     Self-consistent Calculation

     iteration #  1     ecut=    90.00 Ry     beta= 0.70
     Davidson diagonalization with overlap
     ethr =  1.00E-02,  avg # of iterations =  7.0

     negative rho (up, down):  2.301E-03 0.000E+00

     total cpu time spent up to now is        2.3 secs

     total energy              =     -43.36897518 Ry
     Harris-Foulkes estimate   =     -43.88901749 Ry
     estimated scf accuracy    <       0.68405255 Ry

     iteration #  2     ecut=    90.00 Ry     beta= 0.70
     Davidson diagonalization with overlap
     ethr =  8.55E-03,  avg # of iterations =  4.0

     negative rho (up, down):  1.504E-03 0.000E+00

     total cpu time spent up to now is        2.6 secs

     total energy              =     -43.29208089 Ry
     Harris-Foulkes estimate   =     -44.46541686 Ry
     estimated scf accuracy    <       3.71782623 Ry

     iteration #  3     ecut=    90.00 Ry     beta= 0.70
     Davidson diagonalization with overlap
     ethr =  8.55E-03,  avg # of iterations =  4.0

     negative rho (up, down):  1.360E-03 0.000E+00

     total cpu time spent up to now is        3.0 secs

     total energy              =     -43.60866324 Ry
     Harris-Foulkes estimate   =     -43.62676783 Ry
     estimated scf accuracy    <       0.13680244 Ry

     iteration #  4     ecut=    90.00 Ry     beta= 0.70
     Davidson diagonalization with overlap
     ethr =  1.71E-03,  avg # of iterations =  4.0

     negative rho (up, down):  1.588E-03 0.000E+00

     total cpu time spent up to now is        3.3 secs

     total energy              =     -43.74915595 Ry
     Harris-Foulkes estimate   =     -43.75308813 Ry
     estimated scf accuracy    <       0.02491259 Ry

     iteration #  5     ecut=    90.00 Ry     beta= 0.70
     Davidson diagonalization with overlap
     ethr =  3.11E-04,  avg # of iterations =  1.0

     negative rho (up, down):  1.640E-03 0.000E+00

     total cpu time spent up to now is        3.6 secs

     total energy              =     -43.74821043 Ry
     Harris-Foulkes estimate   =     -43.75026106 Ry
     estimated scf accuracy    <       0.01730452 Ry

     iteration #  6     ecut=    90.00 Ry     beta= 0.70
     Davidson diagonalization with overlap
     ethr =  2.16E-04,  avg # of iterations =  1.0

     negative rho (up, down):  1.701E-03 0.000E+00

     total cpu time spent up to now is        4.0 secs

     total energy              =     -43.74717553 Ry
     Harris-Foulkes estimate   =     -43.74845021 Ry
     estimated scf accuracy    <       0.01078847 Ry

     iteration #  7     ecut=    90.00 Ry     beta= 0.70
     Davidson diagonalization with overlap
     ethr =  1.35E-04,  avg # of iterations =  1.0

     negative rho (up, down):  1.734E-03 0.000E+00

     total cpu time spent up to now is        4.3 secs

     total energy              =     -43.74732951 Ry
     Harris-Foulkes estimate   =     -43.74755498 Ry
     estimated scf accuracy    <       0.00525020 Ry

     iteration #  8     ecut=    90.00 Ry     beta= 0.70
     Davidson diagonalization with overlap
     ethr =  6.56E-05,  avg # of iterations =  3.0

     negative rho (up, down):  1.764E-03 0.000E+00

     total cpu time spent up to now is        4.7 secs

     total energy              =     -43.74738558 Ry
     Harris-Foulkes estimate   =     -43.74745932 Ry
     estimated scf accuracy    <       0.00368742 Ry

     iteration #  9     ecut=    90.00 Ry     beta= 0.70
     Davidson diagonalization with overlap
     ethr =  4.61E-05,  avg # of iterations =  1.0

     negative rho (up, down):  1.830E-03 0.000E+00

     total cpu time spent up to now is        5.0 secs

     total energy              =     -43.74724533 Ry
     Harris-Foulkes estimate   =     -43.74744158 Ry
     estimated scf accuracy    <       0.00296951 Ry

     iteration # 10     ecut=    90.00 Ry     beta= 0.70
     Davidson diagonalization with overlap
     ethr =  3.71E-05,  avg # of iterations =  1.0

     negative rho (up, down):  1.900E-03 0.000E+00

     total cpu time spent up to now is        5.3 secs

     total energy              =     -43.74709704 Ry
     Harris-Foulkes estimate   =     -43.74729341 Ry
     estimated scf accuracy    <       0.00196796 Ry

     iteration # 11     ecut=    90.00 Ry     beta= 0.70
     Davidson diagonalization with overlap
     ethr =  2.46E-05,  avg # of iterations =  2.0

     negative rho (up, down):  1.925E-03 0.000E+00

     total cpu time spent up to now is        5.7 secs

     total energy              =     -43.74714082 Ry
     Harris-Foulkes estimate   =     -43.74719315 Ry
     estimated scf accuracy    <       0.00072974 Ry

     iteration # 12     ecut=    90.00 Ry     beta= 0.70
     Davidson diagonalization with overlap
     ethr =  9.12E-06,  avg # of iterations =  9.0

     negative rho (up, down):  2.077E-03 0.000E+00

     total cpu time spent up to now is        6.1 secs

     total energy              =     -43.74704030 Ry
     Harris-Foulkes estimate   =     -43.74715951 Ry
     estimated scf accuracy    <       0.00044471 Ry

     iteration # 13     ecut=    90.00 Ry     beta= 0.70
     Davidson diagonalization with overlap
     ethr =  5.56E-06,  avg # of iterations =  3.0

     negative rho (up, down):  2.083E-03 0.000E+00

     total cpu time spent up to now is        6.5 secs

     total energy              =     -43.74707797 Ry
     Harris-Foulkes estimate   =     -43.74708321 Ry
     estimated scf accuracy    <       0.00002034 Ry

     iteration # 14     ecut=    90.00 Ry     beta= 0.70
     Davidson diagonalization with overlap
     ethr =  2.54E-07,  avg # of iterations =  4.0

     negative rho (up, down):  2.083E-03 0.000E+00

     total cpu time spent up to now is        6.9 secs

     total energy              =     -43.74709626 Ry
     Harris-Foulkes estimate   =     -43.74709833 Ry
     estimated scf accuracy    <       0.00001059 Ry

     iteration # 15     ecut=    90.00 Ry     beta= 0.70
     Davidson diagonalization with overlap
     ethr =  1.32E-07,  avg # of iterations =  1.0

     negative rho (up, down):  2.082E-03 0.000E+00

     total cpu time spent up to now is        7.2 secs

     total energy              =     -43.74709431 Ry
     Harris-Foulkes estimate   =     -43.74709636 Ry
     estimated scf accuracy    <       0.00000584 Ry

     iteration # 16     ecut=    90.00 Ry     beta= 0.70
     Davidson diagonalization with overlap
     ethr =  7.30E-08,  avg # of iterations =  3.0

     negative rho (up, down):  2.082E-03 0.000E+00

     total cpu time spent up to now is        7.6 secs

     total energy              =     -43.74709527 Ry
     Harris-Foulkes estimate   =     -43.74709528 Ry
     estimated scf accuracy    <       0.00000019 Ry

     iteration # 17     ecut=    90.00 Ry     beta= 0.70
     Davidson diagonalization with overlap
     ethr =  2.32E-09,  avg # of iterations =  3.0

     negative rho (up, down):  2.081E-03 0.000E+00

     total cpu time spent up to now is        7.9 secs

     total energy              =     -43.74709539 Ry
     Harris-Foulkes estimate   =     -43.74709542 Ry
     estimated scf accuracy    <       0.00000013 Ry

     iteration # 18     ecut=    90.00 Ry     beta= 0.70
     Davidson diagonalization with overlap
     ethr =  1.67E-09,  avg # of iterations =  3.0

     negative rho (up, down):  2.081E-03 0.000E+00

     total cpu time spent up to now is        8.3 secs

     total energy              =     -43.74709542 Ry
     Harris-Foulkes estimate   =     -43.74709541 Ry
     estimated scf accuracy    <       0.00000004 Ry

     iteration # 19     ecut=    90.00 Ry     beta= 0.70
     Davidson diagonalization with overlap
     ethr =  5.31E-10,  avg # of iterations =  4.0

     negative rho (up, down):  2.081E-03 0.000E+00

     total cpu time spent up to now is        8.7 secs

     total energy              =     -43.74709542 Ry
     Harris-Foulkes estimate   =     -43.74709543 Ry
     estimated scf accuracy    <       0.00000008 Ry

     iteration # 20     ecut=    90.00 Ry     beta= 0.70
     Davidson diagonalization with overlap
     ethr =  5.31E-10,  avg # of iterations =  1.0

     negative rho (up, down):  2.081E-03 0.000E+00

     total cpu time spent up to now is        9.1 secs

     total energy              =     -43.74709542 Ry
     Harris-Foulkes estimate   =     -43.74709543 Ry
     estimated scf accuracy    <       0.00000004 Ry

     iteration # 21     ecut=    90.00 Ry     beta= 0.70
     Davidson diagonalization with overlap
     ethr =  5.31E-10,  avg # of iterations =  1.0

     negative rho (up, down):  2.081E-03 0.000E+00

     total cpu time spent up to now is        9.4 secs

     total energy              =     -43.74709542 Ry
     Harris-Foulkes estimate   =     -43.74709542 Ry
     estimated scf accuracy    <       0.00000001 Ry

     iteration # 22     ecut=    90.00 Ry     beta= 0.70
     Davidson diagonalization with overlap
     ethr =  1.82E-10,  avg # of iterations =  1.0

     negative rho (up, down):  2.081E-03 0.000E+00

     total cpu time spent up to now is        9.7 secs

     End of self-consistent calculation

          k = 0.0000 0.0000 0.0000 (115313 PWs)   bands (ev):

   -23.2174 -10.3619  -8.7130  -6.7089  -4.7834  -0.5669   0.1997   0.8666

     the Fermi energy is    -6.3956 ev

!    total energy              =     -43.74709542 Ry
     Harris-Foulkes estimate   =     -43.74709542 Ry
     estimated scf accuracy    <          6.8E-09 Ry

     total all-electron energy =      -152.593977 Ry

     The total energy is the sum of the following terms:

     one-electron contribution =     -57.10560553 Ry
     hartree contribution      =      30.33484626 Ry
     xc contribution           =      -8.38750643 Ry
     ewald contribution        =       1.00271754 Ry
     one-center paw contrib.   =      -9.59562472 Ry
     smearing contrib. (-TS)   =       0.00407747 Ry

     convergence has been achieved in  22 iterations

     Writing output data file pwscf.save
 
     init_run     :      0.72s CPU      0.80s WALL (       1 calls)
     electrons    :      6.98s CPU      7.94s WALL (       1 calls)

     Called by init_run:
     wfcinit      :      0.12s CPU      0.15s WALL (       1 calls)
     potinit      :      0.13s CPU      0.14s WALL (       1 calls)

     Called by electrons:
     c_bands      :      2.16s CPU      2.20s WALL (      22 calls)
     sum_band     :      1.57s CPU      1.60s WALL (      22 calls)
     v_of_rho     :      1.46s CPU      1.49s WALL (      23 calls)
     newd         :      0.67s CPU      0.69s WALL (      23 calls)
     PAW_pot      :      0.20s CPU      0.22s WALL (      23 calls)
     mix_rho      :      0.88s CPU      1.60s WALL (      22 calls)

     Called by c_bands:
     init_us_2    :      0.06s CPU      0.07s WALL (      45 calls)
     cegterg      :      2.09s CPU      2.12s WALL (      22 calls)

     Called by sum_band:
     sum_band:bec :      0.00s CPU      0.00s WALL (      22 calls)
     addusdens    :      0.84s CPU      0.86s WALL (      22 calls)

     Called by *egterg:
     h_psi        :      1.98s CPU      2.00s WALL (      85 calls)
     s_psi        :      0.01s CPU      0.01s WALL (      85 calls)
     g_psi        :      0.01s CPU      0.01s WALL (      62 calls)
     cdiaghg      :      0.02s CPU      0.02s WALL (      84 calls)

     Called by h_psi:
     h_psi:pot    :      1.96s CPU      1.99s WALL (      85 calls)
     h_psi:calbec :      0.05s CPU      0.05s WALL (      85 calls)
     vloc_psi     :      1.90s CPU      1.92s WALL (      85 calls)
     add_vuspsi   :      0.02s CPU      0.02s WALL (      85 calls)

     General routines
     calbec       :      0.06s CPU      0.06s WALL (     107 calls)
     fft          :      1.28s CPU      1.31s WALL (     298 calls)
     fftw         :      1.99s CPU      2.02s WALL (    1022 calls)
     davcio       :      0.12s CPU      0.72s WALL (     347 calls)
 
     Parallel routines
     fft_scatt_xy :      0.41s CPU      0.42s WALL (    1320 calls)
     fft_scatt_yz :      0.96s CPU      1.00s WALL (    1320 calls)
 
     PWSCF        :     8.43s CPU        10.01s WALL

 
   This run was terminated on:  14:16:42  18May2018            

=------------------------------------------------------------------------------=
   JOB DONE.
=------------------------------------------------------------------------------=
