
     Program PWSCF v.6.2 (svn rev. 14038) starts on 18May2018 at 14:20:32 

     This program is part of the open-source Quantum ESPRESSO suite
     for quantum simulation of materials; please cite
         "P. Giannozzi et al., J. Phys.:Condens. Matter 21 395502 (2009);
         "P. Giannozzi et al., J. Phys.:Condens. Matter 29 465901 (2017);
          URL http://www.quantum-espresso.org", 
     in publications or presentations arising from this work. More details at
     http://www.quantum-espresso.org/quote

     Parallel version (MPI), running on    28 processors

     MPI processes distributed on     1 nodes
     R & G space division:  proc/nbgrp/npool/nimage =      28
     Reading input from ../ecut2-90/22000.in
Warning: card &IONS ignored
Warning: card     POT_EXTRAPOLATION='SECOND-ORDER' ignored
Warning: card     WFC_EXTRAPOLATION='SECOND-ORDER' ignored
Warning: card     ION_TEMPERATURE = 'ANDERSEN' ignored
Warning: card / ignored

     Current dimensions of program PWSCF are:
     Max number of different atomic species (ntypx) = 10
     Max number of k-points (npk) =  40000
     Max angular momentum in pseudopotentials (lmaxx) =  3
               file H.pbe-kjpaw_psl.1.0.0.UPF: wavefunction(s)  1S renormalized
               file O.pbe-n-kjpaw_psl.1.0.0.UPF: wavefunction(s)  2S 2P renormalized

     Subspace diagonalization in iterative solution of the eigenvalue problem:
     a serial algorithm will be used

 
     Parallelization info
     --------------------
     sticks:   dense  smooth     PW     G-vecs:    dense   smooth      PW
     Min         408     408    102                32936    32936    4116
     Max         409     409    103                32943    32943    4121
     Sum       11449   11449   2869               922329   922329  115313
 


     bravais-lattice index     =            1
     lattice parameter (alat)  =      20.0000  a.u.
     unit-cell volume          =    8000.0000 (a.u.)^3
     number of atoms/cell      =            3
     number of atomic types    =            2
     number of electrons       =         8.00
     number of Kohn-Sham states=            8
     kinetic-energy cutoff     =      90.0000  Ry
     charge density cutoff     =     360.0000  Ry
     convergence threshold     =      1.0E-08
     mixing beta               =       0.7000
     number of iterations used =            8  plain     mixing
     Exchange-correlation      = SLA PW PBX PBC ( 1  4  3  4 0 0)

     celldm(1)=  20.000000  celldm(2)=   0.000000  celldm(3)=   0.000000
     celldm(4)=   0.000000  celldm(5)=   0.000000  celldm(6)=   0.000000

     crystal axes: (cart. coord. in units of alat)
               a(1) = (   1.000000   0.000000   0.000000 )  
               a(2) = (   0.000000   1.000000   0.000000 )  
               a(3) = (   0.000000   0.000000   1.000000 )  

     reciprocal axes: (cart. coord. in units 2 pi/alat)
               b(1) = (  1.000000  0.000000  0.000000 )  
               b(2) = (  0.000000  1.000000  0.000000 )  
               b(3) = (  0.000000  0.000000  1.000000 )  


     PseudoPot. # 1 for H  read from file:
     ../pslibrary/pbe/PSEUDOPOTENTIALS/H.pbe-kjpaw_psl.1.0.0.UPF
     MD5 check sum: e77ef4e89cfa2d6a63e4c80bb1a147aa
     Pseudo is Projector augmented-wave, Zval =  1.0
     Generated using "atomic" code by A. Dal Corso v.6.2 svn rev. 14038
     Shape of augmentation charge: PSQ
     Using radial grid of  929 points,  2 beta functions with: 
                l(1) =   0
                l(2) =   0
     Q(r) pseudized with 0 coefficients 


     PseudoPot. # 2 for O  read from file:
     ../pslibrary/pbe/PSEUDOPOTENTIALS/O.pbe-n-kjpaw_psl.1.0.0.UPF
     MD5 check sum: bb09017f9a02654af35f7312a94eda3e
     Pseudo is Projector augmented-wave + core cor, Zval =  6.0
     Generated using "atomic" code by A. Dal Corso v.6.2 svn rev. 14038
     Shape of augmentation charge: PSQ
     Using radial grid of 1095 points,  4 beta functions with: 
                l(1) =   0
                l(2) =   0
                l(3) =   1
                l(4) =   1
     Q(r) pseudized with 0 coefficients 


     atomic species   valence    mass     pseudopotential
        H              1.00     1.01000     H ( 1.00)
        O              6.00    16.00000     O ( 1.00)

     No symmetry found



   Cartesian axes

     site n.     atom                  positions (alat units)
         1           O   tau(   1) = (  -0.0016977   0.0028823   0.0070636  )
         2           H   tau(   2) = (   0.0225647   0.0122547  -0.1127824  )
         3           H   tau(   3) = (   0.0043304  -0.0579143   0.0892484  )

     number of k points=     1  Marzari-Vanderbilt smearing, width (Ry)=  0.0250
                       cart. coord. in units 2pi/alat
        k(    1) = (   0.0000000   0.0000000   0.0000000), wk =   2.0000000

     Dense  grid:   922329 G-vectors     FFT dimensions: ( 125, 125, 125)

     Estimated max dynamical RAM per process >      38.67 MB

     Estimated total dynamical RAM >       1.06 GB

     Initial potential from superposition of free atoms
     Check: negative starting charge=   -0.001554

     starting charge    7.99998, renormalised to    8.00000

     negative rho (up, down):  1.554E-03 0.000E+00
     Starting wfc are    6 randomized atomic wfcs +    2 random wfc
     Checking if some PAW data can be deallocated... 

     total cpu time spent up to now is        1.5 secs

     Self-consistent Calculation

     iteration #  1     ecut=    90.00 Ry     beta= 0.70
     Davidson diagonalization with overlap
     ethr =  1.00E-02,  avg # of iterations =  7.0

     negative rho (up, down):  2.355E-03 0.000E+00

     total cpu time spent up to now is        2.1 secs

     total energy              =     -43.60116150 Ry
     Harris-Foulkes estimate   =     -43.99755288 Ry
     estimated scf accuracy    <       0.53153289 Ry

     iteration #  2     ecut=    90.00 Ry     beta= 0.70
     Davidson diagonalization with overlap
     ethr =  6.64E-03,  avg # of iterations =  3.0

     negative rho (up, down):  1.651E-03 0.000E+00

     total cpu time spent up to now is        2.4 secs

     total energy              =     -43.54248992 Ry
     Harris-Foulkes estimate   =     -44.10755733 Ry
     estimated scf accuracy    <       1.46759633 Ry

     iteration #  3     ecut=    90.00 Ry     beta= 0.70
     Davidson diagonalization with overlap
     ethr =  6.64E-03,  avg # of iterations =  1.0

     negative rho (up, down):  1.393E-03 0.000E+00

     total cpu time spent up to now is        2.7 secs

     total energy              =     -43.71177413 Ry
     Harris-Foulkes estimate   =     -43.73011314 Ry
     estimated scf accuracy    <       0.10711044 Ry

     iteration #  4     ecut=    90.00 Ry     beta= 0.70
     Davidson diagonalization with overlap
     ethr =  1.34E-03,  avg # of iterations =  3.0

     negative rho (up, down):  1.622E-03 0.000E+00

     total cpu time spent up to now is        3.4 secs

     total energy              =     -43.84624755 Ry
     Harris-Foulkes estimate   =     -43.86313326 Ry
     estimated scf accuracy    <       0.05733082 Ry

     iteration #  5     ecut=    90.00 Ry     beta= 0.70
     Davidson diagonalization with overlap
     ethr =  7.17E-04,  avg # of iterations =  1.0

     negative rho (up, down):  1.769E-03 0.000E+00

     total cpu time spent up to now is        3.7 secs

     total energy              =     -43.84516530 Ry
     Harris-Foulkes estimate   =     -43.84852902 Ry
     estimated scf accuracy    <       0.01585992 Ry

     iteration #  6     ecut=    90.00 Ry     beta= 0.70
     Davidson diagonalization with overlap
     ethr =  1.98E-04,  avg # of iterations =  1.0

     negative rho (up, down):  1.799E-03 0.000E+00

     total cpu time spent up to now is        4.0 secs

     total energy              =     -43.84549670 Ry
     Harris-Foulkes estimate   =     -43.84601168 Ry
     estimated scf accuracy    <       0.00783118 Ry

     iteration #  7     ecut=    90.00 Ry     beta= 0.70
     Davidson diagonalization with overlap
     ethr =  9.79E-05,  avg # of iterations =  3.0

     negative rho (up, down):  1.951E-03 0.000E+00

     total cpu time spent up to now is        4.4 secs

     total energy              =     -43.84818589 Ry
     Harris-Foulkes estimate   =     -43.84829460 Ry
     estimated scf accuracy    <       0.00047533 Ry

     iteration #  8     ecut=    90.00 Ry     beta= 0.70
     Davidson diagonalization with overlap
     ethr =  5.94E-06,  avg # of iterations = 14.0

     negative rho (up, down):  1.968E-03 0.000E+00

     total cpu time spent up to now is        4.9 secs

     total energy              =     -43.84424820 Ry
     Harris-Foulkes estimate   =     -43.84425764 Ry
     estimated scf accuracy    <       0.00012499 Ry

     iteration #  9     ecut=    90.00 Ry     beta= 0.70
     Davidson diagonalization with overlap
     ethr =  1.56E-06,  avg # of iterations =  1.0

     negative rho (up, down):  2.122E-03 0.000E+00

     total cpu time spent up to now is        5.2 secs

     total energy              =     -43.84421680 Ry
     Harris-Foulkes estimate   =     -43.84425104 Ry
     estimated scf accuracy    <       0.00009048 Ry

     iteration # 10     ecut=    90.00 Ry     beta= 0.70
     Davidson diagonalization with overlap
     ethr =  1.13E-06,  avg # of iterations =  2.0

     negative rho (up, down):  2.152E-03 0.000E+00

     total cpu time spent up to now is        5.6 secs

     total energy              =     -43.84422303 Ry
     Harris-Foulkes estimate   =     -43.84422352 Ry
     estimated scf accuracy    <       0.00000372 Ry

     iteration # 11     ecut=    90.00 Ry     beta= 0.70
     Davidson diagonalization with overlap
     ethr =  4.65E-08,  avg # of iterations =  3.0

     negative rho (up, down):  2.156E-03 0.000E+00

     total cpu time spent up to now is        6.0 secs

     total energy              =     -43.84422613 Ry
     Harris-Foulkes estimate   =     -43.84422616 Ry
     estimated scf accuracy    <       0.00000386 Ry

     iteration # 12     ecut=    90.00 Ry     beta= 0.70
     Davidson diagonalization with overlap
     ethr =  4.65E-08,  avg # of iterations =  2.0

     negative rho (up, down):  2.170E-03 0.000E+00

     total cpu time spent up to now is        6.3 secs

     total energy              =     -43.84422587 Ry
     Harris-Foulkes estimate   =     -43.84422614 Ry
     estimated scf accuracy    <       0.00000370 Ry

     iteration # 13     ecut=    90.00 Ry     beta= 0.70
     Davidson diagonalization with overlap
     ethr =  4.63E-08,  avg # of iterations =  1.0

     negative rho (up, down):  2.171E-03 0.000E+00

     total cpu time spent up to now is        6.7 secs

     total energy              =     -43.84422567 Ry
     Harris-Foulkes estimate   =     -43.84422602 Ry
     estimated scf accuracy    <       0.00000327 Ry

     iteration # 14     ecut=    90.00 Ry     beta= 0.70
     Davidson diagonalization with overlap
     ethr =  4.09E-08,  avg # of iterations =  1.0

     negative rho (up, down):  2.171E-03 0.000E+00

     total cpu time spent up to now is        7.0 secs

     total energy              =     -43.84422547 Ry
     Harris-Foulkes estimate   =     -43.84422570 Ry
     estimated scf accuracy    <       0.00000226 Ry

     iteration # 15     ecut=    90.00 Ry     beta= 0.70
     Davidson diagonalization with overlap
     ethr =  2.83E-08,  avg # of iterations =  1.0

     negative rho (up, down):  2.173E-03 0.000E+00

     total cpu time spent up to now is        7.4 secs

     total energy              =     -43.84422498 Ry
     Harris-Foulkes estimate   =     -43.84422550 Ry
     estimated scf accuracy    <       0.00000144 Ry

     iteration # 16     ecut=    90.00 Ry     beta= 0.70
     Davidson diagonalization with overlap
     ethr =  1.80E-08,  avg # of iterations =  1.0

     negative rho (up, down):  2.174E-03 0.000E+00

     total cpu time spent up to now is        7.7 secs

     total energy              =     -43.84422508 Ry
     Harris-Foulkes estimate   =     -43.84422513 Ry
     estimated scf accuracy    <       0.00000016 Ry

     iteration # 17     ecut=    90.00 Ry     beta= 0.70
     Davidson diagonalization with overlap
     ethr =  2.01E-09,  avg # of iterations =  3.0

     negative rho (up, down):  2.173E-03 0.000E+00

     total cpu time spent up to now is        8.1 secs

     total energy              =     -43.84422523 Ry
     Harris-Foulkes estimate   =     -43.84422526 Ry
     estimated scf accuracy    <       0.00000009 Ry

     iteration # 18     ecut=    90.00 Ry     beta= 0.70
     Davidson diagonalization with overlap
     ethr =  1.17E-09,  avg # of iterations =  1.0

     negative rho (up, down):  2.173E-03 0.000E+00

     total cpu time spent up to now is        8.4 secs

     total energy              =     -43.84422522 Ry
     Harris-Foulkes estimate   =     -43.84422524 Ry
     estimated scf accuracy    <       0.00000003 Ry

     iteration # 19     ecut=    90.00 Ry     beta= 0.70
     Davidson diagonalization with overlap
     ethr =  3.13E-10,  avg # of iterations =  3.0

     negative rho (up, down):  2.173E-03 0.000E+00

     total cpu time spent up to now is        8.8 secs

     End of self-consistent calculation

          k = 0.0000 0.0000 0.0000 (115313 PWs)   bands (ev):

   -22.9616 -12.2335  -7.0886  -6.4397  -2.9103  -0.2166   0.1833   0.9173

     the Fermi energy is    -6.1292 ev

!    total energy              =     -43.84422523 Ry
     Harris-Foulkes estimate   =     -43.84422524 Ry
     estimated scf accuracy    <          3.8E-09 Ry

     total all-electron energy =      -152.691107 Ry

     The total energy is the sum of the following terms:

     one-electron contribution =     -59.61642338 Ry
     hartree contribution      =      31.69549013 Ry
     xc contribution           =      -8.52397973 Ry
     ewald contribution        =       2.18047066 Ry
     one-center paw contrib.   =      -9.58419866 Ry
     smearing contrib. (-TS)   =       0.00441574 Ry

     convergence has been achieved in  19 iterations

     Writing output data file pwscf.save
 
     init_run     :      0.68s CPU      0.74s WALL (       1 calls)
     electrons    :      6.21s CPU      7.47s WALL (       1 calls)

     Called by init_run:
     wfcinit      :      0.08s CPU      0.11s WALL (       1 calls)
     potinit      :      0.13s CPU      0.13s WALL (       1 calls)

     Called by electrons:
     c_bands      :      2.04s CPU      2.41s WALL (      19 calls)
     sum_band     :      1.35s CPU      1.38s WALL (      19 calls)
     v_of_rho     :      1.24s CPU      1.26s WALL (      20 calls)
     newd         :      0.59s CPU      0.60s WALL (      20 calls)
     PAW_pot      :      0.18s CPU      0.19s WALL (      20 calls)
     mix_rho      :      0.72s CPU      1.28s WALL (      19 calls)

     Called by c_bands:
     init_us_2    :      0.05s CPU      0.06s WALL (      39 calls)
     cegterg      :      1.98s CPU      2.02s WALL (      19 calls)

     Called by sum_band:
     sum_band:bec :      0.00s CPU      0.00s WALL (      19 calls)
     addusdens    :      0.72s CPU      0.73s WALL (      19 calls)

     Called by *egterg:
     h_psi        :      1.85s CPU      1.88s WALL (      72 calls)
     s_psi        :      0.01s CPU      0.01s WALL (      72 calls)
     g_psi        :      0.01s CPU      0.01s WALL (      52 calls)
     cdiaghg      :      0.02s CPU      0.02s WALL (      71 calls)

     Called by h_psi:
     h_psi:pot    :      1.84s CPU      1.87s WALL (      72 calls)
     h_psi:calbec :      0.05s CPU      0.06s WALL (      72 calls)
     vloc_psi     :      1.77s CPU      1.80s WALL (      72 calls)
     add_vuspsi   :      0.01s CPU      0.02s WALL (      72 calls)

     General routines
     calbec       :      0.06s CPU      0.07s WALL (      91 calls)
     fft          :      1.07s CPU      1.10s WALL (     259 calls)
     fftw         :      1.82s CPU      1.86s WALL (     930 calls)
     davcio       :      0.10s CPU      0.57s WALL (     287 calls)
 
     Parallel routines
     fft_scatt_xy :      0.36s CPU      0.36s WALL (    1189 calls)
     fft_scatt_yz :      0.88s CPU      0.93s WALL (    1189 calls)
 
     PWSCF        :     7.63s CPU         9.30s WALL

 
   This run was terminated on:  14:20:42  18May2018            

=------------------------------------------------------------------------------=
   JOB DONE.
=------------------------------------------------------------------------------=
