
     Program PWSCF v.6.2 (svn rev. 14038) starts on 18May2018 at 14:21: 8 

     This program is part of the open-source Quantum ESPRESSO suite
     for quantum simulation of materials; please cite
         "P. Giannozzi et al., J. Phys.:Condens. Matter 21 395502 (2009);
         "P. Giannozzi et al., J. Phys.:Condens. Matter 29 465901 (2017);
          URL http://www.quantum-espresso.org", 
     in publications or presentations arising from this work. More details at
     http://www.quantum-espresso.org/quote

     Parallel version (MPI), running on    28 processors

     MPI processes distributed on     1 nodes
     R & G space division:  proc/nbgrp/npool/nimage =      28
     Reading input from ../ecut2-90/23500.in
Warning: card &IONS ignored
Warning: card     POT_EXTRAPOLATION='SECOND-ORDER' ignored
Warning: card     WFC_EXTRAPOLATION='SECOND-ORDER' ignored
Warning: card     ION_TEMPERATURE = 'ANDERSEN' ignored
Warning: card / ignored

     Current dimensions of program PWSCF are:
     Max number of different atomic species (ntypx) = 10
     Max number of k-points (npk) =  40000
     Max angular momentum in pseudopotentials (lmaxx) =  3
               file H.pbe-kjpaw_psl.1.0.0.UPF: wavefunction(s)  1S renormalized
               file O.pbe-n-kjpaw_psl.1.0.0.UPF: wavefunction(s)  2S 2P renormalized

     Subspace diagonalization in iterative solution of the eigenvalue problem:
     a serial algorithm will be used

 
     Parallelization info
     --------------------
     sticks:   dense  smooth     PW     G-vecs:    dense   smooth      PW
     Min         408     408    102                32936    32936    4116
     Max         409     409    103                32943    32943    4121
     Sum       11449   11449   2869               922329   922329  115313
 


     bravais-lattice index     =            1
     lattice parameter (alat)  =      20.0000  a.u.
     unit-cell volume          =    8000.0000 (a.u.)^3
     number of atoms/cell      =            3
     number of atomic types    =            2
     number of electrons       =         8.00
     number of Kohn-Sham states=            8
     kinetic-energy cutoff     =      90.0000  Ry
     charge density cutoff     =     360.0000  Ry
     convergence threshold     =      1.0E-08
     mixing beta               =       0.7000
     number of iterations used =            8  plain     mixing
     Exchange-correlation      = SLA PW PBX PBC ( 1  4  3  4 0 0)

     celldm(1)=  20.000000  celldm(2)=   0.000000  celldm(3)=   0.000000
     celldm(4)=   0.000000  celldm(5)=   0.000000  celldm(6)=   0.000000

     crystal axes: (cart. coord. in units of alat)
               a(1) = (   1.000000   0.000000   0.000000 )  
               a(2) = (   0.000000   1.000000   0.000000 )  
               a(3) = (   0.000000   0.000000   1.000000 )  

     reciprocal axes: (cart. coord. in units 2 pi/alat)
               b(1) = (  1.000000  0.000000  0.000000 )  
               b(2) = (  0.000000  1.000000  0.000000 )  
               b(3) = (  0.000000  0.000000  1.000000 )  


     PseudoPot. # 1 for H  read from file:
     ../pslibrary/pbe/PSEUDOPOTENTIALS/H.pbe-kjpaw_psl.1.0.0.UPF
     MD5 check sum: e77ef4e89cfa2d6a63e4c80bb1a147aa
     Pseudo is Projector augmented-wave, Zval =  1.0
     Generated using "atomic" code by A. Dal Corso v.6.2 svn rev. 14038
     Shape of augmentation charge: PSQ
     Using radial grid of  929 points,  2 beta functions with: 
                l(1) =   0
                l(2) =   0
     Q(r) pseudized with 0 coefficients 


     PseudoPot. # 2 for O  read from file:
     ../pslibrary/pbe/PSEUDOPOTENTIALS/O.pbe-n-kjpaw_psl.1.0.0.UPF
     MD5 check sum: bb09017f9a02654af35f7312a94eda3e
     Pseudo is Projector augmented-wave + core cor, Zval =  6.0
     Generated using "atomic" code by A. Dal Corso v.6.2 svn rev. 14038
     Shape of augmentation charge: PSQ
     Using radial grid of 1095 points,  4 beta functions with: 
                l(1) =   0
                l(2) =   0
                l(3) =   1
                l(4) =   1
     Q(r) pseudized with 0 coefficients 


     atomic species   valence    mass     pseudopotential
        H              1.00     1.01000     H ( 1.00)
        O              6.00    16.00000     O ( 1.00)

     No symmetry found



   Cartesian axes

     site n.     atom                  positions (alat units)
         1           O   tau(   1) = (  -0.0092488  -0.0049356   0.0055891  )
         2           H   tau(   2) = (   0.0394755   0.0558817  -0.0480239  )
         3           H   tau(   3) = (   0.1070402   0.0223056   0.0478468  )

     number of k points=     1  Marzari-Vanderbilt smearing, width (Ry)=  0.0250
                       cart. coord. in units 2pi/alat
        k(    1) = (   0.0000000   0.0000000   0.0000000), wk =   2.0000000

     Dense  grid:   922329 G-vectors     FFT dimensions: ( 125, 125, 125)

     Estimated max dynamical RAM per process >      38.67 MB

     Estimated total dynamical RAM >       1.06 GB

     Initial potential from superposition of free atoms
     Check: negative starting charge=   -0.001648

     starting charge    7.99998, renormalised to    8.00000

     negative rho (up, down):  1.648E-03 0.000E+00
     Starting wfc are    6 randomized atomic wfcs +    2 random wfc
     Checking if some PAW data can be deallocated... 

     total cpu time spent up to now is        1.5 secs

     Self-consistent Calculation

     iteration #  1     ecut=    90.00 Ry     beta= 0.70
     Davidson diagonalization with overlap
     ethr =  1.00E-02,  avg # of iterations =  6.0

     negative rho (up, down):  2.384E-03 0.000E+00

     total cpu time spent up to now is        1.9 secs

     total energy              =     -43.65042073 Ry
     Harris-Foulkes estimate   =     -43.99850427 Ry
     estimated scf accuracy    <       0.46507612 Ry

     iteration #  2     ecut=    90.00 Ry     beta= 0.70
     Davidson diagonalization with overlap
     ethr =  5.81E-03,  avg # of iterations =  3.0

     negative rho (up, down):  1.642E-03 0.000E+00

     total cpu time spent up to now is        2.3 secs

     total energy              =     -43.64157381 Ry
     Harris-Foulkes estimate   =     -44.12284120 Ry
     estimated scf accuracy    <       1.23868361 Ry

     iteration #  3     ecut=    90.00 Ry     beta= 0.70
     Davidson diagonalization with overlap
     ethr =  5.81E-03,  avg # of iterations =  3.0

     negative rho (up, down):  1.389E-03 0.000E+00

     total cpu time spent up to now is        2.7 secs

     total energy              =     -43.82167734 Ry
     Harris-Foulkes estimate   =     -43.82941359 Ry
     estimated scf accuracy    <       0.02562264 Ry

     iteration #  4     ecut=    90.00 Ry     beta= 0.70
     Davidson diagonalization with overlap
     ethr =  3.20E-04,  avg # of iterations =  8.0

     negative rho (up, down):  1.700E-03 0.000E+00

     total cpu time spent up to now is        3.1 secs

     total energy              =     -43.87838023 Ry
     Harris-Foulkes estimate   =     -43.88478990 Ry
     estimated scf accuracy    <       0.02510683 Ry

     iteration #  5     ecut=    90.00 Ry     beta= 0.70
     Davidson diagonalization with overlap
     ethr =  3.14E-04,  avg # of iterations =  1.0

     negative rho (up, down):  1.799E-03 0.000E+00

     total cpu time spent up to now is        3.4 secs

     total energy              =     -43.87770483 Ry
     Harris-Foulkes estimate   =     -43.87922493 Ry
     estimated scf accuracy    <       0.00811161 Ry

     iteration #  6     ecut=    90.00 Ry     beta= 0.70
     Davidson diagonalization with overlap
     ethr =  1.01E-04,  avg # of iterations =  1.0

     negative rho (up, down):  1.855E-03 0.000E+00

     total cpu time spent up to now is        3.7 secs

     total energy              =     -43.87775046 Ry
     Harris-Foulkes estimate   =     -43.87813456 Ry
     estimated scf accuracy    <       0.00336875 Ry

     iteration #  7     ecut=    90.00 Ry     beta= 0.70
     Davidson diagonalization with overlap
     ethr =  4.21E-05,  avg # of iterations =  1.0

     negative rho (up, down):  1.916E-03 0.000E+00

     total cpu time spent up to now is        4.0 secs

     total energy              =     -43.87769590 Ry
     Harris-Foulkes estimate   =     -43.87790279 Ry
     estimated scf accuracy    <       0.00187003 Ry

     iteration #  8     ecut=    90.00 Ry     beta= 0.70
     Davidson diagonalization with overlap
     ethr =  2.34E-05,  avg # of iterations =  3.0

     negative rho (up, down):  1.936E-03 0.000E+00

     total cpu time spent up to now is        4.4 secs

     total energy              =     -43.87831181 Ry
     Harris-Foulkes estimate   =     -43.87830768 Ry
     estimated scf accuracy    <       0.00021701 Ry

     iteration #  9     ecut=    90.00 Ry     beta= 0.70
     Davidson diagonalization with overlap
     ethr =  2.71E-06,  avg # of iterations = 10.0

     negative rho (up, down):  2.137E-03 0.000E+00

     total cpu time spent up to now is        4.9 secs

     total energy              =     -43.87834814 Ry
     Harris-Foulkes estimate   =     -43.87831772 Ry
     estimated scf accuracy    <       0.00021730 Ry

     iteration # 10     ecut=    90.00 Ry     beta= 0.70
     Davidson diagonalization with overlap
     ethr =  2.71E-06,  avg # of iterations =  1.0

     negative rho (up, down):  2.331E-03 0.000E+00

     total cpu time spent up to now is        5.2 secs

     total energy              =     -43.87837483 Ry
     Harris-Foulkes estimate   =     -43.87835547 Ry
     estimated scf accuracy    <       0.00030297 Ry

     iteration # 11     ecut=    90.00 Ry     beta= 0.70
     Davidson diagonalization with overlap
     ethr =  2.71E-06,  avg # of iterations =  1.0

     negative rho (up, down):  2.316E-03 0.000E+00

     total cpu time spent up to now is        5.6 secs

     total energy              =     -43.87833672 Ry
     Harris-Foulkes estimate   =     -43.87838072 Ry
     estimated scf accuracy    <       0.00039131 Ry

     iteration # 12     ecut=    90.00 Ry     beta= 0.70
     Davidson diagonalization with overlap
     ethr =  2.71E-06,  avg # of iterations =  1.0

     negative rho (up, down):  2.306E-03 0.000E+00

     total cpu time spent up to now is        5.9 secs

     total energy              =     -43.87830376 Ry
     Harris-Foulkes estimate   =     -43.87834084 Ry
     estimated scf accuracy    <       0.00026153 Ry

     iteration # 13     ecut=    90.00 Ry     beta= 0.70
     Davidson diagonalization with overlap
     ethr =  2.71E-06,  avg # of iterations =  1.0

     negative rho (up, down):  2.303E-03 0.000E+00

     total cpu time spent up to now is        6.2 secs

     total energy              =     -43.87830176 Ry
     Harris-Foulkes estimate   =     -43.87830628 Ry
     estimated scf accuracy    <       0.00015644 Ry

     iteration # 14     ecut=    90.00 Ry     beta= 0.70
     Davidson diagonalization with overlap
     ethr =  1.96E-06,  avg # of iterations =  1.0

     negative rho (up, down):  2.293E-03 0.000E+00

     total cpu time spent up to now is        6.6 secs

     total energy              =     -43.87828580 Ry
     Harris-Foulkes estimate   =     -43.87830245 Ry
     estimated scf accuracy    <       0.00014136 Ry

     iteration # 15     ecut=    90.00 Ry     beta= 0.70
     Davidson diagonalization with overlap
     ethr =  1.77E-06,  avg # of iterations =  1.0

     negative rho (up, down):  2.270E-03 0.000E+00

     total cpu time spent up to now is        6.9 secs

     total energy              =     -43.87825953 Ry
     Harris-Foulkes estimate   =     -43.87828738 Ry
     estimated scf accuracy    <       0.00008896 Ry

     iteration # 16     ecut=    90.00 Ry     beta= 0.70
     Davidson diagonalization with overlap
     ethr =  1.11E-06,  avg # of iterations =  3.0

     negative rho (up, down):  2.258E-03 0.000E+00

     total cpu time spent up to now is        7.3 secs

     total energy              =     -43.87827168 Ry
     Harris-Foulkes estimate   =     -43.87827312 Ry
     estimated scf accuracy    <       0.00000383 Ry

     iteration # 17     ecut=    90.00 Ry     beta= 0.70
     Davidson diagonalization with overlap
     ethr =  4.79E-08,  avg # of iterations =  4.0

     negative rho (up, down):  2.256E-03 0.000E+00

     total cpu time spent up to now is        7.7 secs

     total energy              =     -43.87827745 Ry
     Harris-Foulkes estimate   =     -43.87827788 Ry
     estimated scf accuracy    <       0.00000600 Ry

     iteration # 18     ecut=    90.00 Ry     beta= 0.70
     Davidson diagonalization with overlap
     ethr =  4.79E-08,  avg # of iterations =  1.0

     negative rho (up, down):  2.258E-03 0.000E+00

     total cpu time spent up to now is        8.1 secs

     total energy              =     -43.87827668 Ry
     Harris-Foulkes estimate   =     -43.87827754 Ry
     estimated scf accuracy    <       0.00000560 Ry

     iteration # 19     ecut=    90.00 Ry     beta= 0.70
     Davidson diagonalization with overlap
     ethr =  4.79E-08,  avg # of iterations =  1.0

     negative rho (up, down):  2.259E-03 0.000E+00

     total cpu time spent up to now is        8.4 secs

     total energy              =     -43.87827585 Ry
     Harris-Foulkes estimate   =     -43.87827676 Ry
     estimated scf accuracy    <       0.00000331 Ry

     iteration # 20     ecut=    90.00 Ry     beta= 0.70
     Davidson diagonalization with overlap
     ethr =  4.13E-08,  avg # of iterations =  1.0

     negative rho (up, down):  2.260E-03 0.000E+00

     total cpu time spent up to now is        8.8 secs

     total energy              =     -43.87827581 Ry
     Harris-Foulkes estimate   =     -43.87827608 Ry
     estimated scf accuracy    <       0.00000077 Ry

     iteration # 21     ecut=    90.00 Ry     beta= 0.70
     Davidson diagonalization with overlap
     ethr =  9.66E-09,  avg # of iterations =  3.0

     negative rho (up, down):  2.259E-03 0.000E+00

     total cpu time spent up to now is        9.1 secs

     total energy              =     -43.87827604 Ry
     Harris-Foulkes estimate   =     -43.87827604 Ry
     estimated scf accuracy    <       0.00000002 Ry

     iteration # 22     ecut=    90.00 Ry     beta= 0.70
     Davidson diagonalization with overlap
     ethr =  2.57E-10,  avg # of iterations =  4.0

     negative rho (up, down):  2.260E-03 0.000E+00

     total cpu time spent up to now is        9.5 secs

     total energy              =     -43.87827606 Ry
     Harris-Foulkes estimate   =     -43.87827605 Ry
     estimated scf accuracy    <       0.00000001 Ry

     iteration # 23     ecut=    90.00 Ry     beta= 0.70
     Davidson diagonalization with overlap
     ethr =  1.60E-10,  avg # of iterations =  3.0

     negative rho (up, down):  2.259E-03 0.000E+00

     total cpu time spent up to now is        9.9 secs

     total energy              =     -43.87827605 Ry
     Harris-Foulkes estimate   =     -43.87827607 Ry
     estimated scf accuracy    <       0.00000006 Ry

     iteration # 24     ecut=    90.00 Ry     beta= 0.70
     Davidson diagonalization with overlap
     ethr =  1.60E-10,  avg # of iterations =  3.0

     negative rho (up, down):  2.259E-03 0.000E+00

     total cpu time spent up to now is       10.1 secs

     End of self-consistent calculation

          k = 0.0000 0.0000 0.0000 (115313 PWs)   bands (ev):

   -24.3717 -11.0631  -9.6463  -7.0337  -2.8401  -0.1907   0.4062   0.8768

     the Fermi energy is    -5.0952 ev

!    total energy              =     -43.87827605 Ry
     Harris-Foulkes estimate   =     -43.87827605 Ry
     estimated scf accuracy    <          5.1E-09 Ry

     total all-electron energy =      -152.725157 Ry

     The total energy is the sum of the following terms:

     one-electron contribution =     -60.47268534 Ry
     hartree contribution      =      31.91922755 Ry
     xc contribution           =      -8.58375223 Ry
     ewald contribution        =       2.85398814 Ry
     one-center paw contrib.   =      -9.59505417 Ry
     smearing contrib. (-TS)   =       0.00000000 Ry

     convergence has been achieved in  24 iterations

     Writing output data file pwscf.save
 
     init_run     :      0.68s CPU      0.75s WALL (       1 calls)
     electrons    :      7.70s CPU      8.78s WALL (       1 calls)

     Called by init_run:
     wfcinit      :      0.09s CPU      0.11s WALL (       1 calls)
     potinit      :      0.13s CPU      0.13s WALL (       1 calls)

     Called by electrons:
     c_bands      :      2.55s CPU      2.60s WALL (      24 calls)
     sum_band     :      1.74s CPU      1.78s WALL (      24 calls)
     v_of_rho     :      1.54s CPU      1.57s WALL (      25 calls)
     newd         :      0.73s CPU      0.75s WALL (      25 calls)
     PAW_pot      :      0.21s CPU      0.23s WALL (      25 calls)
     mix_rho      :      0.88s CPU      1.68s WALL (      24 calls)

     Called by c_bands:
     init_us_2    :      0.07s CPU      0.07s WALL (      49 calls)
     cegterg      :      2.48s CPU      2.51s WALL (      24 calls)

     Called by sum_band:
     sum_band:bec :      0.00s CPU      0.00s WALL (      24 calls)
     addusdens    :      0.91s CPU      0.93s WALL (      24 calls)

     Called by *egterg:
     h_psi        :      2.29s CPU      2.33s WALL (      90 calls)
     s_psi        :      0.01s CPU      0.01s WALL (      90 calls)
     g_psi        :      0.01s CPU      0.01s WALL (      65 calls)
     cdiaghg      :      0.02s CPU      0.02s WALL (      89 calls)

     Called by h_psi:
     h_psi:pot    :      2.28s CPU      2.31s WALL (      90 calls)
     h_psi:calbec :      0.08s CPU      0.08s WALL (      90 calls)
     vloc_psi     :      2.18s CPU      2.21s WALL (      90 calls)
     add_vuspsi   :      0.02s CPU      0.02s WALL (      90 calls)

     General routines
     calbec       :      0.10s CPU      0.10s WALL (     114 calls)
     fft          :      1.32s CPU      1.35s WALL (     324 calls)
     fftw         :      2.30s CPU      2.34s WALL (    1148 calls)
     davcio       :      0.14s CPU      0.83s WALL (     387 calls)
 
     Parallel routines
     fft_scatt_xy :      0.45s CPU      0.45s WALL (    1472 calls)
     fft_scatt_yz :      1.11s CPU      1.16s WALL (    1472 calls)
 
     PWSCF        :     9.07s CPU        10.52s WALL

 
   This run was terminated on:  14:21:19  18May2018            

=------------------------------------------------------------------------------=
   JOB DONE.
=------------------------------------------------------------------------------=
