
     Program PWSCF v.6.2 (svn rev. 14038) starts on 18May2018 at 14:21:20 

     This program is part of the open-source Quantum ESPRESSO suite
     for quantum simulation of materials; please cite
         "P. Giannozzi et al., J. Phys.:Condens. Matter 21 395502 (2009);
         "P. Giannozzi et al., J. Phys.:Condens. Matter 29 465901 (2017);
          URL http://www.quantum-espresso.org", 
     in publications or presentations arising from this work. More details at
     http://www.quantum-espresso.org/quote

     Parallel version (MPI), running on    28 processors

     MPI processes distributed on     1 nodes
     R & G space division:  proc/nbgrp/npool/nimage =      28
     Reading input from ../ecut2-90/24000.in
Warning: card &IONS ignored
Warning: card     POT_EXTRAPOLATION='SECOND-ORDER' ignored
Warning: card     WFC_EXTRAPOLATION='SECOND-ORDER' ignored
Warning: card     ION_TEMPERATURE = 'ANDERSEN' ignored
Warning: card / ignored

     Current dimensions of program PWSCF are:
     Max number of different atomic species (ntypx) = 10
     Max number of k-points (npk) =  40000
     Max angular momentum in pseudopotentials (lmaxx) =  3
               file H.pbe-kjpaw_psl.1.0.0.UPF: wavefunction(s)  1S renormalized
               file O.pbe-n-kjpaw_psl.1.0.0.UPF: wavefunction(s)  2S 2P renormalized

     Subspace diagonalization in iterative solution of the eigenvalue problem:
     a serial algorithm will be used

 
     Parallelization info
     --------------------
     sticks:   dense  smooth     PW     G-vecs:    dense   smooth      PW
     Min         408     408    102                32936    32936    4116
     Max         409     409    103                32943    32943    4121
     Sum       11449   11449   2869               922329   922329  115313
 


     bravais-lattice index     =            1
     lattice parameter (alat)  =      20.0000  a.u.
     unit-cell volume          =    8000.0000 (a.u.)^3
     number of atoms/cell      =            3
     number of atomic types    =            2
     number of electrons       =         8.00
     number of Kohn-Sham states=            8
     kinetic-energy cutoff     =      90.0000  Ry
     charge density cutoff     =     360.0000  Ry
     convergence threshold     =      1.0E-08
     mixing beta               =       0.7000
     number of iterations used =            8  plain     mixing
     Exchange-correlation      = SLA PW PBX PBC ( 1  4  3  4 0 0)

     celldm(1)=  20.000000  celldm(2)=   0.000000  celldm(3)=   0.000000
     celldm(4)=   0.000000  celldm(5)=   0.000000  celldm(6)=   0.000000

     crystal axes: (cart. coord. in units of alat)
               a(1) = (   1.000000   0.000000   0.000000 )  
               a(2) = (   0.000000   1.000000   0.000000 )  
               a(3) = (   0.000000   0.000000   1.000000 )  

     reciprocal axes: (cart. coord. in units 2 pi/alat)
               b(1) = (  1.000000  0.000000  0.000000 )  
               b(2) = (  0.000000  1.000000  0.000000 )  
               b(3) = (  0.000000  0.000000  1.000000 )  


     PseudoPot. # 1 for H  read from file:
     ../pslibrary/pbe/PSEUDOPOTENTIALS/H.pbe-kjpaw_psl.1.0.0.UPF
     MD5 check sum: e77ef4e89cfa2d6a63e4c80bb1a147aa
     Pseudo is Projector augmented-wave, Zval =  1.0
     Generated using "atomic" code by A. Dal Corso v.6.2 svn rev. 14038
     Shape of augmentation charge: PSQ
     Using radial grid of  929 points,  2 beta functions with: 
                l(1) =   0
                l(2) =   0
     Q(r) pseudized with 0 coefficients 


     PseudoPot. # 2 for O  read from file:
     ../pslibrary/pbe/PSEUDOPOTENTIALS/O.pbe-n-kjpaw_psl.1.0.0.UPF
     MD5 check sum: bb09017f9a02654af35f7312a94eda3e
     Pseudo is Projector augmented-wave + core cor, Zval =  6.0
     Generated using "atomic" code by A. Dal Corso v.6.2 svn rev. 14038
     Shape of augmentation charge: PSQ
     Using radial grid of 1095 points,  4 beta functions with: 
                l(1) =   0
                l(2) =   0
                l(3) =   1
                l(4) =   1
     Q(r) pseudized with 0 coefficients 


     atomic species   valence    mass     pseudopotential
        H              1.00     1.01000     H ( 1.00)
        O              6.00    16.00000     O ( 1.00)

     No symmetry found



   Cartesian axes

     site n.     atom                  positions (alat units)
         1           O   tau(   1) = (   0.0008505   0.0010755  -0.0042351  )
         2           H   tau(   2) = (  -0.0710448   0.0235430   0.0612537  )
         3           H   tau(   3) = (   0.0575720  -0.0405819   0.0942002  )

     number of k points=     1  Marzari-Vanderbilt smearing, width (Ry)=  0.0250
                       cart. coord. in units 2pi/alat
        k(    1) = (   0.0000000   0.0000000   0.0000000), wk =   2.0000000

     Dense  grid:   922329 G-vectors     FFT dimensions: ( 125, 125, 125)

     Estimated max dynamical RAM per process >      38.67 MB

     Estimated total dynamical RAM >       1.06 GB

     Initial potential from superposition of free atoms
     Check: negative starting charge=   -0.001627

     starting charge    7.99998, renormalised to    8.00000

     negative rho (up, down):  1.627E-03 0.000E+00
     Starting wfc are    6 randomized atomic wfcs +    2 random wfc
     Checking if some PAW data can be deallocated... 

     total cpu time spent up to now is        1.7 secs

     Self-consistent Calculation

     iteration #  1     ecut=    90.00 Ry     beta= 0.70
     Davidson diagonalization with overlap
     ethr =  1.00E-02,  avg # of iterations =  7.0

     negative rho (up, down):  2.353E-03 0.000E+00

     total cpu time spent up to now is        2.3 secs

     total energy              =     -43.73045608 Ry
     Harris-Foulkes estimate   =     -44.04363855 Ry
     estimated scf accuracy    <       0.42148805 Ry

     iteration #  2     ecut=    90.00 Ry     beta= 0.70
     Davidson diagonalization with overlap
     ethr =  5.27E-03,  avg # of iterations =  3.0

     negative rho (up, down):  1.910E-03 0.000E+00

     total cpu time spent up to now is        2.6 secs

     total energy              =     -43.72802247 Ry
     Harris-Foulkes estimate   =     -44.14524752 Ry
     estimated scf accuracy    <       1.04996836 Ry

     iteration #  3     ecut=    90.00 Ry     beta= 0.70
     Davidson diagonalization with overlap
     ethr =  5.27E-03,  avg # of iterations =  1.0

     negative rho (up, down):  1.452E-03 0.000E+00

     total cpu time spent up to now is        2.9 secs

     total energy              =     -43.84087838 Ry
     Harris-Foulkes estimate   =     -43.86011851 Ry
     estimated scf accuracy    <       0.06590500 Ry

     iteration #  4     ecut=    90.00 Ry     beta= 0.70
     Davidson diagonalization with overlap
     ethr =  8.24E-04,  avg # of iterations =  3.0

     negative rho (up, down):  1.645E-03 0.000E+00

     total cpu time spent up to now is        3.3 secs

     total energy              =     -43.93385631 Ry
     Harris-Foulkes estimate   =     -43.94651067 Ry
     estimated scf accuracy    <       0.05817089 Ry

     iteration #  5     ecut=    90.00 Ry     beta= 0.70
     Davidson diagonalization with overlap
     ethr =  7.27E-04,  avg # of iterations =  1.0

     negative rho (up, down):  1.776E-03 0.000E+00

     total cpu time spent up to now is        3.6 secs

     total energy              =     -43.93069911 Ry
     Harris-Foulkes estimate   =     -43.93517527 Ry
     estimated scf accuracy    <       0.02499380 Ry

     iteration #  6     ecut=    90.00 Ry     beta= 0.70
     Davidson diagonalization with overlap
     ethr =  3.12E-04,  avg # of iterations =  1.0

     negative rho (up, down):  1.776E-03 0.000E+00

     total cpu time spent up to now is        4.0 secs

     total energy              =     -43.93219431 Ry
     Harris-Foulkes estimate   =     -43.93219799 Ry
     estimated scf accuracy    <       0.00848871 Ry

     iteration #  7     ecut=    90.00 Ry     beta= 0.70
     Davidson diagonalization with overlap
     ethr =  1.06E-04,  avg # of iterations =  7.0

     negative rho (up, down):  1.755E-03 0.000E+00

     total cpu time spent up to now is        4.4 secs

     total energy              =     -43.93270050 Ry
     Harris-Foulkes estimate   =     -43.93262774 Ry
     estimated scf accuracy    <       0.00666291 Ry

     iteration #  8     ecut=    90.00 Ry     beta= 0.70
     Davidson diagonalization with overlap
     ethr =  8.33E-05,  avg # of iterations =  1.0

     negative rho (up, down):  1.740E-03 0.000E+00

     total cpu time spent up to now is        4.7 secs

     total energy              =     -43.93298069 Ry
     Harris-Foulkes estimate   =     -43.93285731 Ry
     estimated scf accuracy    <       0.00646223 Ry

     iteration #  9     ecut=    90.00 Ry     beta= 0.70
     Davidson diagonalization with overlap
     ethr =  8.08E-05,  avg # of iterations =  1.0

     negative rho (up, down):  1.882E-03 0.000E+00

     total cpu time spent up to now is        5.1 secs

     total energy              =     -43.93220250 Ry
     Harris-Foulkes estimate   =     -43.93308230 Ry
     estimated scf accuracy    <       0.00639079 Ry

     iteration # 10     ecut=    90.00 Ry     beta= 0.70
     Davidson diagonalization with overlap
     ethr =  7.99E-05,  avg # of iterations =  2.0

     negative rho (up, down):  2.145E-03 0.000E+00

     total cpu time spent up to now is        5.7 secs

     total energy              =     -43.93205681 Ry
     Harris-Foulkes estimate   =     -43.93258403 Ry
     estimated scf accuracy    <       0.00230343 Ry

     iteration # 11     ecut=    90.00 Ry     beta= 0.70
     Davidson diagonalization with overlap
     ethr =  2.88E-05,  avg # of iterations =  1.0

     negative rho (up, down):  2.173E-03 0.000E+00

     total cpu time spent up to now is        6.0 secs

     total energy              =     -43.93213874 Ry
     Harris-Foulkes estimate   =     -43.93218151 Ry
     estimated scf accuracy    <       0.00074545 Ry

     iteration # 12     ecut=    90.00 Ry     beta= 0.70
     Davidson diagonalization with overlap
     ethr =  9.32E-06,  avg # of iterations =  1.0

     negative rho (up, down):  2.287E-03 0.000E+00

     total cpu time spent up to now is        6.4 secs

     total energy              =     -43.93207875 Ry
     Harris-Foulkes estimate   =     -43.93216158 Ry
     estimated scf accuracy    <       0.00060901 Ry

     iteration # 13     ecut=    90.00 Ry     beta= 0.70
     Davidson diagonalization with overlap
     ethr =  7.61E-06,  avg # of iterations =  3.0

     negative rho (up, down):  2.241E-03 0.000E+00

     total cpu time spent up to now is        6.7 secs

     total energy              =     -43.93215441 Ry
     Harris-Foulkes estimate   =     -43.93220190 Ry
     estimated scf accuracy    <       0.00026552 Ry

     iteration # 14     ecut=    90.00 Ry     beta= 0.70
     Davidson diagonalization with overlap
     ethr =  3.32E-06,  avg # of iterations =  2.0

     negative rho (up, down):  2.249E-03 0.000E+00

     total cpu time spent up to now is        7.1 secs

     total energy              =     -43.93216436 Ry
     Harris-Foulkes estimate   =     -43.93216345 Ry
     estimated scf accuracy    <       0.00011990 Ry

     iteration # 15     ecut=    90.00 Ry     beta= 0.70
     Davidson diagonalization with overlap
     ethr =  1.50E-06,  avg # of iterations =  1.0

     negative rho (up, down):  2.229E-03 0.000E+00

     total cpu time spent up to now is        7.4 secs

     total energy              =     -43.93214155 Ry
     Harris-Foulkes estimate   =     -43.93216540 Ry
     estimated scf accuracy    <       0.00012811 Ry

     iteration # 16     ecut=    90.00 Ry     beta= 0.70
     Davidson diagonalization with overlap
     ethr =  1.50E-06,  avg # of iterations = 19.0

     negative rho (up, down):  2.244E-03 0.000E+00

     total cpu time spent up to now is        8.0 secs

     total energy              =     -43.93212660 Ry
     Harris-Foulkes estimate   =     -43.93214586 Ry
     estimated scf accuracy    <       0.00007032 Ry

     iteration # 17     ecut=    90.00 Ry     beta= 0.70
     Davidson diagonalization with overlap
     ethr =  8.79E-07,  avg # of iterations =  9.0

     negative rho (up, down):  2.262E-03 0.000E+00

     total cpu time spent up to now is        8.4 secs

     total energy              =     -43.93213880 Ry
     Harris-Foulkes estimate   =     -43.93213246 Ry
     estimated scf accuracy    <       0.00001821 Ry

     iteration # 18     ecut=    90.00 Ry     beta= 0.70
     Davidson diagonalization with overlap
     ethr =  2.28E-07,  avg # of iterations =  1.0

     negative rho (up, down):  2.244E-03 0.000E+00

     total cpu time spent up to now is        8.7 secs

     total energy              =     -43.93213599 Ry
     Harris-Foulkes estimate   =     -43.93214068 Ry
     estimated scf accuracy    <       0.00004046 Ry

     iteration # 19     ecut=    90.00 Ry     beta= 0.70
     Davidson diagonalization with overlap
     ethr =  2.28E-07,  avg # of iterations =  1.0

     negative rho (up, down):  2.250E-03 0.000E+00

     total cpu time spent up to now is        9.1 secs

     total energy              =     -43.93213417 Ry
     Harris-Foulkes estimate   =     -43.93213642 Ry
     estimated scf accuracy    <       0.00002584 Ry

     iteration # 20     ecut=    90.00 Ry     beta= 0.70
     Davidson diagonalization with overlap
     ethr =  2.28E-07,  avg # of iterations =  1.0

     negative rho (up, down):  2.251E-03 0.000E+00

     total cpu time spent up to now is        9.4 secs

     total energy              =     -43.93212865 Ry
     Harris-Foulkes estimate   =     -43.93213471 Ry
     estimated scf accuracy    <       0.00001904 Ry

     iteration # 21     ecut=    90.00 Ry     beta= 0.70
     Davidson diagonalization with overlap
     ethr =  2.28E-07,  avg # of iterations =  1.0

     negative rho (up, down):  2.248E-03 0.000E+00

     total cpu time spent up to now is        9.8 secs

     total energy              =     -43.93212902 Ry
     Harris-Foulkes estimate   =     -43.93213017 Ry
     estimated scf accuracy    <       0.00000260 Ry

     iteration # 22     ecut=    90.00 Ry     beta= 0.70
     Davidson diagonalization with overlap
     ethr =  3.25E-08,  avg # of iterations =  3.0

     negative rho (up, down):  2.247E-03 0.000E+00

     total cpu time spent up to now is       10.2 secs

     total energy              =     -43.93213058 Ry
     Harris-Foulkes estimate   =     -43.93213101 Ry
     estimated scf accuracy    <       0.00000126 Ry

     iteration # 23     ecut=    90.00 Ry     beta= 0.70
     Davidson diagonalization with overlap
     ethr =  1.58E-08,  avg # of iterations =  1.0

     negative rho (up, down):  2.248E-03 0.000E+00

     total cpu time spent up to now is       10.5 secs

     total energy              =     -43.93213052 Ry
     Harris-Foulkes estimate   =     -43.93213065 Ry
     estimated scf accuracy    <       0.00000026 Ry

     iteration # 24     ecut=    90.00 Ry     beta= 0.70
     Davidson diagonalization with overlap
     ethr =  3.29E-09,  avg # of iterations =  3.0

     negative rho (up, down):  2.247E-03 0.000E+00

     total cpu time spent up to now is       10.9 secs

     total energy              =     -43.93213069 Ry
     Harris-Foulkes estimate   =     -43.93213073 Ry
     estimated scf accuracy    <       0.00000016 Ry

     iteration # 25     ecut=    90.00 Ry     beta= 0.70
     Davidson diagonalization with overlap
     ethr =  1.94E-09,  avg # of iterations =  1.0

     negative rho (up, down):  2.246E-03 0.000E+00

     total cpu time spent up to now is       11.3 secs

     total energy              =     -43.93213067 Ry
     Harris-Foulkes estimate   =     -43.93213069 Ry
     estimated scf accuracy    <       0.00000005 Ry

     iteration # 26     ecut=    90.00 Ry     beta= 0.70
     Davidson diagonalization with overlap
     ethr =  6.09E-10,  avg # of iterations =  3.0

     negative rho (up, down):  2.247E-03 0.000E+00

     total cpu time spent up to now is       11.7 secs

     total energy              =     -43.93213070 Ry
     Harris-Foulkes estimate   =     -43.93213070 Ry
     estimated scf accuracy    <       0.00000001 Ry

     iteration # 27     ecut=    90.00 Ry     beta= 0.70
     Davidson diagonalization with overlap
     ethr =  1.70E-10,  avg # of iterations =  1.0

     negative rho (up, down):  2.247E-03 0.000E+00

     total cpu time spent up to now is       11.9 secs

     End of self-consistent calculation

          k = 0.0000 0.0000 0.0000 (115313 PWs)   bands (ev):

   -23.8871 -10.6403  -9.9305  -6.9166  -2.1473  -0.1964   0.2588   0.9070

     the Fermi energy is    -4.9514 ev

!    total energy              =     -43.93213069 Ry
     Harris-Foulkes estimate   =     -43.93213070 Ry
     estimated scf accuracy    <          4.2E-09 Ry

     total all-electron energy =      -152.779012 Ry

     The total energy is the sum of the following terms:

     one-electron contribution =     -60.20601269 Ry
     hartree contribution      =      31.82524193 Ry
     xc contribution           =      -8.56214884 Ry
     ewald contribution        =       2.60394638 Ry
     one-center paw contrib.   =      -9.59315747 Ry
     smearing contrib. (-TS)   =       0.00000000 Ry

     convergence has been achieved in  27 iterations

     Writing output data file pwscf.save
 
     init_run     :      0.77s CPU      0.84s WALL (       1 calls)
     electrons    :      8.83s CPU     10.32s WALL (       1 calls)

     Called by init_run:
     wfcinit      :      0.13s CPU      0.15s WALL (       1 calls)
     potinit      :      0.13s CPU      0.14s WALL (       1 calls)

     Called by electrons:
     c_bands      :      2.81s CPU      3.08s WALL (      27 calls)
     sum_band     :      1.92s CPU      1.96s WALL (      27 calls)
     v_of_rho     :      1.74s CPU      1.77s WALL (      28 calls)
     newd         :      0.82s CPU      0.84s WALL (      28 calls)
     PAW_pot      :      0.24s CPU      0.26s WALL (      28 calls)
     mix_rho      :      1.18s CPU      2.13s WALL (      27 calls)

     Called by c_bands:
     init_us_2    :      0.08s CPU      0.08s WALL (      55 calls)
     cegterg      :      2.73s CPU      2.76s WALL (      27 calls)

     Called by sum_band:
     sum_band:bec :      0.00s CPU      0.00s WALL (      27 calls)
     addusdens    :      1.03s CPU      1.04s WALL (      27 calls)

     Called by *egterg:
     h_psi        :      2.54s CPU      2.57s WALL (     107 calls)
     s_psi        :      0.02s CPU      0.02s WALL (     107 calls)
     g_psi        :      0.01s CPU      0.01s WALL (      79 calls)
     cdiaghg      :      0.02s CPU      0.03s WALL (     106 calls)

     Called by h_psi:
     h_psi:pot    :      2.52s CPU      2.55s WALL (     107 calls)
     h_psi:calbec :      0.09s CPU      0.09s WALL (     107 calls)
     vloc_psi     :      2.41s CPU      2.44s WALL (     107 calls)
     add_vuspsi   :      0.02s CPU      0.02s WALL (     107 calls)

     General routines
     calbec       :      0.10s CPU      0.11s WALL (     134 calls)
     fft          :      1.48s CPU      1.52s WALL (     363 calls)
     fftw         :      2.52s CPU      2.56s WALL (    1276 calls)
     davcio       :      0.15s CPU      0.93s WALL (     447 calls)
 
     Parallel routines
     fft_scatt_xy :      0.49s CPU      0.50s WALL (    1639 calls)
     fft_scatt_yz :      1.27s CPU      1.32s WALL (    1639 calls)
 
     PWSCF        :    10.33s CPU        12.33s WALL

 
   This run was terminated on:  14:21:32  18May2018            

=------------------------------------------------------------------------------=
   JOB DONE.
=------------------------------------------------------------------------------=
