
     Program PWSCF v.6.2 (svn rev. 14038) starts on 18May2018 at 14:14: 0 

     This program is part of the open-source Quantum ESPRESSO suite
     for quantum simulation of materials; please cite
         "P. Giannozzi et al., J. Phys.:Condens. Matter 21 395502 (2009);
         "P. Giannozzi et al., J. Phys.:Condens. Matter 29 465901 (2017);
          URL http://www.quantum-espresso.org", 
     in publications or presentations arising from this work. More details at
     http://www.quantum-espresso.org/quote

     Parallel version (MPI), running on    28 processors

     MPI processes distributed on     1 nodes
     R & G space division:  proc/nbgrp/npool/nimage =      28
     Reading input from ../ecut2-90/5500.in
Warning: card &IONS ignored
Warning: card     POT_EXTRAPOLATION='SECOND-ORDER' ignored
Warning: card     WFC_EXTRAPOLATION='SECOND-ORDER' ignored
Warning: card     ION_TEMPERATURE = 'ANDERSEN' ignored
Warning: card / ignored

     Current dimensions of program PWSCF are:
     Max number of different atomic species (ntypx) = 10
     Max number of k-points (npk) =  40000
     Max angular momentum in pseudopotentials (lmaxx) =  3
               file H.pbe-kjpaw_psl.1.0.0.UPF: wavefunction(s)  1S renormalized
               file O.pbe-n-kjpaw_psl.1.0.0.UPF: wavefunction(s)  2S 2P renormalized

     Subspace diagonalization in iterative solution of the eigenvalue problem:
     a serial algorithm will be used

 
     Parallelization info
     --------------------
     sticks:   dense  smooth     PW     G-vecs:    dense   smooth      PW
     Min         408     408    102                32936    32936    4116
     Max         409     409    103                32943    32943    4121
     Sum       11449   11449   2869               922329   922329  115313
 


     bravais-lattice index     =            1
     lattice parameter (alat)  =      20.0000  a.u.
     unit-cell volume          =    8000.0000 (a.u.)^3
     number of atoms/cell      =            3
     number of atomic types    =            2
     number of electrons       =         8.00
     number of Kohn-Sham states=            8
     kinetic-energy cutoff     =      90.0000  Ry
     charge density cutoff     =     360.0000  Ry
     convergence threshold     =      1.0E-08
     mixing beta               =       0.7000
     number of iterations used =            8  plain     mixing
     Exchange-correlation      = SLA PW PBX PBC ( 1  4  3  4 0 0)

     celldm(1)=  20.000000  celldm(2)=   0.000000  celldm(3)=   0.000000
     celldm(4)=   0.000000  celldm(5)=   0.000000  celldm(6)=   0.000000

     crystal axes: (cart. coord. in units of alat)
               a(1) = (   1.000000   0.000000   0.000000 )  
               a(2) = (   0.000000   1.000000   0.000000 )  
               a(3) = (   0.000000   0.000000   1.000000 )  

     reciprocal axes: (cart. coord. in units 2 pi/alat)
               b(1) = (  1.000000  0.000000  0.000000 )  
               b(2) = (  0.000000  1.000000  0.000000 )  
               b(3) = (  0.000000  0.000000  1.000000 )  


     PseudoPot. # 1 for H  read from file:
     ../pslibrary/pbe/PSEUDOPOTENTIALS/H.pbe-kjpaw_psl.1.0.0.UPF
     MD5 check sum: e77ef4e89cfa2d6a63e4c80bb1a147aa
     Pseudo is Projector augmented-wave, Zval =  1.0
     Generated using "atomic" code by A. Dal Corso v.6.2 svn rev. 14038
     Shape of augmentation charge: PSQ
     Using radial grid of  929 points,  2 beta functions with: 
                l(1) =   0
                l(2) =   0
     Q(r) pseudized with 0 coefficients 


     PseudoPot. # 2 for O  read from file:
     ../pslibrary/pbe/PSEUDOPOTENTIALS/O.pbe-n-kjpaw_psl.1.0.0.UPF
     MD5 check sum: bb09017f9a02654af35f7312a94eda3e
     Pseudo is Projector augmented-wave + core cor, Zval =  6.0
     Generated using "atomic" code by A. Dal Corso v.6.2 svn rev. 14038
     Shape of augmentation charge: PSQ
     Using radial grid of 1095 points,  4 beta functions with: 
                l(1) =   0
                l(2) =   0
                l(3) =   1
                l(4) =   1
     Q(r) pseudized with 0 coefficients 


     atomic species   valence    mass     pseudopotential
        H              1.00     1.01000     H ( 1.00)
        O              6.00    16.00000     O ( 1.00)

     No symmetry found



   Cartesian axes

     site n.     atom                  positions (alat units)
         1           O   tau(   1) = (   0.0025643   0.0006510   0.0125866  )
         2           H   tau(   2) = (   0.0351142  -0.0521297  -0.1032954  )
         3           H   tau(   3) = (  -0.0757367   0.0418167  -0.0077318  )

     number of k points=     1  Marzari-Vanderbilt smearing, width (Ry)=  0.0250
                       cart. coord. in units 2pi/alat
        k(    1) = (   0.0000000   0.0000000   0.0000000), wk =   2.0000000

     Dense  grid:   922329 G-vectors     FFT dimensions: ( 125, 125, 125)

     Estimated max dynamical RAM per process >      38.67 MB

     Estimated total dynamical RAM >       1.06 GB

     Initial potential from superposition of free atoms
     Check: negative starting charge=   -0.001600

     starting charge    7.99998, renormalised to    8.00000

     negative rho (up, down):  1.600E-03 0.000E+00
     Starting wfc are    6 randomized atomic wfcs +    2 random wfc
     Checking if some PAW data can be deallocated... 

     total cpu time spent up to now is        1.8 secs

     Self-consistent Calculation

     iteration #  1     ecut=    90.00 Ry     beta= 0.70
     Davidson diagonalization with overlap
     ethr =  1.00E-02,  avg # of iterations =  6.0

     negative rho (up, down):  2.388E-03 0.000E+00

     total cpu time spent up to now is        2.3 secs

     total energy              =     -43.65096845 Ry
     Harris-Foulkes estimate   =     -44.03793573 Ry
     estimated scf accuracy    <       0.51629239 Ry

     iteration #  2     ecut=    90.00 Ry     beta= 0.70
     Davidson diagonalization with overlap
     ethr =  6.45E-03,  avg # of iterations =  3.0

     negative rho (up, down):  1.832E-03 0.000E+00

     total cpu time spent up to now is        2.7 secs

     total energy              =     -43.63410505 Ry
     Harris-Foulkes estimate   =     -44.18269105 Ry
     estimated scf accuracy    <       1.43405192 Ry

     iteration #  3     ecut=    90.00 Ry     beta= 0.70
     Davidson diagonalization with overlap
     ethr =  6.45E-03,  avg # of iterations =  1.0

     negative rho (up, down):  1.338E-03 0.000E+00

     total cpu time spent up to now is        3.0 secs

     total energy              =     -43.79577741 Ry
     Harris-Foulkes estimate   =     -43.81362827 Ry
     estimated scf accuracy    <       0.07734096 Ry

     iteration #  4     ecut=    90.00 Ry     beta= 0.70
     Davidson diagonalization with overlap
     ethr =  9.67E-04,  avg # of iterations =  4.0

     negative rho (up, down):  1.563E-03 0.000E+00

     total cpu time spent up to now is        3.3 secs

     total energy              =     -43.90191295 Ry
     Harris-Foulkes estimate   =     -43.91299506 Ry
     estimated scf accuracy    <       0.04386590 Ry

     iteration #  5     ecut=    90.00 Ry     beta= 0.70
     Davidson diagonalization with overlap
     ethr =  5.48E-04,  avg # of iterations =  1.0

     negative rho (up, down):  1.676E-03 0.000E+00

     total cpu time spent up to now is        3.6 secs

     total energy              =     -43.90118484 Ry
     Harris-Foulkes estimate   =     -43.90330247 Ry
     estimated scf accuracy    <       0.01467810 Ry

     iteration #  6     ecut=    90.00 Ry     beta= 0.70
     Davidson diagonalization with overlap
     ethr =  1.83E-04,  avg # of iterations =  4.0

     negative rho (up, down):  1.705E-03 0.000E+00

     total cpu time spent up to now is        4.0 secs

     total energy              =     -43.90159486 Ry
     Harris-Foulkes estimate   =     -43.90188075 Ry
     estimated scf accuracy    <       0.00744583 Ry

     iteration #  7     ecut=    90.00 Ry     beta= 0.70
     Davidson diagonalization with overlap
     ethr =  9.31E-05,  avg # of iterations =  5.0

     negative rho (up, down):  1.763E-03 0.000E+00

     total cpu time spent up to now is        4.4 secs

     total energy              =     -43.90225529 Ry
     Harris-Foulkes estimate   =     -43.90239129 Ry
     estimated scf accuracy    <       0.00315637 Ry

     iteration #  8     ecut=    90.00 Ry     beta= 0.70
     Davidson diagonalization with overlap
     ethr =  3.95E-05,  avg # of iterations =  1.0

     negative rho (up, down):  1.809E-03 0.000E+00

     total cpu time spent up to now is        4.7 secs

     total energy              =     -43.90225681 Ry
     Harris-Foulkes estimate   =     -43.90229954 Ry
     estimated scf accuracy    <       0.00253317 Ry

     iteration #  9     ecut=    90.00 Ry     beta= 0.70
     Davidson diagonalization with overlap
     ethr =  3.17E-05,  avg # of iterations =  1.0

     negative rho (up, down):  2.032E-03 0.000E+00

     total cpu time spent up to now is        5.1 secs

     total energy              =     -43.90206121 Ry
     Harris-Foulkes estimate   =     -43.90226756 Ry
     estimated scf accuracy    <       0.00230409 Ry

     iteration # 10     ecut=    90.00 Ry     beta= 0.70
     Davidson diagonalization with overlap
     ethr =  2.88E-05,  avg # of iterations =  1.0

     negative rho (up, down):  2.283E-03 0.000E+00

     total cpu time spent up to now is        5.4 secs

     total energy              =     -43.90178800 Ry
     Harris-Foulkes estimate   =     -43.90208255 Ry
     estimated scf accuracy    <       0.00158972 Ry

     iteration # 11     ecut=    90.00 Ry     beta= 0.70
     Davidson diagonalization with overlap
     ethr =  1.99E-05,  avg # of iterations =  1.0

     negative rho (up, down):  2.320E-03 0.000E+00

     total cpu time spent up to now is        5.8 secs

     total energy              =     -43.90180693 Ry
     Harris-Foulkes estimate   =     -43.90186229 Ry
     estimated scf accuracy    <       0.00049426 Ry

     iteration # 12     ecut=    90.00 Ry     beta= 0.70
     Davidson diagonalization with overlap
     ethr =  6.18E-06,  avg # of iterations =  1.0

     negative rho (up, down):  2.307E-03 0.000E+00

     total cpu time spent up to now is        6.1 secs

     total energy              =     -43.90181214 Ry
     Harris-Foulkes estimate   =     -43.90182768 Ry
     estimated scf accuracy    <       0.00027826 Ry

     iteration # 13     ecut=    90.00 Ry     beta= 0.70
     Davidson diagonalization with overlap
     ethr =  3.48E-06,  avg # of iterations =  1.0

     negative rho (up, down):  2.305E-03 0.000E+00

     total cpu time spent up to now is        6.5 secs

     total energy              =     -43.90181067 Ry
     Harris-Foulkes estimate   =     -43.90181574 Ry
     estimated scf accuracy    <       0.00021234 Ry

     iteration # 14     ecut=    90.00 Ry     beta= 0.70
     Davidson diagonalization with overlap
     ethr =  2.65E-06,  avg # of iterations =  1.0

     negative rho (up, down):  2.295E-03 0.000E+00

     total cpu time spent up to now is        6.8 secs

     total energy              =     -43.90179455 Ry
     Harris-Foulkes estimate   =     -43.90181231 Ry
     estimated scf accuracy    <       0.00019383 Ry

     iteration # 15     ecut=    90.00 Ry     beta= 0.70
     Davidson diagonalization with overlap
     ethr =  2.42E-06,  avg # of iterations = 19.0

     negative rho (up, down):  2.262E-03 0.000E+00

     total cpu time spent up to now is        7.3 secs

     total energy              =     -43.90175540 Ry
     Harris-Foulkes estimate   =     -43.90180066 Ry
     estimated scf accuracy    <       0.00011191 Ry

     iteration # 16     ecut=    90.00 Ry     beta= 0.70
     Davidson diagonalization with overlap
     ethr =  1.40E-06,  avg # of iterations =  5.0

     negative rho (up, down):  2.277E-03 0.000E+00

     total cpu time spent up to now is        7.7 secs

     total energy              =     -43.89769999 Ry
     Harris-Foulkes estimate   =     -43.89770081 Ry
     estimated scf accuracy    <       0.00000672 Ry

     iteration # 17     ecut=    90.00 Ry     beta= 0.70
     Davidson diagonalization with overlap
     ethr =  8.40E-08,  avg # of iterations =  4.0

     negative rho (up, down):  2.273E-03 0.000E+00

     total cpu time spent up to now is        8.1 secs

     total energy              =     -43.89770422 Ry
     Harris-Foulkes estimate   =     -43.89770605 Ry
     estimated scf accuracy    <       0.00000586 Ry

     iteration # 18     ecut=    90.00 Ry     beta= 0.70
     Davidson diagonalization with overlap
     ethr =  7.33E-08,  avg # of iterations =  2.0

     negative rho (up, down):  2.266E-03 0.000E+00

     total cpu time spent up to now is        8.4 secs

     total energy              =     -43.89770415 Ry
     Harris-Foulkes estimate   =     -43.89770457 Ry
     estimated scf accuracy    <       0.00000273 Ry

     iteration # 19     ecut=    90.00 Ry     beta= 0.70
     Davidson diagonalization with overlap
     ethr =  3.41E-08,  avg # of iterations =  1.0

     negative rho (up, down):  2.265E-03 0.000E+00

     total cpu time spent up to now is        8.8 secs

     total energy              =     -43.89770404 Ry
     Harris-Foulkes estimate   =     -43.89770426 Ry
     estimated scf accuracy    <       0.00000135 Ry

     iteration # 20     ecut=    90.00 Ry     beta= 0.70
     Davidson diagonalization with overlap
     ethr =  1.69E-08,  avg # of iterations =  2.0

     negative rho (up, down):  2.264E-03 0.000E+00

     total cpu time spent up to now is        9.1 secs

     total energy              =     -43.89770407 Ry
     Harris-Foulkes estimate   =     -43.89770415 Ry
     estimated scf accuracy    <       0.00000044 Ry

     iteration # 21     ecut=    90.00 Ry     beta= 0.70
     Davidson diagonalization with overlap
     ethr =  5.55E-09,  avg # of iterations =  3.0

     negative rho (up, down):  2.264E-03 0.000E+00

     total cpu time spent up to now is        9.5 secs

     total energy              =     -43.89770413 Ry
     Harris-Foulkes estimate   =     -43.89770414 Ry
     estimated scf accuracy    <       0.00000007 Ry

     iteration # 22     ecut=    90.00 Ry     beta= 0.70
     Davidson diagonalization with overlap
     ethr =  9.37E-10,  avg # of iterations =  3.0

     negative rho (up, down):  2.264E-03 0.000E+00

     total cpu time spent up to now is        9.8 secs

     total energy              =     -43.89770414 Ry
     Harris-Foulkes estimate   =     -43.89770414 Ry
     estimated scf accuracy    <       0.00000001 Ry

     iteration # 23     ecut=    90.00 Ry     beta= 0.70
     Davidson diagonalization with overlap
     ethr =  1.87E-10,  avg # of iterations =  4.0

     negative rho (up, down):  2.263E-03 0.000E+00

     total cpu time spent up to now is       10.1 secs

     End of self-consistent calculation

          k = 0.0000 0.0000 0.0000 (115313 PWs)   bands (ev):

   -24.0450 -11.3324  -9.0258  -6.8402  -2.7440  -0.2444   0.4373   0.9174

     the Fermi energy is    -6.5268 ev

!    total energy              =     -43.89770414 Ry
     Harris-Foulkes estimate   =     -43.89770414 Ry
     estimated scf accuracy    <          9.0E-09 Ry

     total all-electron energy =      -152.744586 Ry

     The total energy is the sum of the following terms:

     one-electron contribution =     -60.35294969 Ry
     hartree contribution      =      31.92657219 Ry
     xc contribution           =      -8.59339527 Ry
     ewald contribution        =       2.70945129 Ry
     one-center paw contrib.   =      -9.59146014 Ry
     smearing contrib. (-TS)   =       0.00407747 Ry

     convergence has been achieved in  23 iterations

     Writing output data file pwscf.save
 
     init_run     :      0.86s CPU      0.97s WALL (       1 calls)
     electrons    :      7.44s CPU      8.36s WALL (       1 calls)

     Called by init_run:
     wfcinit      :      0.26s CPU      0.33s WALL (       1 calls)
     potinit      :      0.12s CPU      0.13s WALL (       1 calls)

     Called by electrons:
     c_bands      :      2.37s CPU      2.42s WALL (      23 calls)
     sum_band     :      1.64s CPU      1.66s WALL (      23 calls)
     v_of_rho     :      1.48s CPU      1.52s WALL (      24 calls)
     newd         :      0.70s CPU      0.72s WALL (      24 calls)
     PAW_pot      :      0.20s CPU      0.22s WALL (      24 calls)
     mix_rho      :      0.99s CPU      1.67s WALL (      23 calls)

     Called by c_bands:
     init_us_2    :      0.06s CPU      0.07s WALL (      47 calls)
     cegterg      :      2.31s CPU      2.34s WALL (      23 calls)

     Called by sum_band:
     sum_band:bec :      0.00s CPU      0.00s WALL (      23 calls)
     addusdens    :      0.88s CPU      0.89s WALL (      23 calls)

     Called by *egterg:
     h_psi        :      2.29s CPU      2.33s WALL (      98 calls)
     s_psi        :      0.01s CPU      0.01s WALL (      98 calls)
     g_psi        :      0.01s CPU      0.01s WALL (      74 calls)
     cdiaghg      :      0.02s CPU      0.02s WALL (      97 calls)

     Called by h_psi:
     h_psi:pot    :      2.28s CPU      2.32s WALL (      98 calls)
     h_psi:calbec :      0.06s CPU      0.06s WALL (      98 calls)
     vloc_psi     :      2.20s CPU      2.24s WALL (      98 calls)
     add_vuspsi   :      0.02s CPU      0.02s WALL (      98 calls)

     General routines
     calbec       :      0.08s CPU      0.08s WALL (     121 calls)
     fft          :      1.30s CPU      1.33s WALL (     311 calls)
     fftw         :      2.30s CPU      2.34s WALL (    1092 calls)
     davcio       :      0.15s CPU      0.72s WALL (     367 calls)
 
     Parallel routines
     fft_scatt_xy :      0.44s CPU      0.44s WALL (    1403 calls)
     fft_scatt_yz :      1.18s CPU      1.23s WALL (    1403 calls)
 
     PWSCF        :     9.06s CPU        10.52s WALL

 
   This run was terminated on:  14:14:10  18May2018            

=------------------------------------------------------------------------------=
   JOB DONE.
=------------------------------------------------------------------------------=
