
     Program PWSCF v.6.0 (svn rev. 13079) starts on 11Feb2018 at  2: 7:39 

     This program is part of the open-source Quantum ESPRESSO suite
     for quantum simulation of materials; please cite
         "P. Giannozzi et al., J. Phys.:Condens. Matter 21 395502 (2009);
          URL http://www.quantum-espresso.org", 
     in publications or presentations arising from this work. More details at
     http://www.quantum-espresso.org/quote

     Parallel version (MPI), running on    28 processors
     R & G space division:  proc/nbgrp/npool/nimage =      28
     Reading input from inputs/water-1-md/447.in

     Current dimensions of program PWSCF are:
     Max number of different atomic species (ntypx) = 10
     Max number of k-points (npk) =  40000
     Max angular momentum in pseudopotentials (lmaxx) =  3

     Subspace diagonalization in iterative solution of the eigenvalue problem:
     a serial algorithm will be used

 
     Parallelization info
     --------------------
     sticks:   dense  smooth     PW     G-vecs:    dense   smooth      PW
     Min         136     136     33                 6338     6338     787
     Max         137     137     34                 6341     6341     792
     Sum        3809    3809    949               177509   177509   22119
 


     bravais-lattice index     =            1
     lattice parameter (alat)  =      20.0000  a.u.
     unit-cell volume          =    8000.0000 (a.u.)^3
     number of atoms/cell      =            3
     number of atomic types    =            2
     number of electrons       =         8.00
     number of Kohn-Sham states=            8
     kinetic-energy cutoff     =      30.0000  Ry
     charge density cutoff     =     120.0000  Ry
     convergence threshold     =      1.0E-08
     mixing beta               =       0.7000
     number of iterations used =            8  plain     mixing
     Exchange-correlation      = BLYP ( 1  3  1  3 0 0)
     nstep                     =         5000


     celldm(1)=  20.000000  celldm(2)=   0.000000  celldm(3)=   0.000000
     celldm(4)=   0.000000  celldm(5)=   0.000000  celldm(6)=   0.000000

     crystal axes: (cart. coord. in units of alat)
               a(1) = (   1.000000   0.000000   0.000000 )  
               a(2) = (   0.000000   1.000000   0.000000 )  
               a(3) = (   0.000000   0.000000   1.000000 )  

     reciprocal axes: (cart. coord. in units 2 pi/alat)
               b(1) = (  1.000000  0.000000  0.000000 )  
               b(2) = (  0.000000  1.000000  0.000000 )  
               b(3) = (  0.000000  0.000000  1.000000 )  


     PseudoPot. # 1 for  H read from file:
     ./H.blyp-hgh.UPF
     MD5 check sum: c576e69559cde411e611be972c763230
     Pseudo is Norm-conserving, Zval =  1.0
     Generated in analytical, separable form
     Using radial grid of  929 points,  0 beta functions with: 

     PseudoPot. # 2 for  O read from file:
     ./O.blyp-hgh.UPF
     MD5 check sum: d0b7156309aa9befef28faac7bc56342
     Pseudo is Norm-conserving, Zval =  6.0
     Generated in analytical, separable form
     Using radial grid of 1095 points,  1 beta functions with: 
                l(1) =   0

     atomic species   valence    mass     pseudopotential
        H              1.00     1.01000      H( 1.00)
        O              6.00    16.00000      O( 1.00)

     No symmetry found



   Cartesian axes

     site n.     atom                  positions (alat units)
         1           H   tau(   1) = (   0.2788601   0.5711482   0.3184312  )
         2           H   tau(   2) = (   0.1372673   0.6374530   0.3955878  )
         3           O   tau(   3) = (   0.9206228   0.3737925   0.0238739  )

     number of k points=     1  Marzari-Vanderbilt smearing, width (Ry)=  0.0250
                       cart. coord. in units 2pi/alat
        k(    1) = (   0.0000000   0.0000000   0.0000000), wk =   2.0000000

     Dense  grid:   177509 G-vectors     FFT dimensions: (  72,  72,  72)

     Estimated max dynamical RAM per process >       6.09Mb

     Estimated total allocated dynamical RAM >     170.64Mb

     Initial potential from superposition of free atoms
     Check: negative starting charge=   -0.358427

     starting charge    7.99998, renormalised to    8.00000

     negative rho (up, down):  3.584E-01 0.000E+00
     Starting wfc are    6 randomized atomic wfcs +    2 random wfc

     total cpu time spent up to now is        0.2 secs

     per-process dynamical memory:    18.8 Mb

     Self-consistent Calculation

     iteration #  1     ecut=    30.00 Ry     beta=0.70
     Davidson diagonalization with overlap
     ethr =  1.00E-02,  avg # of iterations =  7.0

     negative rho (up, down):  8.978E-02 0.000E+00

     total cpu time spent up to now is        0.3 secs

     total energy              =     -30.81296659 Ry
     Harris-Foulkes estimate   =     -32.04343209 Ry
     estimated scf accuracy    <       1.28986492 Ry

     iteration #  2     ecut=    30.00 Ry     beta=0.70
     Davidson diagonalization with overlap
     ethr =  1.00E-02,  avg # of iterations =  4.0

     negative rho (up, down):  7.103E-02 0.000E+00

     total cpu time spent up to now is        0.3 secs

     total energy              =     -31.38828647 Ry
     Harris-Foulkes estimate   =     -33.69454285 Ry
     estimated scf accuracy    <       6.95921155 Ry

     iteration #  3     ecut=    30.00 Ry     beta=0.70
     Davidson diagonalization with overlap
     ethr =  1.00E-02,  avg # of iterations =  2.0

     negative rho (up, down):  1.996E-02 0.000E+00

     total cpu time spent up to now is        0.3 secs

     total energy              =     -31.62032885 Ry
     Harris-Foulkes estimate   =     -31.59090623 Ry
     estimated scf accuracy    <       0.03719444 Ry

     iteration #  4     ecut=    30.00 Ry     beta=0.70
     Davidson diagonalization with overlap
     ethr =  4.65E-04,  avg # of iterations =  4.0

     negative rho (up, down):  2.952E-03 0.000E+00

     total cpu time spent up to now is        0.4 secs

     total energy              =     -31.27171755 Ry
     Harris-Foulkes estimate   =     -31.66781773 Ry
     estimated scf accuracy    <       2.27385833 Ry

     iteration #  5     ecut=    30.00 Ry     beta=0.70
     Davidson diagonalization with overlap
     ethr =  4.65E-04,  avg # of iterations =  4.0

     negative rho (up, down):  2.760E-04 0.000E+00

     total cpu time spent up to now is        0.4 secs

     total energy              =     -31.56400538 Ry
     Harris-Foulkes estimate   =     -31.72004795 Ry
     estimated scf accuracy    <       2.47388159 Ry

     iteration #  6     ecut=    30.00 Ry     beta=0.70
     Davidson diagonalization with overlap
     ethr =  4.65E-04,  avg # of iterations =  1.0

     negative rho (up, down):  1.395E-04 0.000E+00

     total cpu time spent up to now is        0.4 secs

     total energy              =     -31.67414382 Ry
     Harris-Foulkes estimate   =     -31.67140812 Ry
     estimated scf accuracy    <       0.03442077 Ry

     iteration #  7     ecut=    30.00 Ry     beta=0.70
     Davidson diagonalization with overlap
     ethr =  4.30E-04,  avg # of iterations =  1.0

     negative rho (up, down):  2.660E-06 0.000E+00

     total cpu time spent up to now is        0.5 secs

     total energy              =     -31.66470664 Ry
     Harris-Foulkes estimate   =     -31.67425921 Ry
     estimated scf accuracy    <       0.04100772 Ry

     iteration #  8     ecut=    30.00 Ry     beta=0.70
     Davidson diagonalization with overlap
     ethr =  4.30E-04,  avg # of iterations =  1.0

     negative rho (up, down):  1.869E-06 0.000E+00

     total cpu time spent up to now is        0.5 secs

     total energy              =     -31.66393619 Ry
     Harris-Foulkes estimate   =     -31.66517026 Ry
     estimated scf accuracy    <       0.02323053 Ry

     iteration #  9     ecut=    30.00 Ry     beta=0.70
     Davidson diagonalization with overlap
     ethr =  2.90E-04,  avg # of iterations =  1.0

     negative rho (up, down):  3.321E-06 0.000E+00

     total cpu time spent up to now is        0.5 secs

     total energy              =     -31.66347757 Ry
     Harris-Foulkes estimate   =     -31.66396372 Ry
     estimated scf accuracy    <       0.02136685 Ry

     iteration # 10     ecut=    30.00 Ry     beta=0.70
     Davidson diagonalization with overlap
     ethr =  2.67E-04,  avg # of iterations =  1.0

     negative rho (up, down):  2.717E-06 0.000E+00

     total cpu time spent up to now is        0.6 secs

     total energy              =     -31.66289078 Ry
     Harris-Foulkes estimate   =     -31.66348347 Ry
     estimated scf accuracy    <       0.02053065 Ry

     iteration # 11     ecut=    30.00 Ry     beta=0.70
     Davidson diagonalization with overlap
     ethr =  2.57E-04,  avg # of iterations =  1.0

     negative rho (up, down):  1.934E-06 0.000E+00

     total cpu time spent up to now is        0.6 secs

     total energy              =     -31.66225255 Ry
     Harris-Foulkes estimate   =     -31.66289428 Ry
     estimated scf accuracy    <       0.01955987 Ry

     iteration # 12     ecut=    30.00 Ry     beta=0.70
     Davidson diagonalization with overlap
     ethr =  2.44E-04,  avg # of iterations =  1.0

     negative rho (up, down):  5.954E-06 0.000E+00

     total cpu time spent up to now is        0.6 secs

     total energy              =     -31.65299429 Ry
     Harris-Foulkes estimate   =     -31.66225494 Ry
     estimated scf accuracy    <       0.01857593 Ry

     iteration # 13     ecut=    30.00 Ry     beta=0.70
     Davidson diagonalization with overlap
     ethr =  2.32E-04,  avg # of iterations =  1.0

     negative rho (up, down):  9.012E-07 0.000E+00

     total cpu time spent up to now is        0.7 secs

     total energy              =     -31.64845479 Ry
     Harris-Foulkes estimate   =     -31.64955662 Ry
     estimated scf accuracy    <       0.01492704 Ry

     iteration # 14     ecut=    30.00 Ry     beta=0.70
     Davidson diagonalization with overlap
     ethr =  1.87E-04,  avg # of iterations =  1.0

     negative rho (up, down):  2.861E-06 0.000E+00

     total cpu time spent up to now is        0.7 secs

     total energy              =     -31.64146210 Ry
     Harris-Foulkes estimate   =     -31.64949898 Ry
     estimated scf accuracy    <       0.01480367 Ry

     iteration # 15     ecut=    30.00 Ry     beta=0.70
     Davidson diagonalization with overlap
     ethr =  1.85E-04,  avg # of iterations =  1.0

     total cpu time spent up to now is        0.7 secs

     total energy              =     -31.65900985 Ry
     Harris-Foulkes estimate   =     -31.66100504 Ry
     estimated scf accuracy    <       0.01655266 Ry

     iteration # 16     ecut=    30.00 Ry     beta=0.70
     Davidson diagonalization with overlap
     ethr =  1.85E-04,  avg # of iterations =  1.0

     total cpu time spent up to now is        0.8 secs

     total energy              =     -31.65811662 Ry
     Harris-Foulkes estimate   =     -31.65903208 Ry
     estimated scf accuracy    <       0.01410933 Ry

     iteration # 17     ecut=    30.00 Ry     beta=0.70
     Davidson diagonalization with overlap
     ethr =  1.76E-04,  avg # of iterations =  1.0

     total cpu time spent up to now is        0.8 secs

     total energy              =     -31.65711102 Ry
     Harris-Foulkes estimate   =     -31.65811385 Ry
     estimated scf accuracy    <       0.01348535 Ry

     iteration # 18     ecut=    30.00 Ry     beta=0.70
     Davidson diagonalization with overlap
     ethr =  1.69E-04,  avg # of iterations =  1.0

     total cpu time spent up to now is        0.8 secs

     total energy              =     -31.65570377 Ry
     Harris-Foulkes estimate   =     -31.65707077 Ry
     estimated scf accuracy    <       0.01495777 Ry

     iteration # 19     ecut=    30.00 Ry     beta=0.70
     Davidson diagonalization with overlap
     ethr =  1.69E-04,  avg # of iterations =  1.0

     negative rho (up, down):  1.628E-08 0.000E+00

     total cpu time spent up to now is        0.9 secs

     total energy              =     -31.65131406 Ry
     Harris-Foulkes estimate   =     -31.65549270 Ry
     estimated scf accuracy    <       0.02525289 Ry

     iteration # 20     ecut=    30.00 Ry     beta=0.70
     Davidson diagonalization with overlap
     ethr =  1.69E-04,  avg # of iterations =  1.0

     negative rho (up, down):  1.221E-08 0.000E+00

     total cpu time spent up to now is        0.9 secs

     total energy              =     -31.64888240 Ry
     Harris-Foulkes estimate   =     -31.64980352 Ry
     estimated scf accuracy    <       0.02211689 Ry

     iteration # 21     ecut=    30.00 Ry     beta=0.70
     Davidson diagonalization with overlap
     ethr =  1.69E-04,  avg # of iterations =  1.0

     total cpu time spent up to now is        0.9 secs

     total energy              =     -31.64946833 Ry
     Harris-Foulkes estimate   =     -31.64926566 Ry
     estimated scf accuracy    <       0.00019173 Ry

     iteration # 22     ecut=    30.00 Ry     beta=0.70
     Davidson diagonalization with overlap
     ethr =  2.40E-06,  avg # of iterations = 11.0

     total cpu time spent up to now is        1.0 secs

     total energy              =     -31.65351732 Ry
     Harris-Foulkes estimate   =     -31.65082999 Ry
     estimated scf accuracy    <       0.04635466 Ry

     iteration # 23     ecut=    30.00 Ry     beta=0.70
     Davidson diagonalization with overlap
     ethr =  2.40E-06,  avg # of iterations =  1.0

     total cpu time spent up to now is        1.0 secs

     total energy              =     -31.64876370 Ry
     Harris-Foulkes estimate   =     -31.65363415 Ry
     estimated scf accuracy    <       0.04612293 Ry

     iteration # 24     ecut=    30.00 Ry     beta=0.70
     Davidson diagonalization with overlap
     ethr =  2.40E-06,  avg # of iterations =  3.0

     total cpu time spent up to now is        1.0 secs

     total energy              =     -31.64916222 Ry
     Harris-Foulkes estimate   =     -31.64927875 Ry
     estimated scf accuracy    <       0.00089130 Ry

     iteration # 25     ecut=    30.00 Ry     beta=0.70
     Davidson diagonalization with overlap
     ethr =  2.40E-06,  avg # of iterations =  1.0

     total cpu time spent up to now is        1.1 secs

     total energy              =     -31.64939824 Ry
     Harris-Foulkes estimate   =     -31.64938126 Ry
     estimated scf accuracy    <       0.00694652 Ry

     iteration # 26     ecut=    30.00 Ry     beta=0.70
     Davidson diagonalization with overlap
     ethr =  2.40E-06,  avg # of iterations =  1.0

     total cpu time spent up to now is        1.1 secs

     total energy              =     -31.64919921 Ry
     Harris-Foulkes estimate   =     -31.64939892 Ry
     estimated scf accuracy    <       0.00800865 Ry

     iteration # 27     ecut=    30.00 Ry     beta=0.70
     Davidson diagonalization with overlap
     ethr =  2.40E-06,  avg # of iterations =  1.0

     total cpu time spent up to now is        1.1 secs

     total energy              =     -31.64933952 Ry
     Harris-Foulkes estimate   =     -31.64927216 Ry
     estimated scf accuracy    <       0.00058284 Ry

     iteration # 28     ecut=    30.00 Ry     beta=0.70
     Davidson diagonalization with overlap
     ethr =  2.40E-06,  avg # of iterations =  1.0

     total cpu time spent up to now is        1.2 secs

     total energy              =     -31.64877806 Ry
     Harris-Foulkes estimate   =     -31.64944263 Ry
     estimated scf accuracy    <       0.01070224 Ry

     iteration # 29     ecut=    30.00 Ry     beta=0.70
     Davidson diagonalization with overlap
     ethr =  2.40E-06,  avg # of iterations =  1.0

     total cpu time spent up to now is        1.2 secs

     total energy              =     -31.64918936 Ry
     Harris-Foulkes estimate   =     -31.64937292 Ry
     estimated scf accuracy    <       0.00533366 Ry

     iteration # 30     ecut=    30.00 Ry     beta=0.70
     Davidson diagonalization with overlap
     ethr =  2.40E-06,  avg # of iterations =  1.0

     total cpu time spent up to now is        1.2 secs

     total energy              =     -31.64927225 Ry
     Harris-Foulkes estimate   =     -31.64926436 Ry
     estimated scf accuracy    <       0.00012457 Ry

     iteration # 31     ecut=    30.00 Ry     beta=0.70
     Davidson diagonalization with overlap
     ethr =  1.56E-06,  avg # of iterations =  1.0

     total cpu time spent up to now is        1.3 secs

     total energy              =     -31.64926132 Ry
     Harris-Foulkes estimate   =     -31.64927814 Ry
     estimated scf accuracy    <       0.00081981 Ry

     iteration # 32     ecut=    30.00 Ry     beta=0.70
     Davidson diagonalization with overlap
     ethr =  1.56E-06,  avg # of iterations =  1.0

     total cpu time spent up to now is        1.3 secs

     total energy              =     -31.64926030 Ry
     Harris-Foulkes estimate   =     -31.64926599 Ry
     estimated scf accuracy    <       0.00016741 Ry

     iteration # 33     ecut=    30.00 Ry     beta=0.70
     Davidson diagonalization with overlap
     ethr =  1.56E-06,  avg # of iterations =  1.0

     total cpu time spent up to now is        1.3 secs

     total energy              =     -31.64926321 Ry
     Harris-Foulkes estimate   =     -31.64926309 Ry
     estimated scf accuracy    <       0.00000045 Ry

     iteration # 34     ecut=    30.00 Ry     beta=0.70
     Davidson diagonalization with overlap
     ethr =  5.67E-09,  avg # of iterations =  1.0

     total cpu time spent up to now is        1.4 secs

     total energy              =     -31.64926385 Ry
     Harris-Foulkes estimate   =     -31.64926325 Ry
     estimated scf accuracy    <       0.00000365 Ry

     iteration # 35     ecut=    30.00 Ry     beta=0.70
     Davidson diagonalization with overlap
     ethr =  5.67E-09,  avg # of iterations =  1.0

     total cpu time spent up to now is        1.4 secs

     End of self-consistent calculation

          k = 0.0000 0.0000 0.0000 ( 22119 PWs)   bands (ev):

   -24.3521  -7.8634  -7.7082  -7.7075  -7.7068  -4.8238  -0.2923   0.5357

     the Fermi energy is    -7.5791 ev

!    total energy              =     -31.64926382 Ry
     Harris-Foulkes estimate   =     -31.64926393 Ry
     estimated scf accuracy    <          4.6E-09 Ry

     convergence has been achieved in  35 iterations

     Forces acting on atoms (Ry/au):

     atom    1 type  1   force =    -0.09084550    0.04247905    0.04963597
     atom    2 type  1   force =     0.08984369   -0.04214733   -0.04875120
     atom    3 type  2   force =     0.00100181   -0.00033172   -0.00088477

     Total force =     0.157315     Total SCF correction =     0.000044

     Molecular Dynamics Calculation

     Starting temperature  =  1000.00 K

     temperature is controlled by Andersen thermostat
     Collision frequency = 1.0000/timestep
     mass H                =     1.01
     mass O                =    16.00
     Time step             =   100.00 a.u.,  4.8378 femto-seconds

     Entering Dynamics:    iteration =     1
                           time      =   0.0048 pico-seconds


     Andersen thermostat:    3 collisions

ATOMIC_POSITIONS (bohr)
H        4.988166845  11.184457337   6.418072018
H        2.929932752  12.624043630   7.859809373
O       18.437986805   7.498797391   0.477635725


     kinetic energy (Ekin) =     0.02045537 Ry
     temperature           =  1076.54787369 K 
     Ekin + Etot (const)   =   -31.62880845 Ry

     Linear momentum :    0.0000000000   -0.0000000000    0.0000000000

     Writing output data file pwscf.save
     Check: negative starting charge=   -0.358427
     NEW-OLD atomic charge density approx. for the potential
     Check: negative starting charge=   -0.359528

     negative rho (up, down):  6.820E-02 0.000E+00

     total cpu time spent up to now is        1.6 secs

     per-process dynamical memory:    20.4 Mb

     Self-consistent Calculation

     iteration #  1     ecut=    30.00 Ry     beta=0.70
     Davidson diagonalization with overlap
     c_bands:  1 eigenvalues not converged
     ethr =  1.00E-06,  avg # of iterations = 20.0

     negative rho (up, down):  1.681E-02 0.000E+00

     total cpu time spent up to now is        1.8 secs

     total energy              =     -31.70981871 Ry
     Harris-Foulkes estimate   =     -31.68101399 Ry
     estimated scf accuracy    <       0.01120543 Ry

     iteration #  2     ecut=    30.00 Ry     beta=0.70
     Davidson diagonalization with overlap
     ethr =  1.40E-04,  avg # of iterations =  3.0

     negative rho (up, down):  1.619E-02 0.000E+00

     total cpu time spent up to now is        1.8 secs

     total energy              =     -31.58271348 Ry
     Harris-Foulkes estimate   =     -31.79048741 Ry
     estimated scf accuracy    <       3.55792227 Ry

     iteration #  3     ecut=    30.00 Ry     beta=0.70
     Davidson diagonalization with overlap
     ethr =  1.40E-04,  avg # of iterations =  2.0

     negative rho (up, down):  2.868E-03 0.000E+00

     total cpu time spent up to now is        1.8 secs

     total energy              =     -31.73007819 Ry
     Harris-Foulkes estimate   =     -31.71730953 Ry
     estimated scf accuracy    <       0.00998821 Ry

     iteration #  4     ecut=    30.00 Ry     beta=0.70
     Davidson diagonalization with overlap
     ethr =  1.25E-04,  avg # of iterations = 10.0

     negative rho (up, down):  1.206E-03 0.000E+00

     total cpu time spent up to now is        1.9 secs

     total energy              =     -31.73115545 Ry
     Harris-Foulkes estimate   =     -31.73014851 Ry
     estimated scf accuracy    <       0.01370865 Ry

     iteration #  5     ecut=    30.00 Ry     beta=0.70
     Davidson diagonalization with overlap
     ethr =  1.25E-04,  avg # of iterations =  4.0

     negative rho (up, down):  2.187E-05 0.000E+00

     total cpu time spent up to now is        1.9 secs

     total energy              =     -31.73049378 Ry
     Harris-Foulkes estimate   =     -31.73117006 Ry
     estimated scf accuracy    <       0.01688530 Ry

     iteration #  6     ecut=    30.00 Ry     beta=0.70
     Davidson diagonalization with overlap
     ethr =  1.25E-04,  avg # of iterations =  3.0

     negative rho (up, down):  2.644E-05 0.000E+00

     total cpu time spent up to now is        1.9 secs

     total energy              =     -31.73121752 Ry
     Harris-Foulkes estimate   =     -31.73035524 Ry
     estimated scf accuracy    <       0.02874873 Ry

     iteration #  7     ecut=    30.00 Ry     beta=0.70
     Davidson diagonalization with overlap
     ethr =  1.25E-04,  avg # of iterations =  1.0

     negative rho (up, down):  2.518E-05 0.000E+00

     total cpu time spent up to now is        2.0 secs

     total energy              =     -31.73058138 Ry
     Harris-Foulkes estimate   =     -31.73113167 Ry
     estimated scf accuracy    <       0.01927161 Ry

     iteration #  8     ecut=    30.00 Ry     beta=0.70
     Davidson diagonalization with overlap
     ethr =  1.25E-04,  avg # of iterations =  1.0

     negative rho (up, down):  2.794E-07 0.000E+00

     total cpu time spent up to now is        2.0 secs

     total energy              =     -31.73859558 Ry
     Harris-Foulkes estimate   =     -31.73053015 Ry
     estimated scf accuracy    <       0.02642736 Ry

     iteration #  9     ecut=    30.00 Ry     beta=0.70
     Davidson diagonalization with overlap
     ethr =  1.25E-04,  avg # of iterations =  1.0

     negative rho (up, down):  2.774E-07 0.000E+00

     total cpu time spent up to now is        2.0 secs

     total energy              =     -31.73415812 Ry
     Harris-Foulkes estimate   =     -31.73525822 Ry
     estimated scf accuracy    <       0.00999829 Ry

     iteration # 10     ecut=    30.00 Ry     beta=0.70
     Davidson diagonalization with overlap
     ethr =  1.25E-04,  avg # of iterations =  1.0

     total cpu time spent up to now is        2.1 secs

     total energy              =     -31.73433310 Ry
     Harris-Foulkes estimate   =     -31.73417006 Ry
     estimated scf accuracy    <       0.00857745 Ry

     iteration # 11     ecut=    30.00 Ry     beta=0.70
     Davidson diagonalization with overlap
     ethr =  1.07E-04,  avg # of iterations =  1.0

     total cpu time spent up to now is        2.1 secs

     total energy              =     -31.73606526 Ry
     Harris-Foulkes estimate   =     -31.73433329 Ry
     estimated scf accuracy    <       0.00868508 Ry

     iteration # 12     ecut=    30.00 Ry     beta=0.70
     Davidson diagonalization with overlap
     ethr =  1.07E-04,  avg # of iterations =  1.0

     total cpu time spent up to now is        2.1 secs

     total energy              =     -31.73518821 Ry
     Harris-Foulkes estimate   =     -31.73608099 Ry
     estimated scf accuracy    <       0.01119141 Ry

     iteration # 13     ecut=    30.00 Ry     beta=0.70
     Davidson diagonalization with overlap
     ethr =  1.07E-04,  avg # of iterations =  1.0

     total cpu time spent up to now is        2.2 secs

     total energy              =     -31.73227972 Ry
     Harris-Foulkes estimate   =     -31.73519427 Ry
     estimated scf accuracy    <       0.00991201 Ry

     iteration # 14     ecut=    30.00 Ry     beta=0.70
     Davidson diagonalization with overlap
     ethr =  1.07E-04,  avg # of iterations =  1.0

     negative rho (up, down):  5.379E-08 0.000E+00

     total cpu time spent up to now is        2.2 secs

     total energy              =     -31.74107285 Ry
     Harris-Foulkes estimate   =     -31.73217093 Ry
     estimated scf accuracy    <       0.01070361 Ry

     iteration # 15     ecut=    30.00 Ry     beta=0.70
     Davidson diagonalization with overlap
     ethr =  1.07E-04,  avg # of iterations =  1.0

     negative rho (up, down):  1.015E-06 0.000E+00

     total cpu time spent up to now is        2.2 secs

     total energy              =     -31.72748415 Ry
     Harris-Foulkes estimate   =     -31.73963455 Ry
     estimated scf accuracy    <       0.01651282 Ry

     iteration # 16     ecut=    30.00 Ry     beta=0.70
     Davidson diagonalization with overlap
     ethr =  1.07E-04,  avg # of iterations =  2.0

     total cpu time spent up to now is        2.3 secs

     total energy              =     -31.67461494 Ry
     Harris-Foulkes estimate   =     -31.73841462 Ry
     estimated scf accuracy    <       0.95876641 Ry

     iteration # 17     ecut=    30.00 Ry     beta=0.70
     Davidson diagonalization with overlap
     ethr =  1.07E-04,  avg # of iterations =  1.0

     total cpu time spent up to now is        2.3 secs

     total energy              =     -31.72920778 Ry
     Harris-Foulkes estimate   =     -31.73208684 Ry
     estimated scf accuracy    <       0.01097214 Ry

     iteration # 18     ecut=    30.00 Ry     beta=0.70
     Davidson diagonalization with overlap
     ethr =  1.07E-04,  avg # of iterations =  1.0

     total cpu time spent up to now is        2.3 secs

     total energy              =     -31.72850203 Ry
     Harris-Foulkes estimate   =     -31.72700391 Ry
     estimated scf accuracy    <       0.03279542 Ry

     iteration # 19     ecut=    30.00 Ry     beta=0.70
     Davidson diagonalization with overlap
     ethr =  1.07E-04,  avg # of iterations =  1.0

     total cpu time spent up to now is        2.4 secs

     total energy              =     -31.72259687 Ry
     Harris-Foulkes estimate   =     -31.72867030 Ry
     estimated scf accuracy    <       0.04422669 Ry

     iteration # 20     ecut=    30.00 Ry     beta=0.70
     Davidson diagonalization with overlap
     ethr =  1.07E-04,  avg # of iterations =  1.0

     total cpu time spent up to now is        2.4 secs

     total energy              =     -31.71714613 Ry
     Harris-Foulkes estimate   =     -31.72829833 Ry
     estimated scf accuracy    <       0.16320843 Ry

     iteration # 21     ecut=    30.00 Ry     beta=0.70
     Davidson diagonalization with overlap
     ethr =  1.07E-04,  avg # of iterations =  1.0

     total cpu time spent up to now is        2.5 secs

     total energy              =     -31.72585584 Ry
     Harris-Foulkes estimate   =     -31.72825760 Ry
     estimated scf accuracy    <       0.04468438 Ry

     iteration # 22     ecut=    30.00 Ry     beta=0.70
     Davidson diagonalization with overlap
     ethr =  1.07E-04,  avg # of iterations =  1.0

     total cpu time spent up to now is        2.5 secs

     total energy              =     -31.72429011 Ry
     Harris-Foulkes estimate   =     -31.72623318 Ry
     estimated scf accuracy    <       0.01060663 Ry

     iteration # 23     ecut=    30.00 Ry     beta=0.70
     Davidson diagonalization with overlap
     ethr =  1.07E-04,  avg # of iterations =  1.0

     total cpu time spent up to now is        2.5 secs

     total energy              =     -31.73275179 Ry
     Harris-Foulkes estimate   =     -31.72988508 Ry
     estimated scf accuracy    <       0.28677550 Ry

     iteration # 24     ecut=    30.00 Ry     beta=0.70
     Davidson diagonalization with overlap
     ethr =  1.07E-04,  avg # of iterations =  1.0

     total cpu time spent up to now is        2.5 secs

     total energy              =     -31.72453692 Ry
     Harris-Foulkes estimate   =     -31.73331062 Ry
     estimated scf accuracy    <       0.55960428 Ry

     iteration # 25     ecut=    30.00 Ry     beta=0.70
     Davidson diagonalization with overlap
     ethr =  1.07E-04,  avg # of iterations =  1.0

     total cpu time spent up to now is        2.6 secs

     total energy              =     -31.73163116 Ry
     Harris-Foulkes estimate   =     -31.72723645 Ry
     estimated scf accuracy    <       0.08386147 Ry

     iteration # 26     ecut=    30.00 Ry     beta=0.70
     Davidson diagonalization with overlap
     ethr =  1.07E-04,  avg # of iterations =  1.0

     total cpu time spent up to now is        2.6 secs

     total energy              =     -31.70956784 Ry
     Harris-Foulkes estimate   =     -31.73587441 Ry
     estimated scf accuracy    <       0.76203203 Ry

     iteration # 27     ecut=    30.00 Ry     beta=0.70
     Davidson diagonalization with overlap
     ethr =  1.07E-04,  avg # of iterations =  1.0

     total cpu time spent up to now is        2.6 secs

     total energy              =     -31.72591286 Ry
     Harris-Foulkes estimate   =     -31.72646233 Ry
     estimated scf accuracy    <       0.01851108 Ry

     iteration # 28     ecut=    30.00 Ry     beta=0.70
     Davidson diagonalization with overlap
     ethr =  1.07E-04,  avg # of iterations =  1.0

     total cpu time spent up to now is        2.7 secs

     total energy              =     -31.72585288 Ry
     Harris-Foulkes estimate   =     -31.72606065 Ry
     estimated scf accuracy    <       0.00331028 Ry

     iteration # 29     ecut=    30.00 Ry     beta=0.70
     Davidson diagonalization with overlap
     ethr =  4.14E-05,  avg # of iterations =  1.0

     total cpu time spent up to now is        2.7 secs

     total energy              =     -31.72609723 Ry
     Harris-Foulkes estimate   =     -31.72601475 Ry
     estimated scf accuracy    <       0.00130318 Ry

     iteration # 30     ecut=    30.00 Ry     beta=0.70
     Davidson diagonalization with overlap
     ethr =  1.63E-05,  avg # of iterations =  1.0

     total cpu time spent up to now is        2.8 secs

     total energy              =     -31.72567026 Ry
     Harris-Foulkes estimate   =     -31.72617030 Ry
     estimated scf accuracy    <       0.01062397 Ry

     iteration # 31     ecut=    30.00 Ry     beta=0.70
     Davidson diagonalization with overlap
     ethr =  1.63E-05,  avg # of iterations =  1.0

     total cpu time spent up to now is        2.8 secs

     total energy              =     -31.72601237 Ry
     Harris-Foulkes estimate   =     -31.72601517 Ry
     estimated scf accuracy    <       0.00115979 Ry

     iteration # 32     ecut=    30.00 Ry     beta=0.70
     Davidson diagonalization with overlap
     ethr =  1.45E-05,  avg # of iterations =  1.0

     total cpu time spent up to now is        2.8 secs

     total energy              =     -31.72598669 Ry
     Harris-Foulkes estimate   =     -31.72601255 Ry
     estimated scf accuracy    <       0.00102349 Ry

     iteration # 33     ecut=    30.00 Ry     beta=0.70
     Davidson diagonalization with overlap
     ethr =  1.28E-05,  avg # of iterations =  1.0

     total cpu time spent up to now is        2.9 secs

     total energy              =     -31.72599494 Ry
     Harris-Foulkes estimate   =     -31.72599470 Ry
     estimated scf accuracy    <       0.00013668 Ry

     iteration # 34     ecut=    30.00 Ry     beta=0.70
     Davidson diagonalization with overlap
     ethr =  1.71E-06,  avg # of iterations =  4.0

     total cpu time spent up to now is        2.9 secs

     total energy              =     -31.72599893 Ry
     Harris-Foulkes estimate   =     -31.72599495 Ry
     estimated scf accuracy    <       0.00014595 Ry

     iteration # 35     ecut=    30.00 Ry     beta=0.70
     Davidson diagonalization with overlap
     ethr =  1.71E-06,  avg # of iterations =  1.0

     total cpu time spent up to now is        2.9 secs

     total energy              =     -31.72594852 Ry
     Harris-Foulkes estimate   =     -31.72600083 Ry
     estimated scf accuracy    <       0.00047977 Ry

     iteration # 36     ecut=    30.00 Ry     beta=0.70
     Davidson diagonalization with overlap
     ethr =  1.71E-06,  avg # of iterations =  1.0

     total cpu time spent up to now is        3.0 secs

     total energy              =     -31.72595944 Ry
     Harris-Foulkes estimate   =     -31.72602792 Ry
     estimated scf accuracy    <       0.00200902 Ry

     iteration # 37     ecut=    30.00 Ry     beta=0.70
     Davidson diagonalization with overlap
     ethr =  1.71E-06,  avg # of iterations =  1.0

     total cpu time spent up to now is        3.0 secs

     total energy              =     -31.72598926 Ry
     Harris-Foulkes estimate   =     -31.72599021 Ry
     estimated scf accuracy    <       0.00001264 Ry

     iteration # 38     ecut=    30.00 Ry     beta=0.70
     Davidson diagonalization with overlap
     ethr =  1.58E-07,  avg # of iterations =  1.0

     total cpu time spent up to now is        3.0 secs

     total energy              =     -31.72598857 Ry
     Harris-Foulkes estimate   =     -31.72598930 Ry
     estimated scf accuracy    <       0.00000826 Ry

     iteration # 39     ecut=    30.00 Ry     beta=0.70
     Davidson diagonalization with overlap
     ethr =  1.03E-07,  avg # of iterations =  1.0

     total cpu time spent up to now is        3.1 secs

     total energy              =     -31.72598860 Ry
     Harris-Foulkes estimate   =     -31.72598871 Ry
     estimated scf accuracy    <       0.00000008 Ry

     iteration # 40     ecut=    30.00 Ry     beta=0.70
     Davidson diagonalization with overlap
     ethr =  9.64E-10,  avg # of iterations =  1.0

     total cpu time spent up to now is        3.1 secs

     total energy              =     -31.72598839 Ry
     Harris-Foulkes estimate   =     -31.72598860 Ry
     estimated scf accuracy    <       0.00000003 Ry

     iteration # 41     ecut=    30.00 Ry     beta=0.70
     Davidson diagonalization with overlap
     ethr =  3.85E-10,  avg # of iterations =  1.0

     total cpu time spent up to now is        3.1 secs

     End of self-consistent calculation

          k = 0.0000 0.0000 0.0000 ( 22119 PWs)   bands (ev):

   -24.6331  -8.1374  -7.9692  -7.9685  -7.9678  -3.5524  -0.3115   0.5720

     the Fermi energy is    -7.8422 ev

!    total energy              =     -31.72598839 Ry
     Harris-Foulkes estimate   =     -31.72598839 Ry
     estimated scf accuracy    <          3.6E-10 Ry

     convergence has been achieved in  41 iterations

     Forces acting on atoms (Ry/au):

     atom    1 type  1   force =    -0.10471312    0.07310007    0.07355179
     atom    2 type  1   force =     0.10397269   -0.07307257   -0.07280985
     atom    3 type  2   force =     0.00074043   -0.00002750   -0.00074194

     Total force =     0.207775     Total SCF correction =     0.000095

     Entering Dynamics:    iteration =     2
                           time      =   0.0097 pico-seconds


     Andersen thermostat:    3 collisions

ATOMIC_POSITIONS (bohr)
H        3.520182253  11.975028152   7.257692123
H        3.762564244  12.028063167   7.091198271
O       18.478093470   7.486513875   0.473153281


     kinetic energy (Ekin) =     0.06621976 Ry
     temperature           =  3485.08705202 K 
     Ekin + Etot (const)   =   -31.65976863 Ry
     Message from routine dynamics:
     Total linear momentum <> 0

     Linear momentum :   -0.0937975753   -0.0500546755    0.0080297367

     Writing output data file pwscf.save

     first order wave-functions extrapolation
     Check: negative starting charge=   -0.359528
     first order charge density extrapolation
     Check: negative starting charge=   -0.364364

     negative rho (up, down):  1.327E-01 0.000E+00

     total cpu time spent up to now is        3.4 secs

     per-process dynamical memory:    20.4 Mb

     Self-consistent Calculation

     iteration #  1     ecut=    30.00 Ry     beta=0.70
     Davidson diagonalization with overlap
     ethr =  1.00E-06,  avg # of iterations =  7.0

     negative rho (up, down):  6.497E-03 0.000E+00

     total cpu time spent up to now is        3.5 secs

     total energy              =     150.01268621 Ry
     Harris-Foulkes estimate   =    -595.71176054 Ry
     estimated scf accuracy    <      63.29055566 Ry

     iteration #  2     ecut=    30.00 Ry     beta=0.70
     Davidson diagonalization with overlap
     ethr =  1.00E-02,  avg # of iterations =  7.0

     negative rho (up, down):  3.987E-03 0.000E+00

     total cpu time spent up to now is        3.6 secs

     total energy              =     -39.66030558 Ry
     Harris-Foulkes estimate   =     -72.55987146 Ry
     estimated scf accuracy    <      62.74384760 Ry

     iteration #  3     ecut=    30.00 Ry     beta=0.70
     Davidson diagonalization with overlap
     ethr =  1.00E-02,  avg # of iterations =  4.0

     negative rho (up, down):  2.446E-03 0.000E+00

     total cpu time spent up to now is        3.6 secs

     total energy              =     -28.96877541 Ry
     Harris-Foulkes estimate   =     -40.54440747 Ry
     estimated scf accuracy    <      22.48055293 Ry

     iteration #  4     ecut=    30.00 Ry     beta=0.70
     Davidson diagonalization with overlap
     ethr =  1.00E-02,  avg # of iterations =  3.0

     negative rho (up, down):  1.181E-03 0.000E+00

     total cpu time spent up to now is        3.6 secs

     total energy              =     -25.72793583 Ry
     Harris-Foulkes estimate   =     -29.30868240 Ry
     estimated scf accuracy    <       7.94660149 Ry

     iteration #  5     ecut=    30.00 Ry     beta=0.70
     Davidson diagonalization with overlap
     ethr =  1.00E-02,  avg # of iterations =  5.0

     negative rho (up, down):  1.420E-03 0.000E+00

     total cpu time spent up to now is        3.7 secs

     total energy              =     -29.27003216 Ry
     Harris-Foulkes estimate   =     -29.30981739 Ry
     estimated scf accuracy    <       2.58587715 Ry

     iteration #  6     ecut=    30.00 Ry     beta=0.70
     Davidson diagonalization with overlap
     ethr =  1.00E-02,  avg # of iterations =  1.0

     negative rho (up, down):  1.341E-03 0.000E+00

     total cpu time spent up to now is        3.7 secs

     total energy              =     -29.26635175 Ry
     Harris-Foulkes estimate   =     -29.28507723 Ry
     estimated scf accuracy    <       2.22980971 Ry

     iteration #  7     ecut=    30.00 Ry     beta=0.70
     Davidson diagonalization with overlap
     ethr =  1.00E-02,  avg # of iterations =  1.0

     negative rho (up, down):  5.417E-02 0.000E+00

     total cpu time spent up to now is        3.7 secs

     total energy              =     -31.04907262 Ry
     Harris-Foulkes estimate   =     -29.26865189 Ry
     estimated scf accuracy    <       2.26795306 Ry

     iteration #  8     ecut=    30.00 Ry     beta=0.70
     Davidson diagonalization with overlap
     ethr =  1.00E-02,  avg # of iterations =  3.0

     negative rho (up, down):  9.877E-02 0.000E+00

     total cpu time spent up to now is        3.8 secs

     total energy              =     -33.49593891 Ry
     Harris-Foulkes estimate   =     -36.60688275 Ry
     estimated scf accuracy    <      17.93552365 Ry

     iteration #  9     ecut=    30.00 Ry     beta=0.70
     Davidson diagonalization with overlap
     ethr =  1.00E-02,  avg # of iterations =  1.0

     negative rho (up, down):  6.563E-02 0.000E+00

     total cpu time spent up to now is        3.8 secs

     total energy              =     -32.77952887 Ry
     Harris-Foulkes estimate   =     -33.60347175 Ry
     estimated scf accuracy    <      13.25370102 Ry

     iteration # 10     ecut=    30.00 Ry     beta=0.70
     Davidson diagonalization with overlap
     ethr =  1.00E-02,  avg # of iterations =  1.0

     negative rho (up, down):  3.017E-02 0.000E+00

     total cpu time spent up to now is        3.9 secs

     total energy              =     -31.38673314 Ry
     Harris-Foulkes estimate   =     -32.78226187 Ry
     estimated scf accuracy    <      12.22250109 Ry

     iteration # 11     ecut=    30.00 Ry     beta=0.70
     Davidson diagonalization with overlap
     ethr =  1.00E-02,  avg # of iterations =  1.0

     negative rho (up, down):  8.338E-06 0.000E+00

     total cpu time spent up to now is        3.9 secs

     total energy              =     -25.48488332 Ry
     Harris-Foulkes estimate   =     -31.39030241 Ry
     estimated scf accuracy    <      10.52205273 Ry

     iteration # 12     ecut=    30.00 Ry     beta=0.70
     Davidson diagonalization with overlap
     ethr =  1.00E-02,  avg # of iterations =  5.0

     negative rho (up, down):  6.295E-05 0.000E+00

     total cpu time spent up to now is        3.9 secs

     total energy              =     -28.08726152 Ry
     Harris-Foulkes estimate   =     -28.40320603 Ry
     estimated scf accuracy    <       0.44487459 Ry

     iteration # 13     ecut=    30.00 Ry     beta=0.70
     Davidson diagonalization with overlap
     ethr =  5.56E-03,  avg # of iterations =  2.0

     negative rho (up, down):  2.836E-04 0.000E+00

     total cpu time spent up to now is        4.0 secs

     total energy              =     -28.83465692 Ry
     Harris-Foulkes estimate   =     -28.19516437 Ry
     estimated scf accuracy    <       0.10021004 Ry

     iteration # 14     ecut=    30.00 Ry     beta=0.70
     Davidson diagonalization with overlap
     ethr =  1.25E-03,  avg # of iterations = 11.0

     negative rho (up, down):  1.276E-01 0.000E+00

     total cpu time spent up to now is        4.0 secs

     total energy              =     -37.16667264 Ry
     Harris-Foulkes estimate   =     -30.05253355 Ry
     estimated scf accuracy    <      17.10200900 Ry

     iteration # 15     ecut=    30.00 Ry     beta=0.70
     Davidson diagonalization with overlap
     ethr =  1.25E-03,  avg # of iterations =  4.0

     negative rho (up, down):  1.094E-01 0.000E+00

     total cpu time spent up to now is        4.1 secs

     total energy              =     -35.13099948 Ry
     Harris-Foulkes estimate   =     -39.01448727 Ry
     estimated scf accuracy    <      55.85654688 Ry

     iteration # 16     ecut=    30.00 Ry     beta=0.70
     Davidson diagonalization with overlap
     ethr =  1.25E-03,  avg # of iterations =  4.0

     negative rho (up, down):  6.742E-02 0.000E+00

     total cpu time spent up to now is        4.1 secs

     total energy              =     -35.50529051 Ry
     Harris-Foulkes estimate   =     -37.00644158 Ry
     estimated scf accuracy    <      50.88055189 Ry

     iteration # 17     ecut=    30.00 Ry     beta=0.70
     Davidson diagonalization with overlap
     ethr =  1.25E-03,  avg # of iterations =  3.0

     negative rho (up, down):  7.758E-02 0.000E+00

     total cpu time spent up to now is        4.2 secs

     total energy              =     -30.99281156 Ry
     Harris-Foulkes estimate   =     -35.85304395 Ry
     estimated scf accuracy    <      45.49533329 Ry

     iteration # 18     ecut=    30.00 Ry     beta=0.70
     Davidson diagonalization with overlap
     ethr =  1.25E-03,  avg # of iterations =  3.0

     negative rho (up, down):  9.543E-02 0.000E+00

     total cpu time spent up to now is        4.2 secs

     total energy              =     -30.19958312 Ry
     Harris-Foulkes estimate   =     -32.15309387 Ry
     estimated scf accuracy    <      20.84478677 Ry

     iteration # 19     ecut=    30.00 Ry     beta=0.70
     Davidson diagonalization with overlap
     ethr =  1.25E-03,  avg # of iterations =  3.0

     negative rho (up, down):  1.364E-01 0.000E+00

     total cpu time spent up to now is        4.2 secs

     total energy              =     -27.50726665 Ry
     Harris-Foulkes estimate   =     -30.27622417 Ry
     estimated scf accuracy    <      17.35011595 Ry

     iteration # 20     ecut=    30.00 Ry     beta=0.70
     Davidson diagonalization with overlap
     ethr =  1.25E-03,  avg # of iterations =  9.0

     negative rho (up, down):  1.040E-01 0.000E+00

     total cpu time spent up to now is        4.3 secs

     total energy              =     -28.12755561 Ry
     Harris-Foulkes estimate   =     -28.38495891 Ry
     estimated scf accuracy    <       0.63191151 Ry

     iteration # 21     ecut=    30.00 Ry     beta=0.70
     Davidson diagonalization with overlap
     ethr =  1.25E-03,  avg # of iterations =  8.0

     negative rho (up, down):  9.790E-02 0.000E+00

     total cpu time spent up to now is        4.3 secs

     total energy              =     -28.16309930 Ry
     Harris-Foulkes estimate   =     -28.18897251 Ry
     estimated scf accuracy    <       0.10606488 Ry

     iteration # 22     ecut=    30.00 Ry     beta=0.70
     Davidson diagonalization with overlap
     ethr =  1.25E-03,  avg # of iterations =  1.0

     negative rho (up, down):  9.581E-02 0.000E+00

     total cpu time spent up to now is        4.4 secs

     total energy              =     -28.17575243 Ry
     Harris-Foulkes estimate   =     -28.16759339 Ry
     estimated scf accuracy    <       0.08650001 Ry

     iteration # 23     ecut=    30.00 Ry     beta=0.70
     Davidson diagonalization with overlap
     ethr =  1.08E-03,  avg # of iterations =  2.0

     negative rho (up, down):  8.127E-02 0.000E+00

     total cpu time spent up to now is        4.4 secs

     total energy              =     -28.17130168 Ry
     Harris-Foulkes estimate   =     -28.18098249 Ry
     estimated scf accuracy    <       0.07553700 Ry

     iteration # 24     ecut=    30.00 Ry     beta=0.70
     Davidson diagonalization with overlap
     ethr =  9.44E-04,  avg # of iterations =  2.0

     negative rho (up, down):  6.597E-02 0.000E+00

     total cpu time spent up to now is        4.5 secs

     total energy              =     -28.17363526 Ry
     Harris-Foulkes estimate   =     -28.17365243 Ry
     estimated scf accuracy    <       0.07122749 Ry

     iteration # 25     ecut=    30.00 Ry     beta=0.70
     Davidson diagonalization with overlap
     ethr =  8.90E-04,  avg # of iterations =  1.0

     negative rho (up, down):  6.571E-02 0.000E+00

     total cpu time spent up to now is        4.5 secs

     total energy              =     -28.17790809 Ry
     Harris-Foulkes estimate   =     -28.17499043 Ry
     estimated scf accuracy    <       0.06131424 Ry

     iteration # 26     ecut=    30.00 Ry     beta=0.70
     Davidson diagonalization with overlap
     ethr =  7.66E-04,  avg # of iterations =  1.0

     negative rho (up, down):  8.942E-02 0.000E+00

     total cpu time spent up to now is        4.5 secs

     total energy              =     -28.16357913 Ry
     Harris-Foulkes estimate   =     -28.17846276 Ry
     estimated scf accuracy    <       0.05755710 Ry

     iteration # 27     ecut=    30.00 Ry     beta=0.70
     Davidson diagonalization with overlap
     ethr =  7.19E-04,  avg # of iterations =  1.0

     negative rho (up, down):  1.200E-01 0.000E+00

     total cpu time spent up to now is        4.5 secs

     total energy              =     -28.16074345 Ry
     Harris-Foulkes estimate   =     -28.16417965 Ry
     estimated scf accuracy    <       0.03817785 Ry

     iteration # 28     ecut=    30.00 Ry     beta=0.70
     Davidson diagonalization with overlap
     ethr =  4.77E-04,  avg # of iterations =  1.0

     negative rho (up, down):  3.160E-02 0.000E+00

     total cpu time spent up to now is        4.6 secs

     total energy              =     -28.14123921 Ry
     Harris-Foulkes estimate   =     -28.16084449 Ry
     estimated scf accuracy    <       0.03598947 Ry

     iteration # 29     ecut=    30.00 Ry     beta=0.70
     Davidson diagonalization with overlap
     ethr =  4.50E-04,  avg # of iterations =  3.0

     negative rho (up, down):  8.717E-03 0.000E+00

     total cpu time spent up to now is        4.6 secs

     total energy              =     -28.14843797 Ry
     Harris-Foulkes estimate   =     -28.14613027 Ry
     estimated scf accuracy    <       0.00560466 Ry

     iteration # 30     ecut=    30.00 Ry     beta=0.70
     Davidson diagonalization with overlap
     ethr =  7.01E-05,  avg # of iterations =  4.0

     negative rho (up, down):  1.909E-03 0.000E+00

     total cpu time spent up to now is        4.7 secs

     total energy              =     -28.14921098 Ry
     Harris-Foulkes estimate   =     -28.14938549 Ry
     estimated scf accuracy    <       0.00471139 Ry

     iteration # 31     ecut=    30.00 Ry     beta=0.70
     Davidson diagonalization with overlap
     ethr =  5.89E-05,  avg # of iterations =  2.0

     negative rho (up, down):  4.654E-05 0.000E+00

     total cpu time spent up to now is        4.7 secs

     total energy              =     -28.14957531 Ry
     Harris-Foulkes estimate   =     -28.14955580 Ry
     estimated scf accuracy    <       0.00006079 Ry

     iteration # 32     ecut=    30.00 Ry     beta=0.70
     Davidson diagonalization with overlap
     c_bands:  1 eigenvalues not converged
     ethr =  7.60E-07,  avg # of iterations = 20.0

     negative rho (up, down):  1.861E-04 0.000E+00

     total cpu time spent up to now is        4.7 secs

     total energy              =     -28.14957358 Ry
     Harris-Foulkes estimate   =     -28.14959013 Ry
     estimated scf accuracy    <       0.00007208 Ry

     iteration # 33     ecut=    30.00 Ry     beta=0.70
     Davidson diagonalization with overlap
     ethr =  7.60E-07,  avg # of iterations = 13.0

     negative rho (up, down):  5.803E-06 0.000E+00

     total cpu time spent up to now is        4.8 secs

     total energy              =     -28.14958145 Ry
     Harris-Foulkes estimate   =     -28.14957996 Ry
     estimated scf accuracy    <       0.00000621 Ry

     iteration # 34     ecut=    30.00 Ry     beta=0.70
     Davidson diagonalization with overlap
     ethr =  7.76E-08,  avg # of iterations =  1.0

     negative rho (up, down):  2.386E-08 0.000E+00

     total cpu time spent up to now is        4.8 secs

     total energy              =     -28.14958301 Ry
     Harris-Foulkes estimate   =     -28.14958208 Ry
     estimated scf accuracy    <       0.00000086 Ry

     iteration # 35     ecut=    30.00 Ry     beta=0.70
     Davidson diagonalization with overlap
     ethr =  1.07E-08,  avg # of iterations =  2.0

     total cpu time spent up to now is        4.9 secs

     total energy              =     -28.14958314 Ry
     Harris-Foulkes estimate   =     -28.14958311 Ry
     estimated scf accuracy    <       0.00000005 Ry

     iteration # 36     ecut=    30.00 Ry     beta=0.70
     Davidson diagonalization with overlap
     ethr =  5.88E-10,  avg # of iterations =  1.0

     total cpu time spent up to now is        4.9 secs

     total energy              =     -28.14958328 Ry
     Harris-Foulkes estimate   =     -28.14958315 Ry
     estimated scf accuracy    <       0.00000003 Ry

     iteration # 37     ecut=    30.00 Ry     beta=0.70
     Davidson diagonalization with overlap
     ethr =  3.55E-10,  avg # of iterations =  1.0

     total cpu time spent up to now is        4.9 secs

     End of self-consistent calculation

          k = 0.0000 0.0000 0.0000 ( 22119 PWs)   bands (ev):

   -25.1119 -14.2385  -8.4157  -8.4153  -8.4148  -0.3703   0.7330   1.0504

     the Fermi energy is    -8.2923 ev

!    total energy              =     -28.14958327 Ry
     Harris-Foulkes estimate   =     -28.14958329 Ry
     estimated scf accuracy    <          5.7E-09 Ry

     convergence has been achieved in  37 iterations

     Forces acting on atoms (Ry/au):

     atom    1 type  1   force =   -17.24324391   -3.77289881   11.84484048
     atom    2 type  1   force =    17.24331913    3.77299160  -11.84419900
     atom    3 type  2   force =    -0.00007521   -0.00009278   -0.00064147

     Total force =    30.061887     Total SCF correction =     0.000135

     Entering Dynamics:    iteration =     3
                           time      =   0.0145 pico-seconds


     Andersen thermostat:    3 collisions

ATOMIC_POSITIONS (bohr)
H     -183.834530877 -28.517935369 135.525325767
H      191.003131799  52.762762692-121.629180314
O       18.485298909   7.471254290   0.501732806


     kinetic energy (Ekin) =  1223.43899441 Ry
     temperature           = ************** K 
     Ekin + Etot (const)   =  1195.28941115 Ry
     Message from routine dynamics:
     Total linear momentum <> 0

     Linear momentum :   -0.0468631049   -0.1646383011    0.0854369185

     Writing output data file pwscf.save

     second order wave-functions extrapolation
     Message from extrapolate_wfcs: 
     the matrix <psi(t-dt)|psi(t)> has  1 small (< 0.1) eigenvalues
     Check: negative starting charge=   -0.364364
     second order charge density extrapolation
     Check: negative starting charge=   -0.346450

     negative rho (up, down):  7.698E+01 0.000E+00

     total cpu time spent up to now is        5.2 secs

     per-process dynamical memory:    20.4 Mb

     Self-consistent Calculation

     iteration #  1     ecut=    30.00 Ry     beta=0.70
     Davidson diagonalization with overlap
     c_bands:  3 eigenvalues not converged
     ethr =  1.00E-06,  avg # of iterations = 20.0

     negative rho (up, down):  2.213E+01 0.000E+00

     total cpu time spent up to now is        5.4 secs

     total energy              =    -323.90618468 Ry
     Harris-Foulkes estimate   = -288627.95990688 Ry
     estimated scf accuracy    <    3395.35040061 Ry

     iteration #  2     ecut=    30.00 Ry     beta=0.70
     Davidson diagonalization with overlap
     ethr =  1.00E-02,  avg # of iterations = 15.0

     negative rho (up, down):  2.382E-01 0.000E+00

     total cpu time spent up to now is        5.4 secs

     total energy              =      91.79116699 Ry
     Harris-Foulkes estimate   =   -4123.31667185 Ry
     estimated scf accuracy    <     323.81976469 Ry

     iteration #  3     ecut=    30.00 Ry     beta=0.70
     Davidson diagonalization with overlap
     ethr =  1.00E-02,  avg # of iterations = 13.0

     negative rho (up, down):  1.604E-01 0.000E+00

     total cpu time spent up to now is        5.5 secs

     total energy              =     139.84430658 Ry
     Harris-Foulkes estimate   =    -448.87065756 Ry
     estimated scf accuracy    <      70.61235083 Ry

     iteration #  4     ecut=    30.00 Ry     beta=0.70
     Davidson diagonalization with overlap
     ethr =  1.00E-02,  avg # of iterations =  8.0

     negative rho (up, down):  1.275E-02 0.000E+00

     total cpu time spent up to now is        5.6 secs

     total energy              =     -32.44690727 Ry
     Harris-Foulkes estimate   =     -67.92812093 Ry
     estimated scf accuracy    <      33.99714489 Ry

     iteration #  5     ecut=    30.00 Ry     beta=0.70
     Davidson diagonalization with overlap
     ethr =  1.00E-02,  avg # of iterations =  5.0

     negative rho (up, down):  3.227E-02 0.000E+00

     total cpu time spent up to now is        5.6 secs

     total energy              =     -36.30888908 Ry
     Harris-Foulkes estimate   =     -39.64359940 Ry
     estimated scf accuracy    <      11.65871247 Ry

     iteration #  6     ecut=    30.00 Ry     beta=0.70
     Davidson diagonalization with overlap
     ethr =  1.00E-02,  avg # of iterations =  2.0

     negative rho (up, down):  1.643E-02 0.000E+00

     total cpu time spent up to now is        5.6 secs

     total energy              =     -32.74064426 Ry
     Harris-Foulkes estimate   =     -36.80813141 Ry
     estimated scf accuracy    <       9.99729799 Ry

     iteration #  7     ecut=    30.00 Ry     beta=0.70
     Davidson diagonalization with overlap
     ethr =  1.00E-02,  avg # of iterations =  4.0

     negative rho (up, down):  1.489E-02 0.000E+00

     total cpu time spent up to now is        5.7 secs

     total energy              =     -34.84513002 Ry
     Harris-Foulkes estimate   =     -34.65821866 Ry
     estimated scf accuracy    <       8.88409717 Ry

     iteration #  8     ecut=    30.00 Ry     beta=0.70
     Davidson diagonalization with overlap
     ethr =  1.00E-02,  avg # of iterations =  3.0

     negative rho (up, down):  6.632E-03 0.000E+00

     total cpu time spent up to now is        5.7 secs

     total energy              =     -30.43376795 Ry
     Harris-Foulkes estimate   =     -36.81480624 Ry
     estimated scf accuracy    <       6.69966980 Ry

     iteration #  9     ecut=    30.00 Ry     beta=0.70
     Davidson diagonalization with overlap
     ethr =  1.00E-02,  avg # of iterations =  2.0

     negative rho (up, down):  5.916E-03 0.000E+00

     total cpu time spent up to now is        5.8 secs

     total energy              =     -31.89108346 Ry
     Harris-Foulkes estimate   =     -32.70765301 Ry
     estimated scf accuracy    <       5.78315136 Ry

     iteration # 10     ecut=    30.00 Ry     beta=0.70
     Davidson diagonalization with overlap
     ethr =  1.00E-02,  avg # of iterations =  1.0

     negative rho (up, down):  2.950E-03 0.000E+00

     total cpu time spent up to now is        5.9 secs

     total energy              =     -30.78469302 Ry
     Harris-Foulkes estimate   =     -31.91005265 Ry
     estimated scf accuracy    <       4.76166681 Ry

     iteration # 11     ecut=    30.00 Ry     beta=0.70
     Davidson diagonalization with overlap
     ethr =  1.00E-02,  avg # of iterations =  1.0

     negative rho (up, down):  1.386E-02 0.000E+00

     total cpu time spent up to now is        5.9 secs

     total energy              =     -31.78222089 Ry
     Harris-Foulkes estimate   =     -32.27418440 Ry
     estimated scf accuracy    <       3.65244276 Ry

     iteration # 12     ecut=    30.00 Ry     beta=0.70
     Davidson diagonalization with overlap
     ethr =  1.00E-02,  avg # of iterations =  1.0

     negative rho (up, down):  6.981E-02 0.000E+00

     total cpu time spent up to now is        5.9 secs

     total energy              =     -33.70916172 Ry
     Harris-Foulkes estimate   =     -31.78833296 Ry
     estimated scf accuracy    <       2.86820345 Ry

     iteration # 13     ecut=    30.00 Ry     beta=0.70
     Davidson diagonalization with overlap
     ethr =  1.00E-02,  avg # of iterations =  3.0

     negative rho (up, down):  1.069E-02 0.000E+00

     total cpu time spent up to now is        6.0 secs

     total energy              =     -31.31718241 Ry
     Harris-Foulkes estimate   =     -34.15490251 Ry
     estimated scf accuracy    <       5.26207701 Ry

     iteration # 14     ecut=    30.00 Ry     beta=0.70
     Davidson diagonalization with overlap
     ethr =  1.00E-02,  avg # of iterations =  3.0

     negative rho (up, down):  5.333E-03 0.000E+00

     total cpu time spent up to now is        6.0 secs

     total energy              =     -30.80533403 Ry
     Harris-Foulkes estimate   =     -32.10203897 Ry
     estimated scf accuracy    <       3.31814939 Ry

     iteration # 15     ecut=    30.00 Ry     beta=0.70
     Davidson diagonalization with overlap
     ethr =  1.00E-02,  avg # of iterations =  2.0

     negative rho (up, down):  9.081E-05 0.000E+00

     total cpu time spent up to now is        6.0 secs

     total energy              =     -31.08898569 Ry
     Harris-Foulkes estimate   =     -32.43937432 Ry
     estimated scf accuracy    <       5.06157921 Ry

     iteration # 16     ecut=    30.00 Ry     beta=0.70
     Davidson diagonalization with overlap
     ethr =  1.00E-02,  avg # of iterations =  1.0

     negative rho (up, down):  1.652E-03 0.000E+00

     total cpu time spent up to now is        6.1 secs

     total energy              =     -31.63353968 Ry
     Harris-Foulkes estimate   =     -31.79467402 Ry
     estimated scf accuracy    <       2.83341608 Ry

     iteration # 17     ecut=    30.00 Ry     beta=0.70
     Davidson diagonalization with overlap
     ethr =  1.00E-02,  avg # of iterations =  1.0

     negative rho (up, down):  3.748E-03 0.000E+00

     total cpu time spent up to now is        6.1 secs

     total energy              =     -31.44931031 Ry
     Harris-Foulkes estimate   =     -31.63936625 Ry
     estimated scf accuracy    <       2.64140496 Ry

     iteration # 18     ecut=    30.00 Ry     beta=0.70
     Davidson diagonalization with overlap
     ethr =  1.00E-02,  avg # of iterations =  1.0

     negative rho (up, down):  4.063E-03 0.000E+00

     total cpu time spent up to now is        6.1 secs

     total energy              =     -31.51553311 Ry
     Harris-Foulkes estimate   =     -31.52360990 Ry
     estimated scf accuracy    <       0.41305936 Ry

     iteration # 19     ecut=    30.00 Ry     beta=0.70
     Davidson diagonalization with overlap
     ethr =  5.16E-03,  avg # of iterations =  1.0

     negative rho (up, down):  3.071E-03 0.000E+00

     total cpu time spent up to now is        6.2 secs

     total energy              =     -31.50428517 Ry
     Harris-Foulkes estimate   =     -31.51902837 Ry
     estimated scf accuracy    <       0.16221650 Ry

     iteration # 20     ecut=    30.00 Ry     beta=0.70
     Davidson diagonalization with overlap
     ethr =  2.03E-03,  avg # of iterations =  1.0

     negative rho (up, down):  3.627E-04 0.000E+00

     total cpu time spent up to now is        6.2 secs

     total energy              =     -31.49163959 Ry
     Harris-Foulkes estimate   =     -31.52195095 Ry
     estimated scf accuracy    <       0.31129593 Ry

     iteration # 21     ecut=    30.00 Ry     beta=0.70
     Davidson diagonalization with overlap
     ethr =  2.03E-03,  avg # of iterations =  1.0

     negative rho (up, down):  3.823E-04 0.000E+00

     total cpu time spent up to now is        6.2 secs

     total energy              =     -31.50514918 Ry
     Harris-Foulkes estimate   =     -31.51795364 Ry
     estimated scf accuracy    <       0.52871988 Ry

     iteration # 22     ecut=    30.00 Ry     beta=0.70
     Davidson diagonalization with overlap
     ethr =  2.03E-03,  avg # of iterations =  1.0

     negative rho (up, down):  3.145E-04 0.000E+00

     total cpu time spent up to now is        6.3 secs

     total energy              =     -31.50855788 Ry
     Harris-Foulkes estimate   =     -31.51042878 Ry
     estimated scf accuracy    <       0.01629481 Ry

     iteration # 23     ecut=    30.00 Ry     beta=0.70
     Davidson diagonalization with overlap
     ethr =  2.04E-04,  avg # of iterations =  1.0

     negative rho (up, down):  3.229E-04 0.000E+00

     total cpu time spent up to now is        6.3 secs

     total energy              =     -31.51332671 Ry
     Harris-Foulkes estimate   =     -31.51280620 Ry
     estimated scf accuracy    <       0.15917854 Ry

     iteration # 24     ecut=    30.00 Ry     beta=0.70
     Davidson diagonalization with overlap
     ethr =  2.04E-04,  avg # of iterations =  1.0

     negative rho (up, down):  5.619E-05 0.000E+00

     total cpu time spent up to now is        6.3 secs

     total energy              =     -31.50680722 Ry
     Harris-Foulkes estimate   =     -31.51363564 Ry
     estimated scf accuracy    <       0.21965056 Ry

     iteration # 25     ecut=    30.00 Ry     beta=0.70
     Davidson diagonalization with overlap
     ethr =  2.04E-04,  avg # of iterations =  1.0

     negative rho (up, down):  3.090E-04 0.000E+00

     total cpu time spent up to now is        6.4 secs

     total energy              =     -31.51032837 Ry
     Harris-Foulkes estimate   =     -31.51047246 Ry
     estimated scf accuracy    <       0.00189682 Ry

     iteration # 26     ecut=    30.00 Ry     beta=0.70
     Davidson diagonalization with overlap
     ethr =  2.37E-05,  avg # of iterations =  8.0

     negative rho (up, down):  1.004E-04 0.000E+00

     total cpu time spent up to now is        6.4 secs

     total energy              =     -31.51040976 Ry
     Harris-Foulkes estimate   =     -31.51037661 Ry
     estimated scf accuracy    <       0.00002711 Ry

     iteration # 27     ecut=    30.00 Ry     beta=0.70
     Davidson diagonalization with overlap
     ethr =  3.39E-07,  avg # of iterations =  9.0

     negative rho (up, down):  3.662E-05 0.000E+00

     total cpu time spent up to now is        6.5 secs

     total energy              =     -31.51043463 Ry
     Harris-Foulkes estimate   =     -31.51041176 Ry
     estimated scf accuracy    <       0.00000891 Ry

     iteration # 28     ecut=    30.00 Ry     beta=0.70
     Davidson diagonalization with overlap
     ethr =  1.11E-07,  avg # of iterations =  1.0

     negative rho (up, down):  2.069E-05 0.000E+00

     total cpu time spent up to now is        6.6 secs

     total energy              =     -31.51044087 Ry
     Harris-Foulkes estimate   =     -31.51043499 Ry
     estimated scf accuracy    <       0.00000123 Ry

     iteration # 29     ecut=    30.00 Ry     beta=0.70
     Davidson diagonalization with overlap
     ethr =  1.54E-08,  avg # of iterations =  1.0

     negative rho (up, down):  6.191E-06 0.000E+00

     total cpu time spent up to now is        6.6 secs

     total energy              =     -31.51044730 Ry
     Harris-Foulkes estimate   =     -31.51044101 Ry
     estimated scf accuracy    <       0.00000095 Ry

     iteration # 30     ecut=    30.00 Ry     beta=0.70
     Davidson diagonalization with overlap
     ethr =  1.19E-08,  avg # of iterations =  1.0

     negative rho (up, down):  7.878E-07 0.000E+00

     total cpu time spent up to now is        6.7 secs

     total energy              =     -31.51044937 Ry
     Harris-Foulkes estimate   =     -31.51044754 Ry
     estimated scf accuracy    <       0.00000397 Ry

     iteration # 31     ecut=    30.00 Ry     beta=0.70
     Davidson diagonalization with overlap
     ethr =  1.19E-08,  avg # of iterations =  1.0

     negative rho (up, down):  1.495E-06 0.000E+00

     total cpu time spent up to now is        6.7 secs

     total energy              =     -31.51044906 Ry
     Harris-Foulkes estimate   =     -31.51044949 Ry
     estimated scf accuracy    <       0.00000005 Ry

     iteration # 32     ecut=    30.00 Ry     beta=0.70
     Davidson diagonalization with overlap
     ethr =  6.53E-10,  avg # of iterations =  1.0

     total cpu time spent up to now is        6.8 secs

     End of self-consistent calculation

          k = 0.0000 0.0000 0.0000 ( 22119 PWs)   bands (ev):

   -23.7502  -7.3190  -7.1523  -7.1510  -7.1018  -6.7308  -0.1967   0.5452

     the Fermi energy is    -7.0175 ev

!    total energy              =     -31.51044951 Ry
     Harris-Foulkes estimate   =     -31.51044907 Ry
     estimated scf accuracy    <          8.0E-09 Ry

     convergence has been achieved in  32 iterations

     Forces acting on atoms (Ry/au):

     atom    1 type  1   force =    -0.01165493   -0.00162447    0.01515891
     atom    2 type  1   force =     0.01512294   -0.00358773   -0.00775104
     atom    3 type  2   force =    -0.00346801    0.00521219   -0.00740786

     Total force =     0.027640     Total SCF correction =     0.000026

     Entering Dynamics:    iteration =     4
                           time      =   0.0194 pico-seconds


     Andersen thermostat:    3 collisions

ATOMIC_POSITIONS (bohr)
H     -183.818676362 -28.313954072 135.534010155
H      190.841146225  52.778007423-121.783687970
O       18.494523432   7.457415647   0.510937900


     kinetic energy (Ekin) =     0.00785629 Ry
     temperature           =   413.46953571 K 
     Ekin + Etot (const)   =   -31.50259322 Ry
     Message from routine dynamics:
     Total linear momentum <> 0

     Linear momentum :   -0.0293291891    0.1107015040    0.3312493077

     Writing output data file pwscf.save

     second order wave-functions extrapolation
     Message from extrapolate_wfcs: 
     the matrix <psi(t-dt)|psi(t)> has  1 small (< 0.1) eigenvalues
     Check: negative starting charge=   -0.346450
     second order charge density extrapolation
     Check: negative starting charge=   -0.346563

     negative rho (up, down):  9.091E-02 0.000E+00

     total cpu time spent up to now is        7.2 secs

     per-process dynamical memory:    20.4 Mb

     Self-consistent Calculation

     iteration #  1     ecut=    30.00 Ry     beta=0.70
     Davidson diagonalization with overlap
     c_bands:  1 eigenvalues not converged
     ethr =  1.00E-06,  avg # of iterations = 20.0

     negative rho (up, down):  2.496E-02 0.000E+00

     total cpu time spent up to now is        7.3 secs

     total energy              =     -31.46288976 Ry
     Harris-Foulkes estimate   =     -31.47324489 Ry
     estimated scf accuracy    <       0.04833486 Ry

     iteration #  2     ecut=    30.00 Ry     beta=0.70
     Davidson diagonalization with overlap
     ethr =  6.04E-04,  avg # of iterations =  2.0

     negative rho (up, down):  2.321E-02 0.000E+00

     total cpu time spent up to now is        7.4 secs

     total energy              =     -31.47642826 Ry
     Harris-Foulkes estimate   =     -31.95546592 Ry
     estimated scf accuracy    <       4.30392800 Ry

     iteration #  3     ecut=    30.00 Ry     beta=0.70
     Davidson diagonalization with overlap
     ethr =  6.04E-04,  avg # of iterations =  2.0

     negative rho (up, down):  2.243E-02 0.000E+00

     total cpu time spent up to now is        7.4 secs

     total energy              =     -31.50012972 Ry
     Harris-Foulkes estimate   =     -31.50767039 Ry
     estimated scf accuracy    <       0.51484091 Ry

     iteration #  4     ecut=    30.00 Ry     beta=0.70
     Davidson diagonalization with overlap
     ethr =  6.04E-04,  avg # of iterations =  1.0

     negative rho (up, down):  6.187E-03 0.000E+00

     total cpu time spent up to now is        7.4 secs

     total energy              =     -31.47334685 Ry
     Harris-Foulkes estimate   =     -31.50356935 Ry
     estimated scf accuracy    <       0.23647826 Ry

     iteration #  5     ecut=    30.00 Ry     beta=0.70
     Davidson diagonalization with overlap
     ethr =  6.04E-04,  avg # of iterations =  1.0

     negative rho (up, down):  6.506E-04 0.000E+00

     total cpu time spent up to now is        7.5 secs

     total energy              =     -31.51153331 Ry
     Harris-Foulkes estimate   =     -31.57792731 Ry
     estimated scf accuracy    <       2.57064765 Ry

     iteration #  6     ecut=    30.00 Ry     beta=0.70
     Davidson diagonalization with overlap
     ethr =  6.04E-04,  avg # of iterations =  1.0

     negative rho (up, down):  2.111E-04 0.000E+00

     total cpu time spent up to now is        7.5 secs

     total energy              =     -31.49976263 Ry
     Harris-Foulkes estimate   =     -31.52143581 Ry
     estimated scf accuracy    <       0.85881543 Ry

     iteration #  7     ecut=    30.00 Ry     beta=0.70
     Davidson diagonalization with overlap
     ethr =  6.04E-04,  avg # of iterations =  1.0

     negative rho (up, down):  8.891E-05 0.000E+00

     total cpu time spent up to now is        7.5 secs

     total energy              =     -31.50828711 Ry
     Harris-Foulkes estimate   =     -31.50878629 Ry
     estimated scf accuracy    <       0.01573972 Ry

     iteration #  8     ecut=    30.00 Ry     beta=0.70
     Davidson diagonalization with overlap
     ethr =  1.97E-04,  avg # of iterations =  3.0

     negative rho (up, down):  1.462E-05 0.000E+00

     total cpu time spent up to now is        7.6 secs

     total energy              =     -31.50860613 Ry
     Harris-Foulkes estimate   =     -31.50858120 Ry
     estimated scf accuracy    <       0.00067591 Ry

     iteration #  9     ecut=    30.00 Ry     beta=0.70
     Davidson diagonalization with overlap
     ethr =  8.45E-06,  avg # of iterations = 12.0

     total cpu time spent up to now is        7.6 secs

     total energy              =     -31.50834727 Ry
     Harris-Foulkes estimate   =     -31.50863600 Ry
     estimated scf accuracy    <       0.00467552 Ry

     iteration # 10     ecut=    30.00 Ry     beta=0.70
     Davidson diagonalization with overlap
     ethr =  8.45E-06,  avg # of iterations =  1.0

     negative rho (up, down):  3.747E-07 0.000E+00

     total cpu time spent up to now is        7.7 secs

     total energy              =     -31.50866364 Ry
     Harris-Foulkes estimate   =     -31.50867676 Ry
     estimated scf accuracy    <       0.00786918 Ry

     iteration # 11     ecut=    30.00 Ry     beta=0.70
     Davidson diagonalization with overlap
     ethr =  8.45E-06,  avg # of iterations =  1.0

     total cpu time spent up to now is        7.7 secs

     total energy              =     -31.50861432 Ry
     Harris-Foulkes estimate   =     -31.50866432 Ry
     estimated scf accuracy    <       0.00700856 Ry

     iteration # 12     ecut=    30.00 Ry     beta=0.70
     Davidson diagonalization with overlap
     ethr =  8.45E-06,  avg # of iterations =  1.0

     negative rho (up, down):  5.335E-07 0.000E+00

     total cpu time spent up to now is        7.7 secs

     total energy              =     -31.50855113 Ry
     Harris-Foulkes estimate   =     -31.50862083 Ry
     estimated scf accuracy    <       0.00391360 Ry

     iteration # 13     ecut=    30.00 Ry     beta=0.70
     Davidson diagonalization with overlap
     ethr =  8.45E-06,  avg # of iterations =  1.0

     negative rho (up, down):  3.204E-08 0.000E+00

     total cpu time spent up to now is        7.8 secs

     total energy              =     -31.50856059 Ry
     Harris-Foulkes estimate   =     -31.50857383 Ry
     estimated scf accuracy    <       0.00048819 Ry

     iteration # 14     ecut=    30.00 Ry     beta=0.70
     Davidson diagonalization with overlap
     ethr =  6.10E-06,  avg # of iterations =  1.0

     negative rho (up, down):  1.366E-07 0.000E+00

     total cpu time spent up to now is        7.8 secs

     total energy              =     -31.50856667 Ry
     Harris-Foulkes estimate   =     -31.50856699 Ry
     estimated scf accuracy    <       0.00000225 Ry

     iteration # 15     ecut=    30.00 Ry     beta=0.70
     Davidson diagonalization with overlap
     ethr =  2.81E-08,  avg # of iterations =  1.0

     negative rho (up, down):  5.028E-08 0.000E+00

     total cpu time spent up to now is        7.8 secs

     total energy              =     -31.50856662 Ry
     Harris-Foulkes estimate   =     -31.50856673 Ry
     estimated scf accuracy    <       0.00000010 Ry

     iteration # 16     ecut=    30.00 Ry     beta=0.70
     Davidson diagonalization with overlap
     ethr =  1.20E-09,  avg # of iterations =  1.0

     total cpu time spent up to now is        7.9 secs

     End of self-consistent calculation

          k = 0.0000 0.0000 0.0000 ( 22119 PWs)   bands (ev):

   -23.7473  -7.3007  -7.1499  -7.1488  -7.1060  -6.7432  -0.1997   0.5396

     the Fermi energy is    -7.0153 ev

!    total energy              =     -31.50856639 Ry
     Harris-Foulkes estimate   =     -31.50856663 Ry
     estimated scf accuracy    <          2.2E-09 Ry

     convergence has been achieved in  16 iterations

     Forces acting on atoms (Ry/au):

     atom    1 type  1   force =    -0.01188755   -0.00161591    0.01327493
     atom    2 type  1   force =     0.01505289   -0.00276741   -0.00690726
     atom    3 type  2   force =    -0.00316534    0.00438332   -0.00636768

     Total force =     0.025921     Total SCF correction =     0.000191

     Entering Dynamics:    iteration =     5
                           time      =   0.0242 pico-seconds


     Andersen thermostat:    3 collisions

ATOMIC_POSITIONS (bohr)
H     -184.108247023 -28.243259109 135.389005490
H      191.165393860  52.360061827-121.960368817
O       18.492334448   7.479335843   0.531244298


     kinetic energy (Ekin) =     0.02103569 Ry
     temperature           =  1107.08974909 K 
     Ekin + Etot (const)   =   -31.48753070 Ry
     Message from routine dynamics:
     Total linear momentum <> 0

     Linear momentum :    0.5725833436   -0.2039870976   -0.0143638441

     Writing output data file pwscf.save

     second order wave-functions extrapolation
     Check: negative starting charge=   -0.346563
     second order charge density extrapolation
     Check: negative starting charge=   -0.347449

     negative rho (up, down):  5.903E-02 0.000E+00

     total cpu time spent up to now is        8.2 secs

     per-process dynamical memory:    20.4 Mb

     Self-consistent Calculation

     iteration #  1     ecut=    30.00 Ry     beta=0.70
     Davidson diagonalization with overlap
     c_bands:  1 eigenvalues not converged
     ethr =  1.00E-06,  avg # of iterations = 20.0

     negative rho (up, down):  1.404E-02 0.000E+00

     total cpu time spent up to now is        8.3 secs

     total energy              =     -31.50431453 Ry
     Harris-Foulkes estimate   =     -31.47021449 Ry
     estimated scf accuracy    <       0.00855773 Ry

     iteration #  2     ecut=    30.00 Ry     beta=0.70
     Davidson diagonalization with overlap
     ethr =  1.07E-04,  avg # of iterations =  2.0

     negative rho (up, down):  1.278E-02 0.000E+00

     total cpu time spent up to now is        8.3 secs

     total energy              =     -31.49197883 Ry
     Harris-Foulkes estimate   =     -31.54181307 Ry
     estimated scf accuracy    <       0.45961053 Ry

     iteration #  3     ecut=    30.00 Ry     beta=0.70
     Davidson diagonalization with overlap
     ethr =  1.07E-04,  avg # of iterations =  1.0

     negative rho (up, down):  1.247E-02 0.000E+00

     total cpu time spent up to now is        8.4 secs

     total energy              =     -31.50637107 Ry
     Harris-Foulkes estimate   =     -31.51345469 Ry
     estimated scf accuracy    <       0.19549490 Ry

     iteration #  4     ecut=    30.00 Ry     beta=0.70
     Davidson diagonalization with overlap
     ethr =  1.07E-04,  avg # of iterations =  1.0

     negative rho (up, down):  1.778E-03 0.000E+00

     total cpu time spent up to now is        8.4 secs

     total energy              =     -31.52157271 Ry
     Harris-Foulkes estimate   =     -31.51079405 Ry
     estimated scf accuracy    <       0.00420954 Ry

     iteration #  5     ecut=    30.00 Ry     beta=0.70
     Davidson diagonalization with overlap
     ethr =  5.26E-05,  avg # of iterations = 10.0

     negative rho (up, down):  4.699E-04 0.000E+00

     total cpu time spent up to now is        8.4 secs

     total energy              =     -31.52229792 Ry
     Harris-Foulkes estimate   =     -31.52169998 Ry
[...]
     Harris-Foulkes estimate   =    -297.28744572 Ry
     estimated scf accuracy    <      15.45413254 Ry

     iteration # 59     ecut=    30.00 Ry     beta=0.70
     Davidson diagonalization with overlap
     ethr =  1.00E-02,  avg # of iterations =  5.0

     negative rho (up, down):  6.049E-01 0.000E+00

     total cpu time spent up to now is       32.5 secs

     total energy              =     -52.25232621 Ry
     Harris-Foulkes estimate   =     -61.74910559 Ry
     estimated scf accuracy    <      42.56234160 Ry

     iteration # 60     ecut=    30.00 Ry     beta=0.70
     Davidson diagonalization with overlap
     ethr =  1.00E-02,  avg # of iterations = 11.0

     negative rho (up, down):  1.447E-01 0.000E+00

     total cpu time spent up to now is       32.6 secs

     total energy              =     133.98961253 Ry
     Harris-Foulkes estimate   =    -894.84329174 Ry
     estimated scf accuracy    <      30.41676301 Ry

     iteration # 61     ecut=    30.00 Ry     beta=0.70
     Davidson diagonalization with overlap
     ethr =  1.00E-02,  avg # of iterations = 13.0

     negative rho (up, down):  7.800E-03 0.000E+00

     total cpu time spent up to now is       32.6 secs

     total energy              =      43.20892929 Ry
     Harris-Foulkes estimate   =    -438.60709503 Ry
     estimated scf accuracy    <      12.59667116 Ry

     iteration # 62     ecut=    30.00 Ry     beta=0.70
     Davidson diagonalization with overlap
     ethr =  1.00E-02,  avg # of iterations =  9.0

     negative rho (up, down):  2.372E-02 0.000E+00

     total cpu time spent up to now is       32.7 secs

     total energy              =      -4.89468024 Ry
     Harris-Foulkes estimate   =    -101.28398233 Ry
     estimated scf accuracy    <      17.02228814 Ry

     iteration # 63     ecut=    30.00 Ry     beta=0.70
     Davidson diagonalization with overlap
     ethr =  1.00E-02,  avg # of iterations =  4.0

     negative rho (up, down):  9.537E-02 0.000E+00

     total cpu time spent up to now is       32.7 secs

     total energy              =      22.75926118 Ry
     Harris-Foulkes estimate   =    -454.42427035 Ry
     estimated scf accuracy    <      12.21876105 Ry

     iteration # 64     ecut=    30.00 Ry     beta=0.70
     Davidson diagonalization with overlap
     ethr =  1.00E-02,  avg # of iterations =  6.0

     negative rho (up, down):  7.343E-02 0.000E+00

     total cpu time spent up to now is       32.8 secs

     total energy              =      22.47052104 Ry
     Harris-Foulkes estimate   =    -116.37141177 Ry
     estimated scf accuracy    <      13.22246809 Ry

     iteration # 65     ecut=    30.00 Ry     beta=0.70
     Davidson diagonalization with overlap
     ethr =  1.00E-02,  avg # of iterations =  6.0

     negative rho (up, down):  1.471E-04 0.000E+00

     total cpu time spent up to now is       32.8 secs

     total energy              =      24.24351303 Ry
     Harris-Foulkes estimate   =    -119.72915233 Ry
     estimated scf accuracy    <      12.92831867 Ry

     iteration # 66     ecut=    30.00 Ry     beta=0.70
     Davidson diagonalization with overlap
     ethr =  1.00E-02,  avg # of iterations =  5.0

     negative rho (up, down):  2.196E-02 0.000E+00

     total cpu time spent up to now is       32.9 secs

     total energy              =     -16.64669925 Ry
     Harris-Foulkes estimate   =     -63.75174773 Ry
     estimated scf accuracy    <      18.50438068 Ry

     iteration # 67     ecut=    30.00 Ry     beta=0.70
     Davidson diagonalization with overlap
     ethr =  1.00E-02,  avg # of iterations =  6.0

     negative rho (up, down):  3.752E-03 0.000E+00

     total cpu time spent up to now is       32.9 secs

     total energy              =      -5.20315162 Ry
     Harris-Foulkes estimate   =     -78.45557542 Ry
     estimated scf accuracy    <      19.29980504 Ry

     iteration # 68     ecut=    30.00 Ry     beta=0.70
     Davidson diagonalization with overlap
     ethr =  1.00E-02,  avg # of iterations =  3.0

     negative rho (up, down):  5.288E-05 0.000E+00

     total cpu time spent up to now is       33.0 secs

     total energy              =     -52.02488105 Ry
     Harris-Foulkes estimate   =     -52.96000735 Ry
     estimated scf accuracy    <      31.07091801 Ry

     iteration # 69     ecut=    30.00 Ry     beta=0.70
     Davidson diagonalization with overlap
     ethr =  1.00E-02,  avg # of iterations =  1.0

     negative rho (up, down):  3.353E-01 0.000E+00

     total cpu time spent up to now is       33.0 secs

     total energy              =     -72.38356486 Ry
     Harris-Foulkes estimate   =     -52.02718802 Ry
     estimated scf accuracy    <      29.81259412 Ry

     iteration # 70     ecut=    30.00 Ry     beta=0.70
     Davidson diagonalization with overlap
     ethr =  1.00E-02,  avg # of iterations =  8.0

     negative rho (up, down):  3.752E-01 0.000E+00

     total cpu time spent up to now is       33.1 secs

     total energy              =    -202.90276944 Ry
     Harris-Foulkes estimate   =    -410.59491986 Ry
     estimated scf accuracy    <      57.09661848 Ry

     iteration # 71     ecut=    30.00 Ry     beta=0.70
     Davidson diagonalization with overlap
     ethr =  1.00E-02,  avg # of iterations =  7.0

     negative rho (up, down):  1.434E-02 0.000E+00

     total cpu time spent up to now is       33.1 secs

     total energy              =     -22.17007440 Ry
     Harris-Foulkes estimate   =    -415.47265402 Ry
     estimated scf accuracy    <      39.98566102 Ry

     iteration # 72     ecut=    30.00 Ry     beta=0.70
     Davidson diagonalization with overlap
     ethr =  1.00E-02,  avg # of iterations =  8.0

     negative rho (up, down):  4.322E-02 0.000E+00

     total cpu time spent up to now is       33.2 secs

     total energy              =     -50.45834918 Ry
     Harris-Foulkes estimate   =    -717.56006818 Ry
     estimated scf accuracy    <      31.60633894 Ry

     iteration # 73     ecut=    30.00 Ry     beta=0.70
     Davidson diagonalization with overlap
     ethr =  1.00E-02,  avg # of iterations =  5.0

     negative rho (up, down):  2.448E-02 0.000E+00

     total cpu time spent up to now is       33.2 secs

     total energy              =      12.19382011 Ry
     Harris-Foulkes estimate   =    -194.82456558 Ry
     estimated scf accuracy    <      38.96575349 Ry

     iteration # 74     ecut=    30.00 Ry     beta=0.70
     Davidson diagonalization with overlap
     ethr =  1.00E-02,  avg # of iterations =  5.0

     negative rho (up, down):  2.771E-01 0.000E+00

     total cpu time spent up to now is       33.3 secs

     total energy              =    -241.13512756 Ry
     Harris-Foulkes estimate   =    -249.65928340 Ry
     estimated scf accuracy    <      30.88880844 Ry

     iteration # 75     ecut=    30.00 Ry     beta=0.70
     Davidson diagonalization with overlap
     ethr =  1.00E-02,  avg # of iterations =  6.0

     negative rho (up, down):  2.491E-01 0.000E+00

     total cpu time spent up to now is       33.3 secs

     total energy              =      94.33055971 Ry
     Harris-Foulkes estimate   =   -1992.64428727 Ry
     estimated scf accuracy    <      23.41352240 Ry

     iteration # 76     ecut=    30.00 Ry     beta=0.70
     Davidson diagonalization with overlap
     ethr =  1.00E-02,  avg # of iterations =  9.0

     negative rho (up, down):  4.122E-01 0.000E+00

     total cpu time spent up to now is       33.4 secs

     total energy              =       6.73860122 Ry
     Harris-Foulkes estimate   =    -565.49024272 Ry
     estimated scf accuracy    <      25.46008808 Ry

     iteration # 77     ecut=    30.00 Ry     beta=0.70
     Davidson diagonalization with overlap
     ethr =  1.00E-02,  avg # of iterations = 10.0

     negative rho (up, down):  4.904E-01 0.000E+00

     total cpu time spent up to now is       33.4 secs

     total energy              =      52.76716409 Ry
     Harris-Foulkes estimate   =   -1806.21385393 Ry
     estimated scf accuracy    <      21.76753850 Ry

     iteration # 78     ecut=    30.00 Ry     beta=0.70
     Davidson diagonalization with overlap
     ethr =  1.00E-02,  avg # of iterations = 11.0

     negative rho (up, down):  2.302E-01 0.000E+00

     total cpu time spent up to now is       33.5 secs

     total energy              =      56.07075139 Ry
     Harris-Foulkes estimate   =    -354.78603460 Ry
     estimated scf accuracy    <      38.66216488 Ry

     iteration # 79     ecut=    30.00 Ry     beta=0.70
     Davidson diagonalization with overlap
     ethr =  1.00E-02,  avg # of iterations =  6.0

     negative rho (up, down):  7.704E-04 0.000E+00

     total cpu time spent up to now is       33.6 secs

     total energy              =      43.69521681 Ry
     Harris-Foulkes estimate   =    -507.64653809 Ry
     estimated scf accuracy    <      45.15394024 Ry

     iteration # 80     ecut=    30.00 Ry     beta=0.70
     Davidson diagonalization with overlap
     ethr =  1.00E-02,  avg # of iterations =  6.0

     negative rho (up, down):  1.842E-01 0.000E+00

     total cpu time spent up to now is       33.6 secs

     total energy              =    -264.92995367 Ry
     Harris-Foulkes estimate   =     -41.07355905 Ry
     estimated scf accuracy    <      17.00848306 Ry

     iteration # 81     ecut=    30.00 Ry     beta=0.70
     Davidson diagonalization with overlap
     ethr =  1.00E-02,  avg # of iterations =  6.0

     negative rho (up, down):  1.368E-01 0.000E+00

     total cpu time spent up to now is       33.7 secs

     total energy              =    -149.62467006 Ry
     Harris-Foulkes estimate   =   -3542.54386342 Ry
     estimated scf accuracy    <      19.35400872 Ry

     iteration # 82     ecut=    30.00 Ry     beta=0.70
     Davidson diagonalization with overlap
     ethr =  1.00E-02,  avg # of iterations =  8.0

     negative rho (up, down):  1.610E-01 0.000E+00

     total cpu time spent up to now is       33.7 secs

     total energy              =      28.55944678 Ry
     Harris-Foulkes estimate   =   -2020.97425685 Ry
     estimated scf accuracy    <      38.79499497 Ry

     iteration # 83     ecut=    30.00 Ry     beta=0.70
     Davidson diagonalization with overlap
     ethr =  1.00E-02,  avg # of iterations =  5.0

     negative rho (up, down):  2.035E-02 0.000E+00

     total cpu time spent up to now is       33.8 secs

     total energy              =      75.19537802 Ry
     Harris-Foulkes estimate   =   -1969.16018410 Ry
     estimated scf accuracy    <      21.46851475 Ry

     iteration # 84     ecut=    30.00 Ry     beta=0.70
     Davidson diagonalization with overlap
     ethr =  1.00E-02,  avg # of iterations =  8.0

     negative rho (up, down):  5.031E-02 0.000E+00

     total cpu time spent up to now is       33.8 secs

     total energy              =      -1.03284070 Ry
     Harris-Foulkes estimate   =     -75.33222251 Ry
     estimated scf accuracy    <      24.62744808 Ry

     iteration # 85     ecut=    30.00 Ry     beta=0.70
     Davidson diagonalization with overlap
     ethr =  1.00E-02,  avg # of iterations =  5.0

     negative rho (up, down):  1.584E-01 0.000E+00

     total cpu time spent up to now is       33.9 secs

     total energy              =     -11.72156556 Ry
     Harris-Foulkes estimate   =    -136.99036490 Ry
     estimated scf accuracy    <      16.12881686 Ry

     iteration # 86     ecut=    30.00 Ry     beta=0.70
     Davidson diagonalization with overlap
     ethr =  1.00E-02,  avg # of iterations = 11.0

     negative rho (up, down):  2.381E-01 0.000E+00

     total cpu time spent up to now is       33.9 secs

     total energy              =     -66.66292160 Ry
     Harris-Foulkes estimate   =    -136.85788102 Ry
     estimated scf accuracy    <      25.89507165 Ry

     iteration # 87     ecut=    30.00 Ry     beta=0.70
     Davidson diagonalization with overlap
     ethr =  1.00E-02,  avg # of iterations =  8.0

     negative rho (up, down):  1.140E-01 0.000E+00

     total cpu time spent up to now is       34.0 secs

     total energy              =    -104.01163416 Ry
     Harris-Foulkes estimate   =   -1700.22175749 Ry
     estimated scf accuracy    <      18.39546877 Ry

     iteration # 88     ecut=    30.00 Ry     beta=0.70
     Davidson diagonalization with overlap
     ethr =  1.00E-02,  avg # of iterations =  5.0

     negative rho (up, down):  4.321E-02 0.000E+00

     total cpu time spent up to now is       34.1 secs

     total energy              =      21.67710015 Ry
     Harris-Foulkes estimate   =    -448.64789415 Ry
     estimated scf accuracy    <      20.35281340 Ry

     iteration # 89     ecut=    30.00 Ry     beta=0.70
     Davidson diagonalization with overlap
     ethr =  1.00E-02,  avg # of iterations =  8.0

     negative rho (up, down):  1.418E-01 0.000E+00

     total cpu time spent up to now is       34.1 secs

     total energy              =    -185.43280589 Ry
     Harris-Foulkes estimate   =    -891.90435020 Ry
     estimated scf accuracy    <      32.46169835 Ry

     iteration # 90     ecut=    30.00 Ry     beta=0.70
     Davidson diagonalization with overlap
     ethr =  1.00E-02,  avg # of iterations =  6.0

     negative rho (up, down):  1.184E-01 0.000E+00

     total cpu time spent up to now is       34.2 secs

     total energy              =      10.89198664 Ry
     Harris-Foulkes estimate   =   -2671.06735476 Ry
     estimated scf accuracy    <      33.70949255 Ry

     iteration # 91     ecut=    30.00 Ry     beta=0.70
     Davidson diagonalization with overlap
     ethr =  1.00E-02,  avg # of iterations = 10.0

     negative rho (up, down):  1.055E-01 0.000E+00

     total cpu time spent up to now is       34.2 secs

     total energy              =      82.81423798 Ry
     Harris-Foulkes estimate   =    -984.07505856 Ry
     estimated scf accuracy    <      34.26861286 Ry

     iteration # 92     ecut=    30.00 Ry     beta=0.70
     Davidson diagonalization with overlap
     ethr =  1.00E-02,  avg # of iterations =  6.0

     negative rho (up, down):  1.301E-01 0.000E+00

     total cpu time spent up to now is       34.3 secs

     total energy              =   -1296.82891993 Ry
     Harris-Foulkes estimate   =    -497.07708583 Ry
     estimated scf accuracy    <      24.83010250 Ry

     iteration # 93     ecut=    30.00 Ry     beta=0.70
     Davidson diagonalization with overlap
     ethr =  1.00E-02,  avg # of iterations =  8.0

     negative rho (up, down):  4.496E-02 0.000E+00

     total cpu time spent up to now is       34.3 secs

     total energy              =     101.13665585 Ry
     Harris-Foulkes estimate   =   -4851.87367486 Ry
     estimated scf accuracy    <      21.94604052 Ry

     iteration # 94     ecut=    30.00 Ry     beta=0.70
     Davidson diagonalization with overlap
     ethr =  1.00E-02,  avg # of iterations = 11.0

     negative rho (up, down):  4.942E-02 0.000E+00

     total cpu time spent up to now is       34.4 secs

     total energy              =      95.61516901 Ry
     Harris-Foulkes estimate   =    -659.25399817 Ry
     estimated scf accuracy    <      35.20660404 Ry

     iteration # 95     ecut=    30.00 Ry     beta=0.70
     Davidson diagonalization with overlap
     ethr =  1.00E-02,  avg # of iterations =  7.0

     negative rho (up, down):  1.546E-04 0.000E+00

     total cpu time spent up to now is       34.4 secs

     total energy              =       2.75625526 Ry
     Harris-Foulkes estimate   =    -296.50711060 Ry
     estimated scf accuracy    <      14.38279633 Ry

     iteration # 96     ecut=    30.00 Ry     beta=0.70
     Davidson diagonalization with overlap
     ethr =  1.00E-02,  avg # of iterations =  5.0

     negative rho (up, down):  7.392E-05 0.000E+00

     total cpu time spent up to now is       34.5 secs

     total energy              =     -35.25732416 Ry
     Harris-Foulkes estimate   =     -36.63183382 Ry
     estimated scf accuracy    <      13.49105171 Ry

     iteration # 97     ecut=    30.00 Ry     beta=0.70
     Davidson diagonalization with overlap
     ethr =  1.00E-02,  avg # of iterations =  2.0

     negative rho (up, down):  8.601E-03 0.000E+00

     total cpu time spent up to now is       34.5 secs

     total energy              =     -33.43505842 Ry
     Harris-Foulkes estimate   =     -35.36507829 Ry
     estimated scf accuracy    <       9.65182821 Ry

     iteration # 98     ecut=    30.00 Ry     beta=0.70
     Davidson diagonalization with overlap
     ethr =  1.00E-02,  avg # of iterations =  3.0

     negative rho (up, down):  5.719E-03 0.000E+00

     total cpu time spent up to now is       34.6 secs

     total energy              =     -33.54615372 Ry
     Harris-Foulkes estimate   =     -34.09466216 Ry
     estimated scf accuracy    <       5.77559828 Ry

     iteration # 99     ecut=    30.00 Ry     beta=0.70
     Davidson diagonalization with overlap
     ethr =  1.00E-02,  avg # of iterations =  1.0

     negative rho (up, down):  3.349E-03 0.000E+00

     total cpu time spent up to now is       34.6 secs

     total energy              =     -33.28738507 Ry
     Harris-Foulkes estimate   =     -33.83211838 Ry
     estimated scf accuracy    <       5.77896998 Ry

     iteration #100     ecut=    30.00 Ry     beta=0.70
     Davidson diagonalization with overlap
     ethr =  1.00E-02,  avg # of iterations =  1.0

     negative rho (up, down):  1.608E-01 0.000E+00

     total cpu time spent up to now is       34.6 secs

     total energy              =     -43.91961881 Ry
     Harris-Foulkes estimate   =     -33.61373754 Ry
     estimated scf accuracy    <       5.29402156 Ry

     End of self-consistent calculation

     convergence NOT achieved after 100 iterations: stopping

     Writing output data file pwscf.save
 
     init_run     :      0.09s CPU      0.11s WALL (       1 calls)
     electrons    :     22.30s CPU     29.35s WALL (      19 calls)
     update_pot   :      2.27s CPU      3.41s WALL (      18 calls)
     forces       :      0.48s CPU      0.56s WALL (      18 calls)

     Called by init_run:
     wfcinit      :      0.01s CPU      0.02s WALL (       1 calls)
     potinit      :      0.03s CPU      0.03s WALL (       1 calls)

     Called by electrons:
     c_bands      :      9.82s CPU     10.86s WALL (     684 calls)
     sum_band     :      1.99s CPU      2.16s WALL (     684 calls)
     v_of_rho     :      4.84s CPU      5.31s WALL (     703 calls)
     mix_rho      :      4.74s CPU      8.30s WALL (     684 calls)

     Called by c_bands:
     init_us_2    :      0.06s CPU      0.08s WALL (    1369 calls)
     cegterg      :      9.67s CPU     10.46s WALL (     684 calls)

     Called by sum_band:

     Called by *egterg:
     h_psi        :      8.18s CPU      8.78s WALL (    2840 calls)
     g_psi        :      0.08s CPU      0.08s WALL (    2155 calls)
     cdiaghg      :      0.54s CPU      0.59s WALL (    2821 calls)

     Called by h_psi:
     h_psi:pot    :      8.13s CPU      8.73s WALL (    2840 calls)
     h_psi:calbec :      0.13s CPU      0.43s WALL (    2840 calls)
     vloc_psi     :      7.96s CPU      8.26s WALL (    2840 calls)
     add_vuspsi   :      0.02s CPU      0.03s WALL (    2840 calls)

     General routines
     calbec       :      0.26s CPU      0.62s WALL (    2929 calls)
     fft          :      3.09s CPU      3.33s WALL (    7769 calls)
     fftw         :      8.44s CPU      8.82s WALL (   37570 calls)
     davcio       :      0.76s CPU      2.98s WALL (   12002 calls)
 
     Parallel routines
     fft_scatter  :      4.36s CPU      4.72s WALL (   45339 calls)
 
     PWSCF        :    25.68s CPU        34.72s WALL

 
   This run was terminated on:   2: 8:14  11Feb2018            

=------------------------------------------------------------------------------=
   JOB DONE.
=------------------------------------------------------------------------------=
