
     Program PWSCF v.6.0 (svn rev. 13079) starts on 11Feb2018 at  2:42: 9 

     This program is part of the open-source Quantum ESPRESSO suite
     for quantum simulation of materials; please cite
         "P. Giannozzi et al., J. Phys.:Condens. Matter 21 395502 (2009);
          URL http://www.quantum-espresso.org", 
     in publications or presentations arising from this work. More details at
     http://www.quantum-espresso.org/quote

     Parallel version (MPI), running on    28 processors
     R & G space division:  proc/nbgrp/npool/nimage =      28
     Reading input from inputs/water-1-md/538.in

     Current dimensions of program PWSCF are:
     Max number of different atomic species (ntypx) = 10
     Max number of k-points (npk) =  40000
     Max angular momentum in pseudopotentials (lmaxx) =  3

     Subspace diagonalization in iterative solution of the eigenvalue problem:
     a serial algorithm will be used

 
     Parallelization info
     --------------------
     sticks:   dense  smooth     PW     G-vecs:    dense   smooth      PW
     Min         136     136     33                 6338     6338     787
     Max         137     137     34                 6341     6341     792
     Sum        3809    3809    949               177509   177509   22119
 


     bravais-lattice index     =            1
     lattice parameter (alat)  =      20.0000  a.u.
     unit-cell volume          =    8000.0000 (a.u.)^3
     number of atoms/cell      =            3
     number of atomic types    =            2
     number of electrons       =         8.00
     number of Kohn-Sham states=            8
     kinetic-energy cutoff     =      30.0000  Ry
     charge density cutoff     =     120.0000  Ry
     convergence threshold     =      1.0E-08
     mixing beta               =       0.7000
     number of iterations used =            8  plain     mixing
     Exchange-correlation      = BLYP ( 1  3  1  3 0 0)
     nstep                     =         5000


     celldm(1)=  20.000000  celldm(2)=   0.000000  celldm(3)=   0.000000
     celldm(4)=   0.000000  celldm(5)=   0.000000  celldm(6)=   0.000000

     crystal axes: (cart. coord. in units of alat)
               a(1) = (   1.000000   0.000000   0.000000 )  
               a(2) = (   0.000000   1.000000   0.000000 )  
               a(3) = (   0.000000   0.000000   1.000000 )  

     reciprocal axes: (cart. coord. in units 2 pi/alat)
               b(1) = (  1.000000  0.000000  0.000000 )  
               b(2) = (  0.000000  1.000000  0.000000 )  
               b(3) = (  0.000000  0.000000  1.000000 )  


     PseudoPot. # 1 for  H read from file:
     ./H.blyp-hgh.UPF
     MD5 check sum: c576e69559cde411e611be972c763230
     Pseudo is Norm-conserving, Zval =  1.0
     Generated in analytical, separable form
     Using radial grid of  929 points,  0 beta functions with: 

     PseudoPot. # 2 for  O read from file:
     ./O.blyp-hgh.UPF
     MD5 check sum: d0b7156309aa9befef28faac7bc56342
     Pseudo is Norm-conserving, Zval =  6.0
     Generated in analytical, separable form
     Using radial grid of 1095 points,  1 beta functions with: 
                l(1) =   0

     atomic species   valence    mass     pseudopotential
        H              1.00     1.01000      H( 1.00)
        O              6.00    16.00000      O( 1.00)

     No symmetry found



   Cartesian axes

     site n.     atom                  positions (alat units)
         1           H   tau(   1) = (   0.2862150   0.3188020   0.5389749  )
         2           H   tau(   2) = (   0.6246622   0.9452318   0.9165859  )
         3           O   tau(   3) = (   0.2772859   0.3309501   0.7888195  )

     number of k points=     1  Marzari-Vanderbilt smearing, width (Ry)=  0.0250
                       cart. coord. in units 2pi/alat
        k(    1) = (   0.0000000   0.0000000   0.0000000), wk =   2.0000000

     Dense  grid:   177509 G-vectors     FFT dimensions: (  72,  72,  72)

     Estimated max dynamical RAM per process >       6.09Mb

     Estimated total allocated dynamical RAM >     170.64Mb

     Initial potential from superposition of free atoms
     Check: negative starting charge=   -0.341731

     starting charge    7.99998, renormalised to    8.00000

     negative rho (up, down):  3.417E-01 0.000E+00
     Starting wfc are    6 randomized atomic wfcs +    2 random wfc

     total cpu time spent up to now is        0.2 secs

     per-process dynamical memory:    18.8 Mb

     Self-consistent Calculation

     iteration #  1     ecut=    30.00 Ry     beta=0.70
     Davidson diagonalization with overlap
     ethr =  1.00E-02,  avg # of iterations =  7.0

     negative rho (up, down):  8.322E-02 0.000E+00

     total cpu time spent up to now is        0.3 secs

     total energy              =     -28.99094257 Ry
     Harris-Foulkes estimate   =     -32.08125742 Ry
     estimated scf accuracy    <       3.56032152 Ry

     iteration #  2     ecut=    30.00 Ry     beta=0.70
     Davidson diagonalization with overlap
     ethr =  1.00E-02,  avg # of iterations =  4.0

     negative rho (up, down):  6.152E-02 0.000E+00

     total cpu time spent up to now is        0.3 secs

     total energy              =     -32.21303550 Ry
     Harris-Foulkes estimate   =     -36.47820151 Ry
     estimated scf accuracy    <      10.72789504 Ry

     iteration #  3     ecut=    30.00 Ry     beta=0.70
     Davidson diagonalization with overlap
     ethr =  1.00E-02,  avg # of iterations =  4.0

     negative rho (up, down):  6.521E-02 0.000E+00

     total cpu time spent up to now is        0.4 secs

     total energy              =     -32.83106950 Ry
     Harris-Foulkes estimate   =     -32.52894090 Ry
     estimated scf accuracy    <       3.96222731 Ry

     iteration #  4     ecut=    30.00 Ry     beta=0.70
     Davidson diagonalization with overlap
     ethr =  1.00E-02,  avg # of iterations =  1.0

     negative rho (up, down):  2.567E-02 0.000E+00

     total cpu time spent up to now is        0.4 secs

     total energy              =     -30.44548492 Ry
     Harris-Foulkes estimate   =     -32.83336814 Ry
     estimated scf accuracy    <       4.46156994 Ry

     iteration #  5     ecut=    30.00 Ry     beta=0.70
     Davidson diagonalization with overlap
     ethr =  1.00E-02,  avg # of iterations =  2.0

     negative rho (up, down):  4.643E-03 0.000E+00

     total cpu time spent up to now is        0.4 secs

     total energy              =     -32.38485383 Ry
     Harris-Foulkes estimate   =     -32.90363738 Ry
     estimated scf accuracy    <       8.52109331 Ry

     iteration #  6     ecut=    30.00 Ry     beta=0.70
     Davidson diagonalization with overlap
     ethr =  1.00E-02,  avg # of iterations =  1.0

     negative rho (up, down):  1.014E-02 0.000E+00

     total cpu time spent up to now is        0.5 secs

     total energy              =     -32.49207361 Ry
     Harris-Foulkes estimate   =     -32.51242640 Ry
     estimated scf accuracy    <       4.99331259 Ry

     iteration #  7     ecut=    30.00 Ry     beta=0.70
     Davidson diagonalization with overlap
     ethr =  1.00E-02,  avg # of iterations =  1.0

     negative rho (up, down):  5.117E-02 0.000E+00

     total cpu time spent up to now is        0.5 secs

     total energy              =     -31.80550496 Ry
     Harris-Foulkes estimate   =     -32.49343029 Ry
     estimated scf accuracy    <       4.94070717 Ry

     iteration #  8     ecut=    30.00 Ry     beta=0.70
     Davidson diagonalization with overlap
     ethr =  1.00E-02,  avg # of iterations =  1.0

     negative rho (up, down):  7.453E-02 0.000E+00

     total cpu time spent up to now is        0.5 secs

     total energy              =     -31.41871861 Ry
     Harris-Foulkes estimate   =     -31.82760260 Ry
     estimated scf accuracy    <       3.40811651 Ry

     iteration #  9     ecut=    30.00 Ry     beta=0.70
     Davidson diagonalization with overlap
     ethr =  1.00E-02,  avg # of iterations =  1.0

     negative rho (up, down):  7.479E-02 0.000E+00

     total cpu time spent up to now is        0.5 secs

     total energy              =     -31.51897302 Ry
     Harris-Foulkes estimate   =     -31.58413407 Ry
     estimated scf accuracy    <       1.15457504 Ry

     iteration # 10     ecut=    30.00 Ry     beta=0.70
     Davidson diagonalization with overlap
     ethr =  1.00E-02,  avg # of iterations =  1.0

     negative rho (up, down):  4.133E-02 0.000E+00

     total cpu time spent up to now is        0.6 secs

     total energy              =     -31.59160897 Ry
     Harris-Foulkes estimate   =     -31.56311165 Ry
     estimated scf accuracy    <       0.54090539 Ry

     iteration # 11     ecut=    30.00 Ry     beta=0.70
     Davidson diagonalization with overlap
     ethr =  6.76E-03,  avg # of iterations =  1.0

     negative rho (up, down):  5.316E-03 0.000E+00

     total cpu time spent up to now is        0.6 secs

     total energy              =     -31.67966417 Ry
     Harris-Foulkes estimate   =     -31.62654845 Ry
     estimated scf accuracy    <       2.40738725 Ry

     iteration # 12     ecut=    30.00 Ry     beta=0.70
     Davidson diagonalization with overlap
     ethr =  6.76E-03,  avg # of iterations =  1.0

     negative rho (up, down):  1.736E-04 0.000E+00

     total cpu time spent up to now is        0.6 secs

     total energy              =     -31.37416608 Ry
     Harris-Foulkes estimate   =     -31.68354322 Ry
     estimated scf accuracy    <       2.87332520 Ry

     iteration # 13     ecut=    30.00 Ry     beta=0.70
     Davidson diagonalization with overlap
     ethr =  6.76E-03,  avg # of iterations =  1.0

     total cpu time spent up to now is        0.7 secs

     total energy              =     -31.59409876 Ry
     Harris-Foulkes estimate   =     -31.64100522 Ry
     estimated scf accuracy    <       1.31812286 Ry

     iteration # 14     ecut=    30.00 Ry     beta=0.70
     Davidson diagonalization with overlap
     ethr =  6.76E-03,  avg # of iterations =  1.0

     negative rho (up, down):  1.494E-04 0.000E+00

     total cpu time spent up to now is        0.7 secs

     total energy              =     -31.54424615 Ry
     Harris-Foulkes estimate   =     -31.61405058 Ry
     estimated scf accuracy    <       0.78908410 Ry

     iteration # 15     ecut=    30.00 Ry     beta=0.70
     Davidson diagonalization with overlap
     ethr =  6.76E-03,  avg # of iterations =  1.0

     negative rho (up, down):  2.523E-04 0.000E+00

     total cpu time spent up to now is        0.7 secs

     total energy              =     -31.58952887 Ry
     Harris-Foulkes estimate   =     -31.56736999 Ry
     estimated scf accuracy    <       0.52617709 Ry

     iteration # 16     ecut=    30.00 Ry     beta=0.70
     Davidson diagonalization with overlap
     ethr =  6.58E-03,  avg # of iterations =  1.0

     negative rho (up, down):  5.440E-04 0.000E+00

     total cpu time spent up to now is        0.8 secs

     total energy              =     -31.68815730 Ry
     Harris-Foulkes estimate   =     -31.62157044 Ry
     estimated scf accuracy    <       2.50030703 Ry

     iteration # 17     ecut=    30.00 Ry     beta=0.70
     Davidson diagonalization with overlap
     ethr =  6.58E-03,  avg # of iterations =  1.0

     negative rho (up, down):  5.915E-07 0.000E+00

     total cpu time spent up to now is        0.8 secs

     total energy              =     -31.57954558 Ry
     Harris-Foulkes estimate   =     -31.68410969 Ry
     estimated scf accuracy    <       2.08183394 Ry

     iteration # 18     ecut=    30.00 Ry     beta=0.70
     Davidson diagonalization with overlap
     ethr =  6.58E-03,  avg # of iterations =  1.0

     total cpu time spent up to now is        0.8 secs

     total energy              =     -31.47279946 Ry
     Harris-Foulkes estimate   =     -31.57750614 Ry
     estimated scf accuracy    <       1.72419501 Ry

     iteration # 19     ecut=    30.00 Ry     beta=0.70
     Davidson diagonalization with overlap
     ethr =  6.58E-03,  avg # of iterations =  1.0

     negative rho (up, down):  2.268E-07 0.000E+00

     total cpu time spent up to now is        0.9 secs

     total energy              =     -31.63824929 Ry
     Harris-Foulkes estimate   =     -31.59798088 Ry
     estimated scf accuracy    <       0.78775659 Ry

     iteration # 20     ecut=    30.00 Ry     beta=0.70
     Davidson diagonalization with overlap
     ethr =  6.58E-03,  avg # of iterations =  1.0

     negative rho (up, down):  7.022E-05 0.000E+00

     total cpu time spent up to now is        0.9 secs

     total energy              =     -31.67469167 Ry
     Harris-Foulkes estimate   =     -31.63841818 Ry
     estimated scf accuracy    <       0.84574662 Ry

     iteration # 21     ecut=    30.00 Ry     beta=0.70
     Davidson diagonalization with overlap
     ethr =  6.58E-03,  avg # of iterations =  1.0

     negative rho (up, down):  9.552E-05 0.000E+00

     total cpu time spent up to now is        0.9 secs

     total energy              =     -31.72471943 Ry
     Harris-Foulkes estimate   =     -31.67775498 Ry
     estimated scf accuracy    <       1.07629151 Ry

     iteration # 22     ecut=    30.00 Ry     beta=0.70
     Davidson diagonalization with overlap
     ethr =  6.58E-03,  avg # of iterations =  1.0

     total cpu time spent up to now is        1.0 secs

     total energy              =     -31.68524901 Ry
     Harris-Foulkes estimate   =     -31.72501304 Ry
     estimated scf accuracy    <       1.20570304 Ry

     iteration # 23     ecut=    30.00 Ry     beta=0.70
     Davidson diagonalization with overlap
     ethr =  6.58E-03,  avg # of iterations =  1.0

     negative rho (up, down):  1.883E-07 0.000E+00

     total cpu time spent up to now is        1.0 secs

     total energy              =     -31.70325572 Ry
     Harris-Foulkes estimate   =     -31.68552422 Ry
     estimated scf accuracy    <       1.08442668 Ry

     iteration # 24     ecut=    30.00 Ry     beta=0.70
     Davidson diagonalization with overlap
     ethr =  6.58E-03,  avg # of iterations =  1.0

     negative rho (up, down):  1.588E-05 0.000E+00

     total cpu time spent up to now is        1.0 secs

     total energy              =     -31.70585415 Ry
     Harris-Foulkes estimate   =     -31.70328259 Ry
     estimated scf accuracy    <       1.12459251 Ry

     iteration # 25     ecut=    30.00 Ry     beta=0.70
     Davidson diagonalization with overlap
     ethr =  6.58E-03,  avg # of iterations =  1.0

     negative rho (up, down):  3.459E-06 0.000E+00

     total cpu time spent up to now is        1.1 secs

     total energy              =     -31.70413217 Ry
     Harris-Foulkes estimate   =     -31.70585858 Ry
     estimated scf accuracy    <       1.12035444 Ry

     iteration # 26     ecut=    30.00 Ry     beta=0.70
     Davidson diagonalization with overlap
     ethr =  6.58E-03,  avg # of iterations =  1.0

     negative rho (up, down):  7.625E-04 0.000E+00

     total cpu time spent up to now is        1.1 secs

     total energy              =     -31.71123259 Ry
     Harris-Foulkes estimate   =     -31.70413307 Ry
     estimated scf accuracy    <       1.12258331 Ry

     iteration # 27     ecut=    30.00 Ry     beta=0.70
     Davidson diagonalization with overlap
     ethr =  6.58E-03,  avg # of iterations =  1.0

     negative rho (up, down):  6.706E-02 0.000E+00

     total cpu time spent up to now is        1.1 secs

     total energy              =     -30.99679207 Ry
     Harris-Foulkes estimate   =     -31.71130823 Ry
     estimated scf accuracy    <       1.09188912 Ry

     iteration # 28     ecut=    30.00 Ry     beta=0.70
     Davidson diagonalization with overlap
     ethr =  6.58E-03,  avg # of iterations =  3.0

     negative rho (up, down):  7.479E-08 0.000E+00

     total cpu time spent up to now is        1.2 secs

     total energy              =     -31.46677950 Ry
     Harris-Foulkes estimate   =     -33.00006613 Ry
     estimated scf accuracy    <       7.86294003 Ry

     iteration # 29     ecut=    30.00 Ry     beta=0.70
     Davidson diagonalization with overlap
     ethr =  6.58E-03,  avg # of iterations =  2.0

     total cpu time spent up to now is        1.2 secs

     total energy              =     -31.78068421 Ry
     Harris-Foulkes estimate   =     -31.94296068 Ry
     estimated scf accuracy    <       1.92737345 Ry

     iteration # 30     ecut=    30.00 Ry     beta=0.70
     Davidson diagonalization with overlap
     ethr =  6.58E-03,  avg # of iterations =  1.0

     total cpu time spent up to now is        1.2 secs

     total energy              =     -31.61510121 Ry
     Harris-Foulkes estimate   =     -31.78380409 Ry
     estimated scf accuracy    <       1.59897639 Ry

     iteration # 31     ecut=    30.00 Ry     beta=0.70
     Davidson diagonalization with overlap
     ethr =  6.58E-03,  avg # of iterations =  1.0

     total cpu time spent up to now is        1.3 secs

     total energy              =     -31.48126401 Ry
     Harris-Foulkes estimate   =     -31.61767856 Ry
     estimated scf accuracy    <       1.32939296 Ry

     iteration # 32     ecut=    30.00 Ry     beta=0.70
     Davidson diagonalization with overlap
     ethr =  6.58E-03,  avg # of iterations =  1.0

     negative rho (up, down):  6.519E-05 0.000E+00

     total cpu time spent up to now is        1.3 secs

     total energy              =     -31.59861556 Ry
     Harris-Foulkes estimate   =     -31.58901113 Ry
     estimated scf accuracy    <       0.91496747 Ry

     iteration # 33     ecut=    30.00 Ry     beta=0.70
     Davidson diagonalization with overlap
     ethr =  6.58E-03,  avg # of iterations =  1.0

     total cpu time spent up to now is        1.3 secs

     total energy              =     -31.53032050 Ry
     Harris-Foulkes estimate   =     -31.59867150 Ry
     estimated scf accuracy    <       0.94365201 Ry

     iteration # 34     ecut=    30.00 Ry     beta=0.70
     Davidson diagonalization with overlap
     ethr =  6.58E-03,  avg # of iterations =  1.0

     total cpu time spent up to now is        1.4 secs

     total energy              =     -31.55264978 Ry
     Harris-Foulkes estimate   =     -31.55385346 Ry
     estimated scf accuracy    <       0.10399392 Ry

     iteration # 35     ecut=    30.00 Ry     beta=0.70
     Davidson diagonalization with overlap
     ethr =  1.30E-03,  avg # of iterations =  1.0

     total cpu time spent up to now is        1.4 secs

     total energy              =     -31.55150653 Ry
     Harris-Foulkes estimate   =     -31.55292049 Ry
     estimated scf accuracy    <       0.03148359 Ry

     iteration # 36     ecut=    30.00 Ry     beta=0.70
     Davidson diagonalization with overlap
     ethr =  3.94E-04,  avg # of iterations =  1.0

     total cpu time spent up to now is        1.4 secs

     total energy              =     -31.55201782 Ry
     Harris-Foulkes estimate   =     -31.55272248 Ry
     estimated scf accuracy    <       0.01699910 Ry

     iteration # 37     ecut=    30.00 Ry     beta=0.70
     Davidson diagonalization with overlap
     ethr =  2.12E-04,  avg # of iterations =  1.0

     total cpu time spent up to now is        1.5 secs

     total energy              =     -31.55121649 Ry
     Harris-Foulkes estimate   =     -31.55260100 Ry
     estimated scf accuracy    <       0.00722292 Ry

     iteration # 38     ecut=    30.00 Ry     beta=0.70
     Davidson diagonalization with overlap
     ethr =  9.03E-05,  avg # of iterations =  5.0

     total cpu time spent up to now is        1.5 secs

     total energy              =     -31.55724749 Ry
     Harris-Foulkes estimate   =     -31.55669172 Ry
     estimated scf accuracy    <       0.27451520 Ry

     iteration # 39     ecut=    30.00 Ry     beta=0.70
     Davidson diagonalization with overlap
     ethr =  9.03E-05,  avg # of iterations =  1.0

     total cpu time spent up to now is        1.5 secs

     total energy              =     -31.54529607 Ry
     Harris-Foulkes estimate   =     -31.55726789 Ry
     estimated scf accuracy    <       0.30483675 Ry

     iteration # 40     ecut=    30.00 Ry     beta=0.70
     Davidson diagonalization with overlap
     ethr =  9.03E-05,  avg # of iterations =  1.0

     total cpu time spent up to now is        1.6 secs

     total energy              =     -31.55186286 Ry
     Harris-Foulkes estimate   =     -31.55317018 Ry
     estimated scf accuracy    <       0.05090683 Ry

     iteration # 41     ecut=    30.00 Ry     beta=0.70
     Davidson diagonalization with overlap
     ethr =  9.03E-05,  avg # of iterations =  1.0

     total cpu time spent up to now is        1.6 secs

     total energy              =     -31.55249548 Ry
     Harris-Foulkes estimate   =     -31.55251312 Ry
     estimated scf accuracy    <       0.00013415 Ry

     iteration # 42     ecut=    30.00 Ry     beta=0.70
     Davidson diagonalization with overlap
     ethr =  1.68E-06,  avg # of iterations = 17.0

     total cpu time spent up to now is        1.6 secs

     total energy              =     -31.55236967 Ry
     Harris-Foulkes estimate   =     -31.55276033 Ry
     estimated scf accuracy    <       0.02002680 Ry

     iteration # 43     ecut=    30.00 Ry     beta=0.70
     Davidson diagonalization with overlap
     ethr =  1.68E-06,  avg # of iterations =  1.0

     total cpu time spent up to now is        1.7 secs

     total energy              =     -31.55247619 Ry
     Harris-Foulkes estimate   =     -31.55251505 Ry
     estimated scf accuracy    <       0.00144619 Ry

     iteration # 44     ecut=    30.00 Ry     beta=0.70
     Davidson diagonalization with overlap
     ethr =  1.68E-06,  avg # of iterations =  1.0

     total cpu time spent up to now is        1.7 secs

     total energy              =     -31.55249719 Ry
     Harris-Foulkes estimate   =     -31.55249692 Ry
     estimated scf accuracy    <       0.00001003 Ry

     iteration # 45     ecut=    30.00 Ry     beta=0.70
     Davidson diagonalization with overlap
     ethr =  1.25E-07,  avg # of iterations =  1.0

     total cpu time spent up to now is        1.7 secs

     total energy              =     -31.55249761 Ry
     Harris-Foulkes estimate   =     -31.55249740 Ry
     estimated scf accuracy    <       0.00000063 Ry

     iteration # 46     ecut=    30.00 Ry     beta=0.70
     Davidson diagonalization with overlap
     ethr =  7.86E-09,  avg # of iterations =  1.0

     total cpu time spent up to now is        1.8 secs

     total energy              =     -31.55249771 Ry
     Harris-Foulkes estimate   =     -31.55249764 Ry
     estimated scf accuracy    <       0.00000364 Ry

     iteration # 47     ecut=    30.00 Ry     beta=0.70
     Davidson diagonalization with overlap
     ethr =  7.86E-09,  avg # of iterations =  1.0

     total cpu time spent up to now is        1.8 secs

     total energy              =     -31.55249765 Ry
     Harris-Foulkes estimate   =     -31.55249771 Ry
     estimated scf accuracy    <       0.00000212 Ry

     iteration # 48     ecut=    30.00 Ry     beta=0.70
     Davidson diagonalization with overlap
     ethr =  7.86E-09,  avg # of iterations =  1.0

     total cpu time spent up to now is        1.8 secs

     total energy              =     -31.55249770 Ry
     Harris-Foulkes estimate   =     -31.55249767 Ry
     estimated scf accuracy    <       0.00000003 Ry

     iteration # 49     ecut=    30.00 Ry     beta=0.70
     Davidson diagonalization with overlap
     ethr =  3.68E-10,  avg # of iterations =  1.0

     total cpu time spent up to now is        1.9 secs

     End of self-consistent calculation

          k = 0.0000 0.0000 0.0000 ( 22119 PWs)   bands (ev):

   -23.5953  -7.6112  -6.9367  -6.9360  -6.8077  -6.4397  -0.1605   0.7676

     the Fermi energy is    -6.7764 ev

!    total energy              =     -31.55249771 Ry
     Harris-Foulkes estimate   =     -31.55249770 Ry
     estimated scf accuracy    <          6.1E-10 Ry

     convergence has been achieved in  49 iterations

     Forces acting on atoms (Ry/au):

     atom    1 type  1   force =    -0.00186875    0.00358022    0.05717156
     atom    2 type  1   force =     0.00013027    0.00084492    0.00040224
     atom    3 type  2   force =     0.00173849   -0.00442514   -0.05757379

     Total force =     0.081383     Total SCF correction =     0.000029

     Molecular Dynamics Calculation

     Starting temperature  =  1000.00 K

     temperature is controlled by Andersen thermostat
     Collision frequency = 1.0000/timestep
     mass H                =     1.01
     mass O                =    16.00
     Time step             =   100.00 a.u.,  4.8378 femto-seconds

     Entering Dynamics:    iteration =     1
                           time      =   0.0048 pico-seconds


     Andersen thermostat:    3 collisions

ATOMIC_POSITIONS (bohr)
H        5.945707976   6.672026071  10.891896544
H       12.500482926  19.138239158  18.145006621
O        5.531284664   6.585571680  15.781080998


     kinetic energy (Ekin) =     0.01319564 Ry
     temperature           =   694.47456190 K 
     Ekin + Etot (const)   =   -31.53930207 Ry

     Linear momentum :   -0.0000000000   -0.0000000000   -0.0000000000

     Writing output data file pwscf.save
     Check: negative starting charge=   -0.341731
     NEW-OLD atomic charge density approx. for the potential
     Check: negative starting charge=   -0.341728

     negative rho (up, down):  7.024E-02 0.000E+00

     total cpu time spent up to now is        2.1 secs

     per-process dynamical memory:    20.4 Mb

     Self-consistent Calculation

     iteration #  1     ecut=    30.00 Ry     beta=0.70
     Davidson diagonalization with overlap
     c_bands:  1 eigenvalues not converged
     ethr =  1.00E-06,  avg # of iterations = 20.0

     negative rho (up, down):  1.667E-02 0.000E+00

     total cpu time spent up to now is        2.2 secs

     total energy              =     -31.52318015 Ry
     Harris-Foulkes estimate   =     -31.50083876 Ry
     estimated scf accuracy    <       0.02658211 Ry

     iteration #  2     ecut=    30.00 Ry     beta=0.70
     Davidson diagonalization with overlap
     ethr =  3.32E-04,  avg # of iterations =  2.0

     negative rho (up, down):  1.552E-02 0.000E+00

     total cpu time spent up to now is        2.3 secs

     total energy              =     -31.49260485 Ry
     Harris-Foulkes estimate   =     -31.81036374 Ry
     estimated scf accuracy    <       3.42480559 Ry

     iteration #  3     ecut=    30.00 Ry     beta=0.70
     Davidson diagonalization with overlap
     ethr =  3.32E-04,  avg # of iterations =  2.0

     negative rho (up, down):  1.109E-02 0.000E+00

     total cpu time spent up to now is        2.3 secs

     total energy              =     -31.54545488 Ry
     Harris-Foulkes estimate   =     -31.54494810 Ry
     estimated scf accuracy    <       0.07683869 Ry

     iteration #  4     ecut=    30.00 Ry     beta=0.70
     Davidson diagonalization with overlap
     ethr =  3.32E-04,  avg # of iterations =  1.0

     negative rho (up, down):  6.646E-03 0.000E+00

     total cpu time spent up to now is        2.3 secs

     total energy              =     -31.55208506 Ry
     Harris-Foulkes estimate   =     -31.55276332 Ry
     estimated scf accuracy    <       0.21361339 Ry

     iteration #  5     ecut=    30.00 Ry     beta=0.70
     Davidson diagonalization with overlap
     ethr =  3.32E-04,  avg # of iterations =  1.0

     negative rho (up, down):  1.329E-03 0.000E+00

     total cpu time spent up to now is        2.3 secs

     total energy              =     -31.55548555 Ry
     Harris-Foulkes estimate   =     -31.55417933 Ry
     estimated scf accuracy    <       0.10743580 Ry

     iteration #  6     ecut=    30.00 Ry     beta=0.70
     Davidson diagonalization with overlap
     ethr =  3.32E-04,  avg # of iterations =  3.0

     negative rho (up, down):  4.759E-05 0.000E+00

     total cpu time spent up to now is        2.4 secs

     total energy              =     -31.55774728 Ry
     Harris-Foulkes estimate   =     -31.55840971 Ry
     estimated scf accuracy    <       0.02605190 Ry

     iteration #  7     ecut=    30.00 Ry     beta=0.70
     Davidson diagonalization with overlap
     ethr =  3.26E-04,  avg # of iterations =  1.0

     negative rho (up, down):  1.057E-05 0.000E+00

     total cpu time spent up to now is        2.4 secs

     total energy              =     -31.55839675 Ry
     Harris-Foulkes estimate   =     -31.55859860 Ry
     estimated scf accuracy    <       0.01056185 Ry

     iteration #  8     ecut=    30.00 Ry     beta=0.70
     Davidson diagonalization with overlap
     ethr =  1.32E-04,  avg # of iterations =  1.0

     negative rho (up, down):  2.262E-07 0.000E+00

     total cpu time spent up to now is        2.5 secs

     total energy              =     -31.55847216 Ry
     Harris-Foulkes estimate   =     -31.55847763 Ry
     estimated scf accuracy    <       0.00046962 Ry

     iteration #  9     ecut=    30.00 Ry     beta=0.70
     Davidson diagonalization with overlap
     c_bands:  1 eigenvalues not converged
     ethr =  5.87E-06,  avg # of iterations = 20.0

     total cpu time spent up to now is        2.5 secs

     total energy              =     -31.55847474 Ry
     Harris-Foulkes estimate   =     -31.55847609 Ry
     estimated scf accuracy    <       0.00001946 Ry

     iteration # 10     ecut=    30.00 Ry     beta=0.70
     Davidson diagonalization with overlap
     ethr =  2.43E-07,  avg # of iterations = 10.0

     total cpu time spent up to now is        2.5 secs

     total energy              =     -31.55847480 Ry
     Harris-Foulkes estimate   =     -31.55847505 Ry
     estimated scf accuracy    <       0.00000007 Ry

     iteration # 11     ecut=    30.00 Ry     beta=0.70
     Davidson diagonalization with overlap
     ethr =  9.00E-10,  avg # of iterations =  2.0

     total cpu time spent up to now is        2.6 secs

     total energy              =     -31.55847473 Ry
     Harris-Foulkes estimate   =     -31.55847484 Ry
     estimated scf accuracy    <       0.00000189 Ry

     iteration # 12     ecut=    30.00 Ry     beta=0.70
     Davidson diagonalization with overlap
     ethr =  9.00E-10,  avg # of iterations =  1.0

     total cpu time spent up to now is        2.6 secs

     End of self-consistent calculation

          k = 0.0000 0.0000 0.0000 ( 22119 PWs)   bands (ev):

   -23.5896  -7.6618  -6.9256  -6.9247  -6.7934  -6.3992  -0.1564   0.7734

     the Fermi energy is    -6.7621 ev

!    total energy              =     -31.55847467 Ry
     Harris-Foulkes estimate   =     -31.55847475 Ry
     estimated scf accuracy    <          1.6E-09 Ry

     convergence has been achieved in  12 iterations

     Forces acting on atoms (Ry/au):

     atom    1 type  1   force =    -0.00516444   -0.00026306    0.06274628
     atom    2 type  1   force =     0.00024368    0.00095157    0.00017476
     atom    3 type  2   force =     0.00492076   -0.00068851   -0.06292104

     Total force =     0.089155     Total SCF correction =     0.000299

     Entering Dynamics:    iteration =     2
                           time      =   0.0097 pico-seconds


     Andersen thermostat:    3 collisions

ATOMIC_POSITIONS (bohr)
H        5.942020518   6.845318283  11.718638081
H       12.566386458  18.994725351  18.323146281
O        5.527357275   6.583691918  15.717647872


     kinetic energy (Ekin) =     0.01916434 Ry
     temperature           =  1008.60223853 K 
     Ekin + Etot (const)   =   -31.53931033 Ry
     Message from routine dynamics:
     Total linear momentum <> 0

     Linear momentum :   -0.0482643422    0.4839037204    0.0463385468

     Writing output data file pwscf.save

     first order wave-functions extrapolation
     Check: negative starting charge=   -0.341728
     first order charge density extrapolation
     Check: negative starting charge=   -0.343186

     negative rho (up, down):  1.607E-01 0.000E+00

     total cpu time spent up to now is        2.9 secs

     per-process dynamical memory:    20.4 Mb

     Self-consistent Calculation

     iteration #  1     ecut=    30.00 Ry     beta=0.70
     Davidson diagonalization with overlap
     ethr =  1.00E-06,  avg # of iterations = 15.0

     negative rho (up, down):  4.095E-02 0.000E+00

     total cpu time spent up to now is        3.0 secs

     total energy              =     -29.51870378 Ry
     Harris-Foulkes estimate   =     -32.32243527 Ry
     estimated scf accuracy    <       1.62299478 Ry

     iteration #  2     ecut=    30.00 Ry     beta=0.70
     Davidson diagonalization with overlap
     ethr =  1.00E-02,  avg # of iterations =  3.0

     negative rho (up, down):  2.847E-02 0.000E+00

     total cpu time spent up to now is        3.0 secs

     total energy              =     -31.79359043 Ry
     Harris-Foulkes estimate   =     -33.10800428 Ry
     estimated scf accuracy    <       3.51423674 Ry

     iteration #  3     ecut=    30.00 Ry     beta=0.70
     Davidson diagonalization with overlap
     ethr =  1.00E-02,  avg # of iterations =  1.0

     negative rho (up, down):  2.629E-02 0.000E+00

     total cpu time spent up to now is        3.1 secs

     total energy              =     -31.75148800 Ry
     Harris-Foulkes estimate   =     -32.23989470 Ry
     estimated scf accuracy    <       3.28600520 Ry

     iteration #  4     ecut=    30.00 Ry     beta=0.70
     Davidson diagonalization with overlap
     ethr =  1.00E-02,  avg # of iterations =  1.0

     negative rho (up, down):  2.382E-02 0.000E+00

     total cpu time spent up to now is        3.1 secs

     total energy              =     -31.78929661 Ry
     Harris-Foulkes estimate   =     -31.91294428 Ry
     estimated scf accuracy    <       1.59663249 Ry

     iteration #  5     ecut=    30.00 Ry     beta=0.70
     Davidson diagonalization with overlap
     ethr =  1.00E-02,  avg # of iterations =  1.0

     negative rho (up, down):  1.165E-02 0.000E+00

     total cpu time spent up to now is        3.1 secs

     total energy              =     -31.52822246 Ry
     Harris-Foulkes estimate   =     -31.79401170 Ry
     estimated scf accuracy    <       0.90449219 Ry

     iteration #  6     ecut=    30.00 Ry     beta=0.70
     Davidson diagonalization with overlap
     ethr =  1.00E-02,  avg # of iterations =  2.0

     negative rho (up, down):  1.302E-02 0.000E+00

     total cpu time spent up to now is        3.2 secs

     total energy              =     -31.60505451 Ry
     Harris-Foulkes estimate   =     -31.65993438 Ry
     estimated scf accuracy    <       0.94875302 Ry

     iteration #  7     ecut=    30.00 Ry     beta=0.70
     Davidson diagonalization with overlap
     ethr =  1.00E-02,  avg # of iterations =  1.0

     negative rho (up, down):  9.278E-03 0.000E+00

     total cpu time spent up to now is        3.2 secs

     total energy              =     -31.63637718 Ry
     Harris-Foulkes estimate   =     -31.67887219 Ry
     estimated scf accuracy    <       0.89610867 Ry

     iteration #  8     ecut=    30.00 Ry     beta=0.70
     Davidson diagonalization with overlap
     ethr =  1.00E-02,  avg # of iterations =  1.0

     negative rho (up, down):  3.495E-04 0.000E+00

     total cpu time spent up to now is        3.2 secs

     total energy              =     -31.60039381 Ry
     Harris-Foulkes estimate   =     -31.64973603 Ry
     estimated scf accuracy    <       0.14963539 Ry

     iteration #  9     ecut=    30.00 Ry     beta=0.70
     Davidson diagonalization with overlap
     ethr =  1.87E-03,  avg # of iterations =  1.0

     negative rho (up, down):  1.436E-03 0.000E+00

     total cpu time spent up to now is        3.3 secs

     total energy              =     -31.63663195 Ry
     Harris-Foulkes estimate   =     -31.66941548 Ry
     estimated scf accuracy    <       1.66332886 Ry

     iteration # 10     ecut=    30.00 Ry     beta=0.70
     Davidson diagonalization with overlap
     ethr =  1.87E-03,  avg # of iterations =  1.0

     negative rho (up, down):  1.071E-05 0.000E+00

     total cpu time spent up to now is        3.3 secs

     total energy              =     -31.62969397 Ry
     Harris-Foulkes estimate   =     -31.64366823 Ry
     estimated scf accuracy    <       0.58883309 Ry

     iteration # 11     ecut=    30.00 Ry     beta=0.70
     Davidson diagonalization with overlap
     ethr =  1.87E-03,  avg # of iterations =  1.0

     negative rho (up, down):  1.659E-06 0.000E+00

     total cpu time spent up to now is        3.3 secs

     total energy              =     -31.63404247 Ry
     Harris-Foulkes estimate   =     -31.63574287 Ry
     estimated scf accuracy    <       0.08166632 Ry

     iteration # 12     ecut=    30.00 Ry     beta=0.70
     Davidson diagonalization with overlap
     ethr =  1.02E-03,  avg # of iterations =  1.0

     negative rho (up, down):  3.249E-07 0.000E+00

     total cpu time spent up to now is        3.4 secs

     total energy              =     -31.63299401 Ry
     Harris-Foulkes estimate   =     -31.63608913 Ry
     estimated scf accuracy    <       0.02003781 Ry

     iteration # 13     ecut=    30.00 Ry     beta=0.70
     Davidson diagonalization with overlap
     ethr =  2.50E-04,  avg # of iterations =  1.0

     total cpu time spent up to now is        3.4 secs

     total energy              =     -31.63439961 Ry
     Harris-Foulkes estimate   =     -31.63450111 Ry
     estimated scf accuracy    <       0.00193988 Ry

     iteration # 14     ecut=    30.00 Ry     beta=0.70
     Davidson diagonalization with overlap
     ethr =  2.42E-05,  avg # of iterations =  9.0

     total cpu time spent up to now is        3.4 secs

     total energy              =     -31.63445318 Ry
     Harris-Foulkes estimate   =     -31.63450740 Ry
     estimated scf accuracy    <       0.00213636 Ry

     iteration # 15     ecut=    30.00 Ry     beta=0.70
     Davidson diagonalization with overlap
     ethr =  2.42E-05,  avg # of iterations =  1.0

     total cpu time spent up to now is        3.5 secs

     total energy              =     -31.63448434 Ry
     Harris-Foulkes estimate   =     -31.63448274 Ry
     estimated scf accuracy    <       0.00000523 Ry

     iteration # 16     ecut=    30.00 Ry     beta=0.70
     Davidson diagonalization with overlap
     ethr =  6.54E-08,  avg # of iterations = 15.0

     total cpu time spent up to now is        3.5 secs

     total energy              =     -31.63448498 Ry
     Harris-Foulkes estimate   =     -31.63448479 Ry
     estimated scf accuracy    <       0.00000625 Ry

     iteration # 17     ecut=    30.00 Ry     beta=0.70
     Davidson diagonalization with overlap
     ethr =  6.54E-08,  avg # of iterations =  1.0

     total cpu time spent up to now is        3.5 secs

     total energy              =     -31.63448506 Ry
     Harris-Foulkes estimate   =     -31.63448504 Ry
     estimated scf accuracy    <       0.00000059 Ry

     iteration # 18     ecut=    30.00 Ry     beta=0.70
     Davidson diagonalization with overlap
     ethr =  7.36E-09,  avg # of iterations =  1.0

     total cpu time spent up to now is        3.6 secs

     End of self-consistent calculation

          k = 0.0000 0.0000 0.0000 ( 22119 PWs)   bands (ev):

   -23.5621  -8.1396  -6.8867  -6.8859  -6.7496  -5.6169  -0.1313   0.8030

     the Fermi energy is    -6.7168 ev

!    total energy              =     -31.63448509 Ry
     Harris-Foulkes estimate   =     -31.63448507 Ry
     estimated scf accuracy    <          7.6E-09 Ry

     convergence has been achieved in  18 iterations

     Forces acting on atoms (Ry/au):

     atom    1 type  1   force =    -0.01072591   -0.00635291    0.10558896
     atom    2 type  1   force =     0.00022547    0.00066708    0.00000190
     atom    3 type  2   force =     0.01050043    0.00568583   -0.10559086

     Total force =     0.150323     Total SCF correction =     0.000042

     Entering Dynamics:    iteration =     3
                           time      =   0.0145 pico-seconds


     Andersen thermostat:    3 collisions

ATOMIC_POSITIONS (bohr)
H        6.047117875   6.493587718  12.954095290
H       12.712192888  19.074528873  18.662117124
O        5.511518973   6.600857313  15.618262101


     kinetic energy (Ekin) =     0.03875308 Ry
     temperature           =  2039.54021283 K 
     Ekin + Etot (const)   =   -31.59573201 Ry
     Message from routine dynamics:
     Total linear momentum <> 0

     Linear momentum :    0.3047675616   -0.3500624036   -0.1369358232

     Writing output data file pwscf.save

     second order wave-functions extrapolation
     Check: negative starting charge=   -0.343186
     second order charge density extrapolation
     Check: negative starting charge=   -0.346201

     negative rho (up, down):  2.011E-01 0.000E+00

     total cpu time spent up to now is        3.9 secs

     per-process dynamical memory:    20.4 Mb

     Self-consistent Calculation

     iteration #  1     ecut=    30.00 Ry     beta=0.70
     Davidson diagonalization with overlap
     c_bands:  1 eigenvalues not converged
     ethr =  1.00E-06,  avg # of iterations = 20.0

     negative rho (up, down):  3.760E-02 0.000E+00

     total cpu time spent up to now is        4.0 secs

     total energy              =     -18.39861102 Ry
     Harris-Foulkes estimate   =     -36.74484326 Ry
     estimated scf accuracy    <       5.19899410 Ry

     iteration #  2     ecut=    30.00 Ry     beta=0.70
     Davidson diagonalization with overlap
     ethr =  1.00E-02,  avg # of iterations =  3.0

     negative rho (up, down):  2.329E-02 0.000E+00

     total cpu time spent up to now is        4.0 secs

     total energy              =     -32.14489776 Ry
     Harris-Foulkes estimate   =     -34.51089302 Ry
     estimated scf accuracy    <       5.12275564 Ry

     iteration #  3     ecut=    30.00 Ry     beta=0.70
     Davidson diagonalization with overlap
     ethr =  1.00E-02,  avg # of iterations =  2.0

     negative rho (up, down):  2.048E-02 0.000E+00

     total cpu time spent up to now is        4.1 secs

     total energy              =     -32.07020693 Ry
     Harris-Foulkes estimate   =     -32.81324120 Ry
     estimated scf accuracy    <       3.29005935 Ry

     iteration #  4     ecut=    30.00 Ry     beta=0.70
     Davidson diagonalization with overlap
     ethr =  1.00E-02,  avg # of iterations =  2.0

     negative rho (up, down):  1.397E-02 0.000E+00

     total cpu time spent up to now is        4.1 secs

     total energy              =     -31.97154252 Ry
     Harris-Foulkes estimate   =     -32.38352521 Ry
     estimated scf accuracy    <       1.93604656 Ry

     iteration #  5     ecut=    30.00 Ry     beta=0.70
     Davidson diagonalization with overlap
     ethr =  1.00E-02,  avg # of iterations =  1.0

     negative rho (up, down):  1.060E-02 0.000E+00

     total cpu time spent up to now is        4.1 secs

     total energy              =     -31.85510945 Ry
     Harris-Foulkes estimate   =     -32.02913882 Ry
     estimated scf accuracy    <       1.25275495 Ry

     iteration #  6     ecut=    30.00 Ry     beta=0.70
     Davidson diagonalization with overlap
     ethr =  1.00E-02,  avg # of iterations =  1.0

     negative rho (up, down):  6.590E-03 0.000E+00

     total cpu time spent up to now is        4.2 secs

     total energy              =     -31.86777159 Ry
     Harris-Foulkes estimate   =     -32.02224522 Ry
     estimated scf accuracy    <       1.39940861 Ry

     iteration #  7     ecut=    30.00 Ry     beta=0.70
     Davidson diagonalization with overlap
     ethr =  1.00E-02,  avg # of iterations =  1.0

     negative rho (up, down):  6.111E-03 0.000E+00

     total cpu time spent up to now is        4.2 secs

     total energy              =     -31.84334653 Ry
     Harris-Foulkes estimate   =     -31.86912325 Ry
     estimated scf accuracy    <       0.87888164 Ry

     iteration #  8     ecut=    30.00 Ry     beta=0.70
     Davidson diagonalization with overlap
     ethr =  1.00E-02,  avg # of iterations =  1.0

     negative rho (up, down):  5.234E-03 0.000E+00

     total cpu time spent up to now is        4.2 secs

     total energy              =     -31.85094820 Ry
     Harris-Foulkes estimate   =     -31.85517964 Ry
     estimated scf accuracy    <       0.11831129 Ry

     iteration #  9     ecut=    30.00 Ry     beta=0.70
     Davidson diagonalization with overlap
     ethr =  1.48E-03,  avg # of iterations =  3.0

     negative rho (up, down):  3.086E-03 0.000E+00

     total cpu time spent up to now is        4.3 secs

     total energy              =     -31.82917489 Ry
     Harris-Foulkes estimate   =     -31.85263168 Ry
     estimated scf accuracy    <       0.25921500 Ry

     iteration # 10     ecut=    30.00 Ry     beta=0.70
     Davidson diagonalization with overlap
     ethr =  1.48E-03,  avg # of iterations =  1.0

     negative rho (up, down):  8.012E-07 0.000E+00

     total cpu time spent up to now is        4.3 secs

     total energy              =     -31.83176755 Ry
     Harris-Foulkes estimate   =     -31.83730360 Ry
     estimated scf accuracy    <       0.17167334 Ry

     iteration # 11     ecut=    30.00 Ry     beta=0.70
     Davidson diagonalization with overlap
     ethr =  1.48E-03,  avg # of iterations =  1.0

     negative rho (up, down):  6.867E-08 0.000E+00

     total cpu time spent up to now is        4.3 secs

     total energy              =     -31.83715564 Ry
     Harris-Foulkes estimate   =     -31.83719487 Ry
     estimated scf accuracy    <       0.00042492 Ry

     iteration # 12     ecut=    30.00 Ry     beta=0.70
     Davidson diagonalization with overlap
     ethr =  5.31E-06,  avg # of iterations = 10.0

     total cpu time spent up to now is        4.4 secs

     total energy              =     -31.83764926 Ry
     Harris-Foulkes estimate   =     -31.83740619 Ry
     estimated scf accuracy    <       0.00784831 Ry

     iteration # 13     ecut=    30.00 Ry     beta=0.70
     Davidson diagonalization with overlap
     ethr =  5.31E-06,  avg # of iterations =  1.0

     total cpu time spent up to now is        4.4 secs

     total energy              =     -31.83707659 Ry
     Harris-Foulkes estimate   =     -31.83778224 Ry
     estimated scf accuracy    <       0.03500190 Ry

     iteration # 14     ecut=    30.00 Ry     beta=0.70
     Davidson diagonalization with overlap
     ethr =  5.31E-06,  avg # of iterations =  1.0

     total cpu time spent up to now is        4.5 secs

     total energy              =     -31.83724046 Ry
     Harris-Foulkes estimate   =     -31.83733842 Ry
     estimated scf accuracy    <       0.00210074 Ry

     iteration # 15     ecut=    30.00 Ry     beta=0.70
     Davidson diagonalization with overlap
     ethr =  5.31E-06,  avg # of iterations =  1.0

     total cpu time spent up to now is        4.5 secs

     total energy              =     -31.83729092 Ry
     Harris-Foulkes estimate   =     -31.83733053 Ry
     estimated scf accuracy    <       0.00148592 Ry

     iteration # 16     ecut=    30.00 Ry     beta=0.70
     Davidson diagonalization with overlap
     ethr =  5.31E-06,  avg # of iterations =  1.0

     total cpu time spent up to now is        4.5 secs

     total energy              =     -31.83731275 Ry
     Harris-Foulkes estimate   =     -31.83731179 Ry
     estimated scf accuracy    <       0.00000550 Ry

     iteration # 17     ecut=    30.00 Ry     beta=0.70
     Davidson diagonalization with overlap
     ethr =  6.87E-08,  avg # of iterations =  1.0

     total cpu time spent up to now is        4.5 secs

     total energy              =     -31.83731282 Ry
     Harris-Foulkes estimate   =     -31.83731322 Ry
     estimated scf accuracy    <       0.00000395 Ry

     iteration # 18     ecut=    30.00 Ry     beta=0.70
     Davidson diagonalization with overlap
     ethr =  4.94E-08,  avg # of iterations =  1.0

     total cpu time spent up to now is        4.6 secs

     total energy              =     -31.83731287 Ry
     Harris-Foulkes estimate   =     -31.83731290 Ry
     estimated scf accuracy    <       0.00000004 Ry

     iteration # 19     ecut=    30.00 Ry     beta=0.70
     Davidson diagonalization with overlap
     ethr =  5.52E-10,  avg # of iterations =  1.0

     total cpu time spent up to now is        4.6 secs

     End of self-consistent calculation

          k = 0.0000 0.0000 0.0000 ( 22119 PWs)   bands (ev):

   -23.7657  -9.4581  -6.9126  -6.9121  -6.7753  -2.6078  -0.0220   0.8811

     the Fermi energy is    -6.7428 ev

!    total energy              =     -31.83731290 Ry
     Harris-Foulkes estimate   =     -31.83731287 Ry
     estimated scf accuracy    <          1.1E-09 Ry

     convergence has been achieved in  19 iterations

     Forces acting on atoms (Ry/au):

     atom    1 type  1   force =    -0.03567414    0.00807870    0.17960131
     atom    2 type  1   force =     0.00048016    0.00086333   -0.00024625
     atom    3 type  2   force =     0.03519398   -0.00894203   -0.17935505

     Total force =     0.259003     Total SCF correction =     0.000027

     Entering Dynamics:    iteration =     4
                           time      =   0.0194 pico-seconds


     Andersen thermostat:    3 collisions

ATOMIC_POSITIONS (bohr)
H        5.648008169   6.445210488  14.814153878
H       12.520571632  18.749087719  18.463941487
O        5.548808865   6.624454598  15.513355740


     kinetic energy (Ekin) =     0.05810041 Ry
     temperature           =  3057.77276820 K 
     Ekin + Etot (const)   =   -31.77921248 Ry
     Message from routine dynamics:
     Total linear momentum <> 0

     Linear momentum :    0.6585480540    0.4524520681   -0.2987964083

     Writing output data file pwscf.save

     second order wave-functions extrapolation
     Check: negative starting charge=   -0.346201
     second order charge density extrapolation
     Check: negative starting charge=   -0.350310

     negative rho (up, down):  5.391E-01 0.000E+00

     total cpu time spent up to now is        4.9 secs

     per-process dynamical memory:    20.4 Mb

     Self-consistent Calculation

     iteration #  1     ecut=    30.00 Ry     beta=0.70
     Davidson diagonalization with overlap
     c_bands:  1 eigenvalues not converged
     ethr =  1.00E-06,  avg # of iterations = 20.0

     negative rho (up, down):  1.302E-01 0.000E+00

     total cpu time spent up to now is        5.0 secs

     total energy              =      -2.06342168 Ry
     Harris-Foulkes estimate   =     -43.80676149 Ry
     estimated scf accuracy    <       7.13126461 Ry

     iteration #  2     ecut=    30.00 Ry     beta=0.70
     Davidson diagonalization with overlap
     ethr =  1.00E-02,  avg # of iterations =  5.0

     negative rho (up, down):  7.150E-02 0.000E+00

     total cpu time spent up to now is        5.1 secs

     total energy              =      -5.35097474 Ry
     Harris-Foulkes estimate   =     -37.56475669 Ry
     estimated scf accuracy    <       9.83817522 Ry

     iteration #  3     ecut=    30.00 Ry     beta=0.70
     Davidson diagonalization with overlap
     ethr =  1.00E-02,  avg # of iterations =  3.0

     negative rho (up, down):  4.977E-02 0.000E+00

     total cpu time spent up to now is        5.1 secs

     total energy              =     -28.44276892 Ry
     Harris-Foulkes estimate   =     -31.14099431 Ry
     estimated scf accuracy    <       6.86695228 Ry

     iteration #  4     ecut=    30.00 Ry     beta=0.70
     Davidson diagonalization with overlap
     ethr =  1.00E-02,  avg # of iterations =  2.0

     negative rho (up, down):  3.216E-02 0.000E+00

     total cpu time spent up to now is        5.1 secs

     total energy              =     -27.50618721 Ry
     Harris-Foulkes estimate   =     -28.58301741 Ry
     estimated scf accuracy    <       2.59568956 Ry

     iteration #  5     ecut=    30.00 Ry     beta=0.70
     Davidson diagonalization with overlap
     ethr =  1.00E-02,  avg # of iterations =  1.0

     negative rho (up, down):  3.351E-02 0.000E+00

     total cpu time spent up to now is        5.2 secs

     total energy              =     -27.99809100 Ry
     Harris-Foulkes estimate   =     -28.20766729 Ry
     estimated scf accuracy    <       2.66294754 Ry

     iteration #  6     ecut=    30.00 Ry     beta=0.70
     Davidson diagonalization with overlap
     ethr =  1.00E-02,  avg # of iterations =  1.0

     negative rho (up, down):  3.281E-02 0.000E+00

     total cpu time spent up to now is        5.2 secs

     total energy              =     -27.74030874 Ry
     Harris-Foulkes estimate   =     -28.00040227 Ry
     estimated scf accuracy    <       2.32537028 Ry

     iteration #  7     ecut=    30.00 Ry     beta=0.70
     Davidson diagonalization with overlap
     ethr =  1.00E-02,  avg # of iterations =  1.0

     negative rho (up, down):  2.818E-02 0.000E+00

     total cpu time spent up to now is        5.2 secs

     total energy              =     -27.22895665 Ry
     Harris-Foulkes estimate   =     -27.74260937 Ry
     estimated scf accuracy    <       2.05759909 Ry

     iteration #  8     ecut=    30.00 Ry     beta=0.70
     Davidson diagonalization with overlap
     ethr =  1.00E-02,  avg # of iterations =  1.0

     negative rho (up, down):  1.930E-01 0.000E+00

     total cpu time spent up to now is        5.3 secs

     total energy              =     -28.21359110 Ry
     Harris-Foulkes estimate   =     -27.76628939 Ry
     estimated scf accuracy    <       1.65625688 Ry

     iteration #  9     ecut=    30.00 Ry     beta=0.70
     Davidson diagonalization with overlap
     ethr =  1.00E-02,  avg # of iterations =  3.0

     negative rho (up, down):  1.918E-01 0.000E+00

     total cpu time spent up to now is        5.3 secs

     total energy              =     -28.48611169 Ry
     Harris-Foulkes estimate   =    -419.16514587 Ry
     estimated scf accuracy    <       7.24769683 Ry

     iteration # 10     ecut=    30.00 Ry     beta=0.70
     Davidson diagonalization with overlap
     ethr =  1.00E-02,  avg # of iterations =  3.0

     negative rho (up, down):  2.697E-01 0.000E+00

     total cpu time spent up to now is        5.3 secs

     total energy              =      -7.69280092 Ry
     Harris-Foulkes estimate   =     -67.41012417 Ry
     estimated scf accuracy    <       7.99033499 Ry

     iteration # 11     ecut=    30.00 Ry     beta=0.70
     Davidson diagonalization with overlap
     ethr =  1.00E-02,  avg # of iterations =  4.0

     negative rho (up, down):  1.608E-03 0.000E+00

     total cpu time spent up to now is        5.4 secs

     total energy              =       9.11533248 Ry
     Harris-Foulkes estimate   =    -174.18329248 Ry
     estimated scf accuracy    <       7.37519105 Ry

     iteration # 12     ecut=    30.00 Ry     beta=0.70
     Davidson diagonalization with overlap
     ethr =  1.00E-02,  avg # of iterations =  3.0

     negative rho (up, down):  4.205E-05 0.000E+00

     total cpu time spent up to now is        5.4 secs

     total energy              =     -27.20197410 Ry
     Harris-Foulkes estimate   =     -27.55184724 Ry
     estimated scf accuracy    <       1.65071402 Ry

     iteration # 13     ecut=    30.00 Ry     beta=0.70
     Davidson diagonalization with overlap
     ethr =  1.00E-02,  avg # of iterations =  1.0

     negative rho (up, down):  1.478E-03 0.000E+00

     total cpu time spent up to now is        5.5 secs

     total energy              =     -27.41649238 Ry
     Harris-Foulkes estimate   =     -27.49267353 Ry
     estimated scf accuracy    <       1.03234368 Ry

     iteration # 14     ecut=    30.00 Ry     beta=0.70
     Davidson diagonalization with overlap
     ethr =  1.00E-02,  avg # of iterations =  3.0

     negative rho (up, down):  6.211E-06 0.000E+00

     total cpu time spent up to now is        5.5 secs

     total energy              =     -27.25596508 Ry
     Harris-Foulkes estimate   =     -27.42301033 Ry
     estimated scf accuracy    <       0.87120874 Ry

     iteration # 15     ecut=    30.00 Ry     beta=0.70
     Davidson diagonalization with overlap
     ethr =  1.00E-02,  avg # of iterations =  3.0

     negative rho (up, down):  6.583E-04 0.000E+00

     total cpu time spent up to now is        5.6 secs

     total energy              =     -27.32479800 Ry
     Harris-Foulkes estimate   =     -27.45639803 Ry
     estimated scf accuracy    <       1.48511229 Ry

     iteration # 16     ecut=    30.00 Ry     beta=0.70
     Davidson diagonalization with overlap
     ethr =  1.00E-02,  avg # of iterations =  2.0

     negative rho (up, down):  1.353E-03 0.000E+00

     total cpu time spent up to now is        5.7 secs

     total energy              =     -27.38353399 Ry
     Harris-Foulkes estimate   =     -27.37770015 Ry
     estimated scf accuracy    <       0.45612647 Ry

     iteration # 17     ecut=    30.00 Ry     beta=0.70
     Davidson diagonalization with overlap
     ethr =  5.70E-03,  avg # of iterations =  4.0

     negative rho (up, down):  8.166E-03 0.000E+00

     total cpu time spent up to now is        5.7 secs

     total energy              =      -9.17310314 Ry
     Harris-Foulkes estimate   =     -41.60610235 Ry
     estimated scf accuracy    <       6.87995555 Ry

     iteration # 18     ecut=    30.00 Ry     beta=0.70
     Davidson diagonalization with overlap
     ethr =  5.70E-03,  avg # of iterations =  4.0

     negative rho (up, down):  9.184E-03 0.000E+00

     total cpu time spent up to now is        5.7 secs

     total energy              =     -27.35113794 Ry
     Harris-Foulkes estimate   =     -27.39479608 Ry
     estimated scf accuracy    <       0.53698712 Ry

     iteration # 19     ecut=    30.00 Ry     beta=0.70
     Davidson diagonalization with overlap
     ethr =  5.70E-03,  avg # of iterations =  2.0

     negative rho (up, down):  3.022E-03 0.000E+00

     total cpu time spent up to now is        5.8 secs

     total energy              =     -27.38789303 Ry
     Harris-Foulkes estimate   =     -27.39358827 Ry
     estimated scf accuracy    <       0.44235456 Ry

     iteration # 20     ecut=    30.00 Ry     beta=0.70
     Davidson diagonalization with overlap
     ethr =  5.53E-03,  avg # of iterations =  3.0

     negative rho (up, down):  4.856E-03 0.000E+00

     total cpu time spent up to now is        5.8 secs

     total energy              =     -26.81435280 Ry
     Harris-Foulkes estimate   =     -27.39794601 Ry
     estimated scf accuracy    <       0.52481933 Ry

     iteration # 21     ecut=    30.00 Ry     beta=0.70
     Davidson diagonalization with overlap
     ethr =  5.53E-03,  avg # of iterations =  3.0

     negative rho (up, down):  1.423E-04 0.000E+00

     total cpu time spent up to now is        5.8 secs

     total energy              =     -27.26481542 Ry
     Harris-Foulkes estimate   =     -27.37278476 Ry
     estimated scf accuracy    <       0.87520846 Ry

     iteration # 22     ecut=    30.00 Ry     beta=0.70
     Davidson diagonalization with overlap
     ethr =  5.53E-03,  avg # of iterations =  2.0

     negative rho (up, down):  1.373E-05 0.000E+00

     total cpu time spent up to now is        5.9 secs

     total energy              =     -27.33717651 Ry
     Harris-Foulkes estimate   =     -27.37993140 Ry
     estimated scf accuracy    <       0.87180299 Ry

     iteration # 23     ecut=    30.00 Ry     beta=0.70
     Davidson diagonalization with overlap
     ethr =  5.53E-03,  avg # of iterations =  1.0

     negative rho (up, down):  6.743E-06 0.000E+00

     total cpu time spent up to now is        5.9 secs

     total energy              =     -27.36066340 Ry
     Harris-Foulkes estimate   =     -27.38997283 Ry
     estimated scf accuracy    <       0.69049092 Ry

     iteration # 24     ecut=    30.00 Ry     beta=0.70
     Davidson diagonalization with overlap
     ethr =  5.53E-03,  avg # of iterations =  1.0

     negative rho (up, down):  5.016E-05 0.000E+00

     total cpu time spent up to now is        5.9 secs

     total energy              =     -27.37304803 Ry
     Harris-Foulkes estimate   =     -27.38236555 Ry
     estimated scf accuracy    <       0.29542613 Ry

     iteration # 25     ecut=    30.00 Ry     beta=0.70
     Davidson diagonalization with overlap
     ethr =  3.69E-03,  avg # of iterations =  1.0

     negative rho (up, down):  7.289E-06 0.000E+00

     total cpu time spent up to now is        6.0 secs

     total energy              =     -27.37763449 Ry
     Harris-Foulkes estimate   =     -27.37817431 Ry
     estimated scf accuracy    <       0.06902086 Ry

     iteration # 26     ecut=    30.00 Ry     beta=0.70
     Davidson diagonalization with overlap
     ethr =  8.63E-04,  avg # of iterations =  1.0

     negative rho (up, down):  1.509E-02 0.000E+00

     total cpu time spent up to now is        6.0 secs

     total energy              =     -27.33758829 Ry
     Harris-Foulkes estimate   =     -27.37768469 Ry
     estimated scf accuracy    <       0.05726105 Ry

     iteration # 27     ecut=    30.00 Ry     beta=0.70
     Davidson diagonalization with overlap
     ethr =  7.16E-04,  avg # of iterations =  2.0

     negative rho (up, down):  5.649E-03 0.000E+00

     total cpu time spent up to now is        6.0 secs

     total energy              =     -27.39016715 Ry
     Harris-Foulkes estimate   =     -27.40076153 Ry
     estimated scf accuracy    <       0.37536993 Ry

     iteration # 28     ecut=    30.00 Ry     beta=0.70
     Davidson diagonalization with overlap
     ethr =  7.16E-04,  avg # of iterations =  3.0

     negative rho (up, down):  4.562E-04 0.000E+00

     total cpu time spent up to now is        6.1 secs

     total energy              =     -27.36453958 Ry
     Harris-Foulkes estimate   =     -27.42354254 Ry
     estimated scf accuracy    <       0.66480586 Ry

     iteration # 29     ecut=    30.00 Ry     beta=0.70
     Davidson diagonalization with overlap
     ethr =  7.16E-04,  avg # of iterations =  3.0

     negative rho (up, down):  7.947E-04 0.000E+00

     total cpu time spent up to now is        6.1 secs

     total energy              =     -27.37574482 Ry
     Harris-Foulkes estimate   =     -27.38328813 Ry
     estimated scf accuracy    <       0.40611902 Ry

     iteration # 30     ecut=    30.00 Ry     beta=0.70
     Davidson diagonalization with overlap
     ethr =  7.16E-04,  avg # of iterations =  1.0

     negative rho (up, down):  1.897E-05 0.000E+00

     total cpu time spent up to now is        6.2 secs

     total energy              =     -27.37648671 Ry
     Harris-Foulkes estimate   =     -27.37827689 Ry
     estimated scf accuracy    <       0.03408455 Ry

     iteration # 31     ecut=    30.00 Ry     beta=0.70
     Davidson diagonalization with overlap
     ethr =  4.26E-04,  avg # of iterations =  1.0

     negative rho (up, down):  4.279E-05 0.000E+00

     total cpu time spent up to now is        6.2 secs

     total energy              =     -27.37604449 Ry
     Harris-Foulkes estimate   =     -27.37662185 Ry
     estimated scf accuracy    <       0.02471752 Ry

     iteration # 32     ecut=    30.00 Ry     beta=0.70
     Davidson diagonalization with overlap
     ethr =  3.09E-04,  avg # of iterations =  1.0

     negative rho (up, down):  1.142E-07 0.000E+00

     total cpu time spent up to now is        6.2 secs

     total energy              =     -27.37640052 Ry
     Harris-Foulkes estimate   =     -27.37639924 Ry
     estimated scf accuracy    <       0.00010694 Ry

     iteration # 33     ecut=    30.00 Ry     beta=0.70
     Davidson diagonalization with overlap
     ethr =  1.34E-06,  avg # of iterations = 17.0

     total cpu time spent up to now is        6.3 secs

     total energy              =     -27.37640303 Ry
     Harris-Foulkes estimate   =     -27.37640236 Ry
     estimated scf accuracy    <       0.00000222 Ry

     iteration # 34     ecut=    30.00 Ry     beta=0.70
     Davidson diagonalization with overlap
     ethr =  2.78E-08,  avg # of iterations =  1.0

     total cpu time spent up to now is        6.3 secs

     total energy              =     -27.37640348 Ry
     Harris-Foulkes estimate   =     -27.37640318 Ry
     estimated scf accuracy    <       0.00000052 Ry

     iteration # 35     ecut=    30.00 Ry     beta=0.70
     Davidson diagonalization with overlap
     ethr =  6.51E-09,  avg # of iterations =  1.0

     total cpu time spent up to now is        6.4 secs

     total energy              =     -27.37640346 Ry
     Harris-Foulkes estimate   =     -27.37640351 Ry
     estimated scf accuracy    <       0.00000005 Ry

     iteration # 36     ecut=    30.00 Ry     beta=0.70
     Davidson diagonalization with overlap
     ethr =  6.25E-10,  avg # of iterations =  1.0

     total cpu time spent up to now is        6.4 secs

     End of self-consistent calculation

          k = 0.0000 0.0000 0.0000 ( 22119 PWs)   bands (ev):

   -31.2412 -11.8149  -7.5336  -7.5332  -7.3731  -0.3073   0.5836   0.7920

     the Fermi energy is    -7.3559 ev

!    total energy              =     -27.37640347 Ry
     Harris-Foulkes estimate   =     -27.37640346 Ry
     estimated scf accuracy    <          6.5E-09 Ry

     convergence has been achieved in  36 iterations

     Forces acting on atoms (Ry/au):

     atom    1 type  1   force =     2.48046702   -4.48065157  -17.47961269
     atom    2 type  1   force =     0.00013461    0.00111240    0.00135601
     atom    3 type  2   force =    -2.48060163    4.47953917   17.47825669

     Total force =    25.758007     Total SCF correction =     0.000098

     Entering Dynamics:    iteration =     5
                           time      =   0.0242 pico-seconds


     Andersen thermostat:    3 collisions

ATOMIC_POSITIONS (bohr)
H       32.409932675 -41.934571091-174.761406450
H       11.987379756  18.976657026  18.200087378
O        3.893120118   9.664062998  27.496968776


     kinetic energy (Ekin) =   475.26746288 Ry
     temperature           = ************** K 
     Ekin + Etot (const)   =   447.89105941 Ry
     Message from routine dynamics:
     Total linear momentum <> 0

     Linear momentum :    0.2555715914    0.0401351917   -0.1541686132

     Writing output data file pwscf.save

     second order wave-functions extrapolation
     Check: negative starting charge=   -0.350310
     second order charge density extrapolation
     Check: negative starting charge=   -0.355162

     negative rho (up, down):  8.734E+01 0.000E+00

     total cpu time spent up to now is        6.7 secs

     per-process dynamical memory:    20.4 Mb

     Self-consistent Calculation

     iteration #  1     ecut=    30.00 Ry     beta=0.70
     Davidson diagonalization with overlap
     c_bands:  3 eigenvalues not converged
     ethr =  1.00E-06,  avg # of iterations = 20.0

     negative rho (up, down):  2.529E+01 0.000E+00

     total cpu time spent up to now is        6.9 secs

     total energy              =    -171.11820934 Ry
     Harris-Foulkes estimate   =  -22812.38593885 Ry
     estimated scf accuracy    <    2398.11820814 Ry

     iteration #  2     ecut=    30.00 Ry     beta=0.70
     Davidson diagonalization with overlap
     c_bands:  1 eigenvalues not converged
     ethr =  1.00E-02,  avg # of iterations = 20.0

     negative rho (up, down):  1.378E+00 0.000E+00

     total cpu time spent up to now is        7.0 secs

     total energy              =     137.96061662 Ry
     Harris-Foulkes estimate   =   -3390.71232169 Ry
     estimated scf accuracy    <     217.27383954 Ry

     iteration #  3     ecut=    30.00 Ry     beta=0.70
     Davidson diagonalization with overlap
     ethr =  1.00E-02,  avg # of iterations =  8.0

     negative rho (up, down):  1.256E-03 0.000E+00

     total cpu time spent up to now is        7.0 secs

     total energy              =     144.59974519 Ry
     Harris-Foulkes estimate   =   -1487.80534453 Ry
     estimated scf accuracy    <      41.80311731 Ry

     iteration #  4     ecut=    30.00 Ry     beta=0.70
     Davidson diagonalization with overlap
     ethr =  1.00E-02,  avg # of iterations = 11.0

     negative rho (up, down):  6.119E-02 0.000E+00

     total cpu time spent up to now is        7.1 secs

     total energy              =     -68.87606101 Ry
     Harris-Foulkes estimate   =     -81.58783132 Ry
     estimated scf accuracy    <      75.07219125 Ry

     iteration #  5     ecut=    30.00 Ry     beta=0.70
     Davidson diagonalization with overlap
     ethr =  1.00E-02,  avg # of iterations =  5.0

     negative rho (up, down):  4.553E-02 0.000E+00

     total cpu time spent up to now is        7.2 secs

     total energy              =      40.74176228 Ry
     Harris-Foulkes estimate   =    -742.01950199 Ry
     estimated scf accuracy    <      22.40652573 Ry

     iteration #  6     ecut=    30.00 Ry     beta=0.70
     Davidson diagonalization with overlap
     ethr =  1.00E-02,  avg # of iterations = 13.0

     negative rho (up, down):  2.737E-02 0.000E+00

     total cpu time spent up to now is        7.2 secs

     total energy              =      19.45566251 Ry
     Harris-Foulkes estimate   =    -184.69530826 Ry
     estimated scf accuracy    <      23.31431114 Ry

     iteration #  7     ecut=    30.00 Ry     beta=0.70
     Davidson diagonalization with overlap
     ethr =  1.00E-02,  avg # of iterations = 13.0

     negative rho (up, down):  6.578E-02 0.000E+00

     total cpu time spent up to now is        7.3 secs

     total energy              =     -52.35090434 Ry
     Harris-Foulkes estimate   =     -71.70341183 Ry
     estimated scf accuracy    <      33.04981226 Ry

     iteration #  8     ecut=    30.00 Ry     beta=0.70
     Davidson diagonalization with overlap
     ethr =  1.00E-02,  avg # of iterations =  5.0

     negative rho (up, down):  1.369E-02 0.000E+00

     total cpu time spent up to now is        7.3 secs

     total energy              =      30.65171195 Ry
     Harris-Foulkes estimate   =    -275.36808498 Ry
     estimated scf accuracy    <      38.64052555 Ry

     iteration #  9     ecut=    30.00 Ry     beta=0.70
     Davidson diagonalization with overlap
     ethr =  1.00E-02,  avg # of iterations =  6.0

     negative rho (up, down):  8.898E-03 0.000E+00

     total cpu time spent up to now is        7.4 secs

     total energy              =     -38.86300429 Ry
     Harris-Foulkes estimate   =     -71.37037653 Ry
     estimated scf accuracy    <      41.37169206 Ry

     iteration # 10     ecut=    30.00 Ry     beta=0.70
     Davidson diagonalization with overlap
     ethr =  1.00E-02,  avg # of iterations =  5.0

     negative rho (up, down):  1.712E-01 0.000E+00

     total cpu time spent up to now is        7.4 secs

     total energy              =     -22.39472429 Ry
     Harris-Foulkes estimate   =     -82.16138074 Ry
     estimated scf accuracy    <      30.74705299 Ry

     iteration # 11     ecut=    30.00 Ry     beta=0.70
     Davidson diagonalization with overlap
     ethr =  1.00E-02,  avg # of iterations =  8.0

     negative rho (up, down):  1.833E-01 0.000E+00

     total cpu time spent up to now is        7.5 secs

     total energy              =      36.73649667 Ry
     Harris-Foulkes estimate   =    -735.41458406 Ry
     estimated scf accuracy    <      42.98158208 Ry

     iteration # 12     ecut=    30.00 Ry     beta=0.70
     Davidson diagonalization with overlap
     ethr =  1.00E-02,  avg # of iterations =  7.0

     negative rho (up, down):  1.849E-03 0.000E+00

     total cpu time spent up to now is        7.5 secs

     total energy              =     101.54008905 Ry
     Harris-Foulkes estimate   =    -185.13792626 Ry
     estimated scf accuracy    <      33.68061085 Ry

     iteration # 13     ecut=    30.00 Ry     beta=0.70
     Davidson diagonalization with overlap
     ethr =  1.00E-02,  avg # of iterations =  7.0

     negative rho (up, down):  4.157E-02 0.000E+00

     total cpu time spent up to now is        7.6 secs

     total energy              =     -87.41773981 Ry
     Harris-Foulkes estimate   =     -49.66467809 Ry
     estimated scf accuracy    <      27.03387494 Ry

     iteration # 14     ecut=    30.00 Ry     beta=0.70
     Davidson diagonalization with overlap
     ethr =  1.00E-02,  avg # of iterations =  4.0

     negative rho (up, down):  7.156E-02 0.000E+00

     total cpu time spent up to now is        7.7 secs

     total energy              =      42.32522028 Ry
     Harris-Foulkes estimate   =    -718.50998378 Ry
     estimated scf accuracy    <      40.14049322 Ry

     iteration # 15     ecut=    30.00 Ry     beta=0.70
     Davidson diagonalization with overlap
     ethr =  1.00E-02,  avg # of iterations =  8.0

     negative rho (up, down):  7.043E-02 0.000E+00

     total cpu time spent up to now is        7.7 secs

     total energy              =      -5.90499412 Ry
     Harris-Foulkes estimate   =    -365.52320909 Ry
     estimated scf accuracy    <      27.94229513 Ry

     iteration # 16     ecut=    30.00 Ry     beta=0.70
     Davidson diagonalization with overlap
     ethr =  1.00E-02,  avg # of iterations =  4.0

     negative rho (up, down):  1.608E-01 0.000E+00

     total cpu time spent up to now is        7.8 secs

     total energy              =       7.93418728 Ry
     Harris-Foulkes estimate   =    -238.61535632 Ry
     estimated scf accuracy    <      30.04488600 Ry

     iteration # 17     ecut=    30.00 Ry     beta=0.70
     Davidson diagonalization with overlap
     ethr =  1.00E-02,  avg # of iterations =  7.0

     negative rho (up, down):  9.312E-02 0.000E+00

     total cpu time spent up to now is        7.8 secs

     total energy              =       2.08957820 Ry
     Harris-Foulkes estimate   =    -110.13634927 Ry
     estimated scf accuracy    <      16.70571035 Ry

     iteration # 18     ecut=    30.00 Ry     beta=0.70
     Davidson diagonalization with overlap
     ethr =  1.00E-02,  avg # of iterations =  7.0

     negative rho (up, down):  3.477E-02 0.000E+00

     total cpu time spent up to now is        7.9 secs

     total energy              =     -41.02920318 Ry
     Harris-Foulkes estimate   =     -41.53692092 Ry
     estimated scf accuracy    <      18.32368847 Ry

     iteration # 19     ecut=    30.00 Ry     beta=0.70
     Davidson diagonalization with overlap
     ethr =  1.00E-02,  avg # of iterations =  3.0

     negative rho (up, down):  3.976E-02 0.000E+00

     total cpu time spent up to now is        7.9 secs

     total energy              =     -34.30244614 Ry
     Harris-Foulkes estimate   =     -42.29535953 Ry
     estimated scf accuracy    <      15.85510872 Ry

     iteration # 20     ecut=    30.00 Ry     beta=0.70
     Davidson diagonalization with overlap
     ethr =  1.00E-02,  avg # of iterations =  4.0

     negative rho (up, down):  2.559E-02 0.000E+00

     total cpu time spent up to now is        7.9 secs

     total energy              =     -38.31381081 Ry
     Harris-Foulkes estimate   =     -40.81378580 Ry
     estimated scf accuracy    <      16.67399401 Ry

     iteration # 21     ecut=    30.00 Ry     beta=0.70
     Davidson diagonalization with overlap
     ethr =  1.00E-02,  avg # of iterations =  3.0

     negative rho (up, down):  3.020E-01 0.000E+00

     total cpu time spent up to now is        8.0 secs

     total energy              =     -31.16829608 Ry
     Harris-Foulkes estimate   =     -38.50197568 Ry
     estimated scf accuracy    <      13.97470616 Ry

     iteration # 22     ecut=    30.00 Ry     beta=0.70
     Davidson diagonalization with overlap
     ethr =  1.00E-02,  avg # of iterations = 14.0

     negative rho (up, down):  4.023E-02 0.000E+00

     total cpu time spent up to now is        8.0 secs

     total energy              =      84.35703066 Ry
     Harris-Foulkes estimate   =    -585.14116665 Ry
     estimated scf accuracy    <      43.61794873 Ry

     iteration # 23     ecut=    30.00 Ry     beta=0.70
     Davidson diagonalization with overlap
     ethr =  1.00E-02,  avg # of iterations = 13.0

     negative rho (up, down):  5.668E-03 0.000E+00

     total cpu time spent up to now is        8.1 secs

     total energy              =     -33.13552314 Ry
     Harris-Foulkes estimate   =     -34.12215320 Ry
     estimated scf accuracy    <       5.92808498 Ry

     iteration # 24     ecut=    30.00 Ry     beta=0.70
     Davidson diagonalization with overlap
     ethr =  1.00E-02,  avg # of iterations =  2.0

     negative rho (up, down):  5.915E-03 0.000E+00

     total cpu time spent up to now is        8.2 secs

     total energy              =     -32.60075456 Ry
     Harris-Foulkes estimate   =     -34.04238534 Ry
     estimated scf accuracy    <       7.44294795 Ry

     iteration # 25     ecut=    30.00 Ry     beta=0.70
     Davidson diagonalization with overlap
     ethr =  1.00E-02,  avg # of iterations =  1.0

     negative rho (up, down):  1.323E-02 0.000E+00

     total cpu time spent up to now is        8.2 secs

     total energy              =     -32.32644763 Ry
     Harris-Foulkes estimate   =     -33.02704127 Ry
     estimated scf accuracy    <       3.67114079 Ry

     iteration # 26     ecut=    30.00 Ry     beta=0.70
     Davidson diagonalization with overlap
     ethr =  1.00E-02,  avg # of iterations =  1.0

     negative rho (up, down):  2.181E-02 0.000E+00

     total cpu time spent up to now is        8.2 secs

     total energy              =     -32.33644348 Ry
     Harris-Foulkes estimate   =     -32.35297125 Ry
     estimated scf accuracy    <       2.18893916 Ry

     iteration # 27     ecut=    30.00 Ry     beta=0.70
     Davidson diagonalization with overlap
     ethr =  1.00E-02,  avg # of iterations =  2.0

     negative rho (up, down):  9.657E-03 0.000E+00

     total cpu time spent up to now is        8.3 secs

     total energy              =     -31.20237764 Ry
     Harris-Foulkes estimate   =     -32.64413211 Ry
     estimated scf accuracy    <       4.81041031 Ry

     iteration # 28     ecut=    30.00 Ry     beta=0.70
     Davidson diagonalization with overlap
     ethr =  1.00E-02,  avg # of iterations =  2.0

     negative rho (up, down):  1.189E-02 0.000E+00

     total cpu time spent up to now is        8.3 secs

     total energy              =     -32.00557351 Ry
     Harris-Foulkes estimate   =     -32.33200300 Ry
     estimated scf accuracy    <       2.25025556 Ry

     iteration # 29     ecut=    30.00 Ry     beta=0.70
     Davidson diagonalization with overlap
     ethr =  1.00E-02,  avg # of iterations =  1.0

     negative rho (up, down):  1.068E-02 0.000E+00

     total cpu time spent up to now is        8.3 secs

     total energy              =     -31.70807700 Ry
     Harris-Foulkes estimate   =     -32.11465223 Ry
     estimated scf accuracy    <       4.10154786 Ry

     iteration # 30     ecut=    30.00 Ry     beta=0.70
     Davidson diagonalization with overlap
     ethr =  1.00E-02,  avg # of iterations =  1.0

     negative rho (up, down):  9.926E-03 0.000E+00

     total cpu time spent up to now is        8.4 secs

     total energy              =     -31.97782374 Ry
     Harris-Foulkes estimate   =     -32.11581718 Ry
     estimated scf accuracy    <       2.00192378 Ry

     iteration # 31     ecut=    30.00 Ry     beta=0.70
     Davidson diagonalization with overlap
     ethr =  1.00E-02,  avg # of iterations =  1.0

     negative rho (up, down):  3.045E-02 0.000E+00

     total cpu time spent up to now is        8.4 secs

     total energy              =     -30.99518868 Ry
     Harris-Foulkes estimate   =     -31.97907778 Ry
[...]
     Harris-Foulkes estimate   =   -1162.50297571 Ry
     estimated scf accuracy    <      18.72454158 Ry

     iteration # 59     ecut=    30.00 Ry     beta=0.70
     Davidson diagonalization with overlap
     ethr =  1.00E-02,  avg # of iterations =  6.0

     negative rho (up, down):  1.064E-01 0.000E+00

     total cpu time spent up to now is       13.2 secs

     total energy              =     -44.60753753 Ry
     Harris-Foulkes estimate   =     -48.38646780 Ry
     estimated scf accuracy    <      24.86212411 Ry

     iteration # 60     ecut=    30.00 Ry     beta=0.70
     Davidson diagonalization with overlap
     ethr =  1.00E-02,  avg # of iterations =  1.0

     negative rho (up, down):  1.802E-01 0.000E+00

     total cpu time spent up to now is       13.3 secs

     total energy              =     -59.70536080 Ry
     Harris-Foulkes estimate   =     -44.62480017 Ry
     estimated scf accuracy    <      20.09941964 Ry

     iteration # 61     ecut=    30.00 Ry     beta=0.70
     Davidson diagonalization with overlap
     ethr =  1.00E-02,  avg # of iterations =  7.0

     negative rho (up, down):  7.892E-02 0.000E+00

     total cpu time spent up to now is       13.3 secs

     total energy              =    -210.51662470 Ry
     Harris-Foulkes estimate   =    -960.71603722 Ry
     estimated scf accuracy    <      20.60036342 Ry

     iteration # 62     ecut=    30.00 Ry     beta=0.70
     Davidson diagonalization with overlap
     ethr =  1.00E-02,  avg # of iterations =  7.0

     negative rho (up, down):  6.159E-02 0.000E+00

     total cpu time spent up to now is       13.4 secs

     total energy              =      93.70731653 Ry
     Harris-Foulkes estimate   =   -1687.89000375 Ry
     estimated scf accuracy    <      18.54667734 Ry

     iteration # 63     ecut=    30.00 Ry     beta=0.70
     Davidson diagonalization with overlap
     ethr =  1.00E-02,  avg # of iterations = 11.0

     negative rho (up, down):  7.415E-02 0.000E+00

     total cpu time spent up to now is       13.5 secs

     total energy              =     -11.76831710 Ry
     Harris-Foulkes estimate   =     -94.31387875 Ry
     estimated scf accuracy    <      21.86233741 Ry

     iteration # 64     ecut=    30.00 Ry     beta=0.70
     Davidson diagonalization with overlap
     ethr =  1.00E-02,  avg # of iterations =  5.0

     negative rho (up, down):  1.083E-01 0.000E+00

     total cpu time spent up to now is       13.5 secs

     total energy              =      -3.32105516 Ry
     Harris-Foulkes estimate   =    -101.31762174 Ry
     estimated scf accuracy    <      12.65355213 Ry

     iteration # 65     ecut=    30.00 Ry     beta=0.70
     Davidson diagonalization with overlap
     ethr =  1.00E-02,  avg # of iterations =  7.0

     negative rho (up, down):  1.857E-02 0.000E+00

     total cpu time spent up to now is       13.5 secs

     total energy              =      -5.16116920 Ry
     Harris-Foulkes estimate   =     -58.55631008 Ry
     estimated scf accuracy    <      13.97316726 Ry

     iteration # 66     ecut=    30.00 Ry     beta=0.70
     Davidson diagonalization with overlap
     ethr =  1.00E-02,  avg # of iterations =  4.0

     negative rho (up, down):  1.709E-02 0.000E+00

     total cpu time spent up to now is       13.6 secs

     total energy              =     -39.93204572 Ry
     Harris-Foulkes estimate   =     -41.42434757 Ry
     estimated scf accuracy    <      16.55595193 Ry

     iteration # 67     ecut=    30.00 Ry     beta=0.70
     Davidson diagonalization with overlap
     ethr =  1.00E-02,  avg # of iterations =  5.0

     negative rho (up, down):  4.249E-02 0.000E+00

     total cpu time spent up to now is       13.6 secs

     total energy              =      -2.53257740 Ry
     Harris-Foulkes estimate   =     -83.62531008 Ry
     estimated scf accuracy    <       7.81048385 Ry

     iteration # 68     ecut=    30.00 Ry     beta=0.70
     Davidson diagonalization with overlap
     ethr =  1.00E-02,  avg # of iterations =  5.0

     negative rho (up, down):  1.048E-04 0.000E+00

     total cpu time spent up to now is       13.7 secs

     total energy              =      41.28318199 Ry
     Harris-Foulkes estimate   =    -453.70796995 Ry
     estimated scf accuracy    <      12.29515096 Ry

     iteration # 69     ecut=    30.00 Ry     beta=0.70
     Davidson diagonalization with overlap
     ethr =  1.00E-02,  avg # of iterations =  5.0

     negative rho (up, down):  5.820E-02 0.000E+00

     total cpu time spent up to now is       13.7 secs

     total energy              =     -38.90883659 Ry
     Harris-Foulkes estimate   =     -39.41939156 Ry
     estimated scf accuracy    <      13.68322947 Ry

     iteration # 70     ecut=    30.00 Ry     beta=0.70
     Davidson diagonalization with overlap
     ethr =  1.00E-02,  avg # of iterations =  4.0

     negative rho (up, down):  4.959E-02 0.000E+00

     total cpu time spent up to now is       13.8 secs

     total energy              =     -34.30914826 Ry
     Harris-Foulkes estimate   =     -50.05585492 Ry
     estimated scf accuracy    <      16.59405578 Ry

     iteration # 71     ecut=    30.00 Ry     beta=0.70
     Davidson diagonalization with overlap
     ethr =  1.00E-02,  avg # of iterations =  4.0

     negative rho (up, down):  3.968E-02 0.000E+00

     total cpu time spent up to now is       13.8 secs

     total energy              =      16.29386208 Ry
     Harris-Foulkes estimate   =    -103.74637403 Ry
     estimated scf accuracy    <      22.90267394 Ry

     iteration # 72     ecut=    30.00 Ry     beta=0.70
     Davidson diagonalization with overlap
     ethr =  1.00E-02,  avg # of iterations =  7.0

     negative rho (up, down):  6.942E-06 0.000E+00

     total cpu time spent up to now is       13.9 secs

     total energy              =      65.10434853 Ry
     Harris-Foulkes estimate   =    -417.13161597 Ry
     estimated scf accuracy    <      22.57732511 Ry

     iteration # 73     ecut=    30.00 Ry     beta=0.70
     Davidson diagonalization with overlap
     ethr =  1.00E-02,  avg # of iterations = 10.0

     negative rho (up, down):  1.531E-03 0.000E+00

     total cpu time spent up to now is       13.9 secs

     total energy              =     -35.88526072 Ry
     Harris-Foulkes estimate   =     -37.87380161 Ry
     estimated scf accuracy    <      12.04077186 Ry

     iteration # 74     ecut=    30.00 Ry     beta=0.70
     Davidson diagonalization with overlap
     ethr =  1.00E-02,  avg # of iterations =  1.0

     negative rho (up, down):  1.037E-02 0.000E+00

     total cpu time spent up to now is       13.9 secs

     total energy              =     -34.13306149 Ry
     Harris-Foulkes estimate   =     -35.89677631 Ry
     estimated scf accuracy    <       9.45852772 Ry

     iteration # 75     ecut=    30.00 Ry     beta=0.70
     Davidson diagonalization with overlap
     ethr =  1.00E-02,  avg # of iterations =  6.0

     negative rho (up, down):  3.325E-02 0.000E+00

     total cpu time spent up to now is       14.0 secs

     total energy              =     -52.86039428 Ry
     Harris-Foulkes estimate   =    -280.22072473 Ry
     estimated scf accuracy    <      49.19967559 Ry

     iteration # 76     ecut=    30.00 Ry     beta=0.70
     Davidson diagonalization with overlap
     ethr =  1.00E-02,  avg # of iterations =  9.0

     negative rho (up, down):  4.470E-02 0.000E+00

     total cpu time spent up to now is       14.0 secs

     total energy              =      53.92772974 Ry
     Harris-Foulkes estimate   =    -148.44766574 Ry
     estimated scf accuracy    <      28.07098559 Ry

     iteration # 77     ecut=    30.00 Ry     beta=0.70
     Davidson diagonalization with overlap
     ethr =  1.00E-02,  avg # of iterations = 11.0

     negative rho (up, down):  1.240E-02 0.000E+00

     total cpu time spent up to now is       14.1 secs

     total energy              =      44.89111218 Ry
     Harris-Foulkes estimate   =     -85.96172832 Ry
     estimated scf accuracy    <      23.81355649 Ry

     iteration # 78     ecut=    30.00 Ry     beta=0.70
     Davidson diagonalization with overlap
     ethr =  1.00E-02,  avg # of iterations =  8.0

     negative rho (up, down):  2.305E-02 0.000E+00

     total cpu time spent up to now is       14.1 secs

     total energy              =      -8.73922013 Ry
     Harris-Foulkes estimate   =     -57.53294689 Ry
     estimated scf accuracy    <      12.04053923 Ry

     iteration # 79     ecut=    30.00 Ry     beta=0.70
     Davidson diagonalization with overlap
     ethr =  1.00E-02,  avg # of iterations =  4.0

     negative rho (up, down):  2.446E-02 0.000E+00

     total cpu time spent up to now is       14.2 secs

     total energy              =      -2.92775546 Ry
     Harris-Foulkes estimate   =    -225.72783958 Ry
     estimated scf accuracy    <      11.44430122 Ry

     iteration # 80     ecut=    30.00 Ry     beta=0.70
     Davidson diagonalization with overlap
     ethr =  1.00E-02,  avg # of iterations =  7.0

     negative rho (up, down):  2.652E-02 0.000E+00

     total cpu time spent up to now is       14.2 secs

     total energy              =    -207.34779949 Ry
     Harris-Foulkes estimate   =    -165.69054800 Ry
     estimated scf accuracy    <      27.45141355 Ry

     iteration # 81     ecut=    30.00 Ry     beta=0.70
     Davidson diagonalization with overlap
     ethr =  1.00E-02,  avg # of iterations = 10.0

     negative rho (up, down):  5.259E-03 0.000E+00

     total cpu time spent up to now is       14.3 secs

     total energy              =       1.06101625 Ry
     Harris-Foulkes estimate   =    -334.13255381 Ry
     estimated scf accuracy    <       8.90774104 Ry

     iteration # 82     ecut=    30.00 Ry     beta=0.70
     Davidson diagonalization with overlap
     ethr =  1.00E-02,  avg # of iterations =  9.0

     negative rho (up, down):  1.859E-02 0.000E+00

     total cpu time spent up to now is       14.3 secs

     total energy              =      -7.84994234 Ry
     Harris-Foulkes estimate   =     -48.99913218 Ry
     estimated scf accuracy    <       7.16814996 Ry

     iteration # 83     ecut=    30.00 Ry     beta=0.70
     Davidson diagonalization with overlap
     ethr =  1.00E-02,  avg # of iterations =  5.0

     negative rho (up, down):  8.388E-02 0.000E+00

     total cpu time spent up to now is       14.4 secs

     total energy              =      -2.72591798 Ry
     Harris-Foulkes estimate   =    -181.80444080 Ry
     estimated scf accuracy    <       7.15377304 Ry

     iteration # 84     ecut=    30.00 Ry     beta=0.70
     Davidson diagonalization with overlap
     ethr =  1.00E-02,  avg # of iterations =  6.0

     negative rho (up, down):  7.773E-02 0.000E+00

     total cpu time spent up to now is       14.4 secs

     total energy              =      69.58995509 Ry
     Harris-Foulkes estimate   =    -135.38822371 Ry
     estimated scf accuracy    <      23.30215054 Ry

     iteration # 85     ecut=    30.00 Ry     beta=0.70
     Davidson diagonalization with overlap
     ethr =  1.00E-02,  avg # of iterations =  8.0

     negative rho (up, down):  5.138E-02 0.000E+00

     total cpu time spent up to now is       14.5 secs

     total energy              =      -0.70243347 Ry
     Harris-Foulkes estimate   =    -234.61463038 Ry
     estimated scf accuracy    <       6.53062405 Ry

     iteration # 86     ecut=    30.00 Ry     beta=0.70
     Davidson diagonalization with overlap
     ethr =  1.00E-02,  avg # of iterations =  6.0

     negative rho (up, down):  1.259E-01 0.000E+00

     total cpu time spent up to now is       14.5 secs

     total energy              =    -479.48732857 Ry
     Harris-Foulkes estimate   =    -235.25146023 Ry
     estimated scf accuracy    <      23.67692918 Ry

     iteration # 87     ecut=    30.00 Ry     beta=0.70
     Davidson diagonalization with overlap
     ethr =  1.00E-02,  avg # of iterations =  6.0

     negative rho (up, down):  8.502E-02 0.000E+00

     total cpu time spent up to now is       14.6 secs

     total energy              =      24.72046015 Ry
     Harris-Foulkes estimate   =   -5776.59740684 Ry
     estimated scf accuracy    <      53.13572077 Ry

     iteration # 88     ecut=    30.00 Ry     beta=0.70
     Davidson diagonalization with overlap
     ethr =  1.00E-02,  avg # of iterations =  6.0

     negative rho (up, down):  1.093E-01 0.000E+00

     total cpu time spent up to now is       14.6 secs

     total energy              =      51.20735900 Ry
     Harris-Foulkes estimate   =    -166.26113447 Ry
     estimated scf accuracy    <      48.86604725 Ry

     iteration # 89     ecut=    30.00 Ry     beta=0.70
     Davidson diagonalization with overlap
     ethr =  1.00E-02,  avg # of iterations =  8.0

     negative rho (up, down):  1.879E-01 0.000E+00

     total cpu time spent up to now is       14.7 secs

     total energy              =       1.05120248 Ry
     Harris-Foulkes estimate   =    -124.17882815 Ry
     estimated scf accuracy    <      13.63127932 Ry

     iteration # 90     ecut=    30.00 Ry     beta=0.70
     Davidson diagonalization with overlap
     ethr =  1.00E-02,  avg # of iterations =  6.0

     negative rho (up, down):  1.618E-01 0.000E+00

     total cpu time spent up to now is       14.7 secs

     total energy              =    -273.01116719 Ry
     Harris-Foulkes estimate   =    -327.84114575 Ry
     estimated scf accuracy    <      13.48630762 Ry

     iteration # 91     ecut=    30.00 Ry     beta=0.70
     Davidson diagonalization with overlap
     ethr =  1.00E-02,  avg # of iterations =  5.0

     negative rho (up, down):  3.786E-01 0.000E+00

     total cpu time spent up to now is       14.8 secs

     total energy              =     -38.13345427 Ry
     Harris-Foulkes estimate   =   -1486.07868072 Ry
     estimated scf accuracy    <      50.16256764 Ry

     iteration # 92     ecut=    30.00 Ry     beta=0.70
     Davidson diagonalization with overlap
     ethr =  1.00E-02,  avg # of iterations =  6.0

     negative rho (up, down):  5.703E-01 0.000E+00

     total cpu time spent up to now is       14.8 secs

     total energy              =      35.59412050 Ry
     Harris-Foulkes estimate   =   -2390.75371327 Ry
     estimated scf accuracy    <      50.70389523 Ry

     iteration # 93     ecut=    30.00 Ry     beta=0.70
     Davidson diagonalization with overlap
     ethr =  1.00E-02,  avg # of iterations = 10.0

     negative rho (up, down):  5.624E-01 0.000E+00

     total cpu time spent up to now is       14.9 secs

     total energy              =     352.66688326 Ry
     Harris-Foulkes estimate   =    -463.90895748 Ry
     estimated scf accuracy    <      41.29503816 Ry

     iteration # 94     ecut=    30.00 Ry     beta=0.70
     Davidson diagonalization with overlap
     ethr =  1.00E-02,  avg # of iterations =  8.0

     negative rho (up, down):  8.740E-01 0.000E+00

     total cpu time spent up to now is       14.9 secs

     total energy              =      35.96182048 Ry
     Harris-Foulkes estimate   =    -737.06428348 Ry
     estimated scf accuracy    <      45.97827059 Ry

     iteration # 95     ecut=    30.00 Ry     beta=0.70
     Davidson diagonalization with overlap
     ethr =  1.00E-02,  avg # of iterations =  8.0

     negative rho (up, down):  1.187E+00 0.000E+00

     total cpu time spent up to now is       15.0 secs

     total energy              =      45.14960027 Ry
     Harris-Foulkes estimate   =   -1102.30926089 Ry
     estimated scf accuracy    <      49.04252948 Ry

     iteration # 96     ecut=    30.00 Ry     beta=0.70
     Davidson diagonalization with overlap
     ethr =  1.00E-02,  avg # of iterations =  8.0

     negative rho (up, down):  1.478E+00 0.000E+00

     total cpu time spent up to now is       15.0 secs

     total energy              =     103.26761487 Ry
     Harris-Foulkes estimate   =   -2232.44572079 Ry
     estimated scf accuracy    <      44.10413584 Ry

     iteration # 97     ecut=    30.00 Ry     beta=0.70
     Davidson diagonalization with overlap
     ethr =  1.00E-02,  avg # of iterations =  7.0

     negative rho (up, down):  1.527E+00 0.000E+00

     total cpu time spent up to now is       15.1 secs

     total energy              =     -18.36145589 Ry
     Harris-Foulkes estimate   =   -1279.13609158 Ry
     estimated scf accuracy    <      37.73535926 Ry

     iteration # 98     ecut=    30.00 Ry     beta=0.70
     Davidson diagonalization with overlap
     ethr =  1.00E-02,  avg # of iterations =  9.0

     negative rho (up, down):  1.454E+00 0.000E+00

     total cpu time spent up to now is       15.2 secs

     total energy              =      10.20263400 Ry
     Harris-Foulkes estimate   =    -875.35926503 Ry
     estimated scf accuracy    <      39.80464744 Ry

     iteration # 99     ecut=    30.00 Ry     beta=0.70
     Davidson diagonalization with overlap
     ethr =  1.00E-02,  avg # of iterations =  8.0

     negative rho (up, down):  1.121E+00 0.000E+00

     total cpu time spent up to now is       15.2 secs

     total energy              =    -136.08965807 Ry
     Harris-Foulkes estimate   =    -609.50135973 Ry
     estimated scf accuracy    <      34.06466449 Ry

     iteration #100     ecut=    30.00 Ry     beta=0.70
     Davidson diagonalization with overlap
     ethr =  1.00E-02,  avg # of iterations =  7.0

     negative rho (up, down):  1.327E+00 0.000E+00

     total cpu time spent up to now is       15.3 secs

     total energy              =   -7594.43426577 Ry
     Harris-Foulkes estimate   =   -6944.63111547 Ry
     estimated scf accuracy    <      32.09037480 Ry

     End of self-consistent calculation

     convergence NOT achieved after 100 iterations: stopping

     Writing output data file pwscf.save
 
     init_run     :      0.09s CPU      0.11s WALL (       1 calls)
     electrons    :     10.83s CPU     13.54s WALL (       7 calls)
     update_pot   :      0.72s CPU      1.00s WALL (       6 calls)
     forces       :      0.16s CPU      0.16s WALL (       6 calls)

     Called by init_run:
     wfcinit      :      0.01s CPU      0.02s WALL (       1 calls)
     potinit      :      0.02s CPU      0.03s WALL (       1 calls)

     Called by electrons:
     c_bands      :      5.42s CPU      5.74s WALL (     304 calls)
     sum_band     :      0.88s CPU      0.94s WALL (     304 calls)
     v_of_rho     :      2.21s CPU      2.37s WALL (     311 calls)
     mix_rho      :      2.03s CPU      3.57s WALL (     304 calls)

     Called by c_bands:
     init_us_2    :      0.03s CPU      0.04s WALL (     609 calls)
     cegterg      :      5.35s CPU      5.56s WALL (     304 calls)

     Called by sum_band:

     Called by *egterg:
     h_psi        :      4.45s CPU      4.63s WALL (    1630 calls)
     g_psi        :      0.05s CPU      0.05s WALL (    1325 calls)
     cdiaghg      :      0.33s CPU      0.34s WALL (    1623 calls)

     Called by h_psi:
     h_psi:pot    :      4.43s CPU      4.61s WALL (    1630 calls)
     h_psi:calbec :      0.08s CPU      0.08s WALL (    1630 calls)
     vloc_psi     :      4.33s CPU      4.50s WALL (    1630 calls)
     add_vuspsi   :      0.01s CPU      0.01s WALL (    1630 calls)

     General routines
     calbec       :      0.12s CPU      0.13s WALL (    1659 calls)
     fft          :      1.40s CPU      1.52s WALL (    3433 calls)
     fftw         :      4.46s CPU      4.67s WALL (   19968 calls)
     davcio       :      0.32s CPU      1.31s WALL (    5470 calls)
 
     Parallel routines
     fft_scatter  :      2.26s CPU      2.49s WALL (   23401 calls)
 
     PWSCF        :    12.05s CPU        15.37s WALL

 
   This run was terminated on:   2:42:25  11Feb2018            

=------------------------------------------------------------------------------=
   JOB DONE.
=------------------------------------------------------------------------------=
