
     Program PWSCF v.6.0 (svn rev. 13079) starts on 11Feb2018 at  2:42:49 

     This program is part of the open-source Quantum ESPRESSO suite
     for quantum simulation of materials; please cite
         "P. Giannozzi et al., J. Phys.:Condens. Matter 21 395502 (2009);
          URL http://www.quantum-espresso.org", 
     in publications or presentations arising from this work. More details at
     http://www.quantum-espresso.org/quote

     Parallel version (MPI), running on    28 processors
     R & G space division:  proc/nbgrp/npool/nimage =      28
     Reading input from inputs/water-1-md/540.in

     Current dimensions of program PWSCF are:
     Max number of different atomic species (ntypx) = 10
     Max number of k-points (npk) =  40000
     Max angular momentum in pseudopotentials (lmaxx) =  3

     Subspace diagonalization in iterative solution of the eigenvalue problem:
     a serial algorithm will be used

 
     Parallelization info
     --------------------
     sticks:   dense  smooth     PW     G-vecs:    dense   smooth      PW
     Min         136     136     33                 6338     6338     787
     Max         137     137     34                 6341     6341     792
     Sum        3809    3809    949               177509   177509   22119
 


     bravais-lattice index     =            1
     lattice parameter (alat)  =      20.0000  a.u.
     unit-cell volume          =    8000.0000 (a.u.)^3
     number of atoms/cell      =            3
     number of atomic types    =            2
     number of electrons       =         8.00
     number of Kohn-Sham states=            8
     kinetic-energy cutoff     =      30.0000  Ry
     charge density cutoff     =     120.0000  Ry
     convergence threshold     =      1.0E-08
     mixing beta               =       0.7000
     number of iterations used =            8  plain     mixing
     Exchange-correlation      = BLYP ( 1  3  1  3 0 0)
     nstep                     =         5000


     celldm(1)=  20.000000  celldm(2)=   0.000000  celldm(3)=   0.000000
     celldm(4)=   0.000000  celldm(5)=   0.000000  celldm(6)=   0.000000

     crystal axes: (cart. coord. in units of alat)
               a(1) = (   1.000000   0.000000   0.000000 )  
               a(2) = (   0.000000   1.000000   0.000000 )  
               a(3) = (   0.000000   0.000000   1.000000 )  

     reciprocal axes: (cart. coord. in units 2 pi/alat)
               b(1) = (  1.000000  0.000000  0.000000 )  
               b(2) = (  0.000000  1.000000  0.000000 )  
               b(3) = (  0.000000  0.000000  1.000000 )  


     PseudoPot. # 1 for  H read from file:
     ./H.blyp-hgh.UPF
     MD5 check sum: c576e69559cde411e611be972c763230
     Pseudo is Norm-conserving, Zval =  1.0
     Generated in analytical, separable form
     Using radial grid of  929 points,  0 beta functions with: 

     PseudoPot. # 2 for  O read from file:
     ./O.blyp-hgh.UPF
     MD5 check sum: d0b7156309aa9befef28faac7bc56342
     Pseudo is Norm-conserving, Zval =  6.0
     Generated in analytical, separable form
     Using radial grid of 1095 points,  1 beta functions with: 
                l(1) =   0

     atomic species   valence    mass     pseudopotential
        H              1.00     1.01000      H( 1.00)
        O              6.00    16.00000      O( 1.00)

     No symmetry found



   Cartesian axes

     site n.     atom                  positions (alat units)
         1           H   tau(   1) = (   0.4746688   0.4227107   0.5525977  )
         2           H   tau(   2) = (   0.6059624   0.1509470   0.9432194  )
         3           O   tau(   3) = (   0.3860619   0.8593771   0.9571412  )

     number of k points=     1  Marzari-Vanderbilt smearing, width (Ry)=  0.0250
                       cart. coord. in units 2pi/alat
        k(    1) = (   0.0000000   0.0000000   0.0000000), wk =   2.0000000

     Dense  grid:   177509 G-vectors     FFT dimensions: (  72,  72,  72)

     Estimated max dynamical RAM per process >       6.09Mb

     Estimated total allocated dynamical RAM >     170.64Mb

     Initial potential from superposition of free atoms
     Check: negative starting charge=   -0.344749

     starting charge    7.99998, renormalised to    8.00000

     negative rho (up, down):  3.448E-01 0.000E+00
     Starting wfc are    6 randomized atomic wfcs +    2 random wfc

     total cpu time spent up to now is        0.2 secs

     per-process dynamical memory:    18.8 Mb

     Self-consistent Calculation

     iteration #  1     ecut=    30.00 Ry     beta=0.70
     Davidson diagonalization with overlap
     ethr =  1.00E-02,  avg # of iterations =  8.0

     negative rho (up, down):  8.351E-02 0.000E+00

     total cpu time spent up to now is        0.3 secs

     total energy              =     -28.18397273 Ry
     Harris-Foulkes estimate   =     -32.07573500 Ry
     estimated scf accuracy    <       4.47454029 Ry

     iteration #  2     ecut=    30.00 Ry     beta=0.70
     Davidson diagonalization with overlap
     ethr =  1.00E-02,  avg # of iterations =  4.0

     negative rho (up, down):  6.122E-02 0.000E+00

     total cpu time spent up to now is        0.3 secs

     total energy              =     -32.58773741 Ry
     Harris-Foulkes estimate   =     -37.74472575 Ry
     estimated scf accuracy    <      12.60456062 Ry

     iteration #  3     ecut=    30.00 Ry     beta=0.70
     Davidson diagonalization with overlap
     ethr =  1.00E-02,  avg # of iterations =  4.0

     negative rho (up, down):  6.330E-02 0.000E+00

     total cpu time spent up to now is        0.4 secs

     total energy              =     -33.14392641 Ry
     Harris-Foulkes estimate   =     -32.92633571 Ry
     estimated scf accuracy    <       4.83598981 Ry

     iteration #  4     ecut=    30.00 Ry     beta=0.70
     Davidson diagonalization with overlap
     ethr =  1.00E-02,  avg # of iterations =  1.0

     negative rho (up, down):  2.507E-02 0.000E+00

     total cpu time spent up to now is        0.4 secs

     total energy              =     -30.23014207 Ry
     Harris-Foulkes estimate   =     -33.14461558 Ry
     estimated scf accuracy    <       5.16112795 Ry

     iteration #  5     ecut=    30.00 Ry     beta=0.70
     Davidson diagonalization with overlap
     ethr =  1.00E-02,  avg # of iterations =  6.0

     negative rho (up, down):  2.223E-02 0.000E+00

     total cpu time spent up to now is        0.5 secs

     total energy              =     -33.20330893 Ry
     Harris-Foulkes estimate   =     -33.25637862 Ry
     estimated scf accuracy    <      13.49035682 Ry

     iteration #  6     ecut=    30.00 Ry     beta=0.70
     Davidson diagonalization with overlap
     ethr =  1.00E-02,  avg # of iterations =  1.0

     negative rho (up, down):  6.493E-02 0.000E+00

     total cpu time spent up to now is        0.5 secs

     total energy              =     -32.77817286 Ry
     Harris-Foulkes estimate   =     -33.20695567 Ry
     estimated scf accuracy    <      13.14210474 Ry

     iteration #  7     ecut=    30.00 Ry     beta=0.70
     Davidson diagonalization with overlap
     ethr =  1.00E-02,  avg # of iterations =  1.0

     negative rho (up, down):  4.469E-03 0.000E+00

     total cpu time spent up to now is        0.5 secs

     total energy              =     -32.60479966 Ry
     Harris-Foulkes estimate   =     -32.88206283 Ry
     estimated scf accuracy    <       6.02039325 Ry

     iteration #  8     ecut=    30.00 Ry     beta=0.70
     Davidson diagonalization with overlap
     ethr =  1.00E-02,  avg # of iterations =  1.0

     negative rho (up, down):  1.802E-02 0.000E+00

     total cpu time spent up to now is        0.5 secs

     total energy              =     -31.46009394 Ry
     Harris-Foulkes estimate   =     -32.61039079 Ry
     estimated scf accuracy    <       5.44914367 Ry

     iteration #  9     ecut=    30.00 Ry     beta=0.70
     Davidson diagonalization with overlap
     ethr =  1.00E-02,  avg # of iterations =  2.0

     negative rho (up, down):  1.811E-02 0.000E+00

     total cpu time spent up to now is        0.6 secs

     total energy              =     -31.51093744 Ry
     Harris-Foulkes estimate   =     -31.50809403 Ry
     estimated scf accuracy    <       1.51697613 Ry

     iteration # 10     ecut=    30.00 Ry     beta=0.70
     Davidson diagonalization with overlap
     ethr =  1.00E-02,  avg # of iterations =  1.0

     negative rho (up, down):  2.068E-02 0.000E+00

     total cpu time spent up to now is        0.6 secs

     total energy              =     -31.53055576 Ry
     Harris-Foulkes estimate   =     -31.51154205 Ry
     estimated scf accuracy    <       1.81692370 Ry

     iteration # 11     ecut=    30.00 Ry     beta=0.70
     Davidson diagonalization with overlap
     ethr =  1.00E-02,  avg # of iterations =  1.0

     negative rho (up, down):  1.780E-02 0.000E+00

     total cpu time spent up to now is        0.6 secs

     total energy              =     -31.08657465 Ry
     Harris-Foulkes estimate   =     -31.53592001 Ry
     estimated scf accuracy    <       3.65499088 Ry

     iteration # 12     ecut=    30.00 Ry     beta=0.70
     Davidson diagonalization with overlap
     ethr =  1.00E-02,  avg # of iterations =  1.0

     negative rho (up, down):  7.803E-03 0.000E+00

     total cpu time spent up to now is        0.7 secs

     total energy              =     -31.40413301 Ry
     Harris-Foulkes estimate   =     -31.79690622 Ry
     estimated scf accuracy    <       2.98737157 Ry

     iteration # 13     ecut=    30.00 Ry     beta=0.70
     Davidson diagonalization with overlap
     ethr =  1.00E-02,  avg # of iterations =  1.0

     negative rho (up, down):  4.829E-03 0.000E+00

     total cpu time spent up to now is        0.7 secs

     total energy              =     -31.96004635 Ry
     Harris-Foulkes estimate   =     -31.51959918 Ry
     estimated scf accuracy    <       2.55771578 Ry

     iteration # 14     ecut=    30.00 Ry     beta=0.70
     Davidson diagonalization with overlap
     ethr =  1.00E-02,  avg # of iterations =  1.0

     total cpu time spent up to now is        0.7 secs

     total energy              =     -32.09620883 Ry
     Harris-Foulkes estimate   =     -32.05085915 Ry
     estimated scf accuracy    <       4.38586904 Ry

     iteration # 15     ecut=    30.00 Ry     beta=0.70
     Davidson diagonalization with overlap
     ethr =  1.00E-02,  avg # of iterations =  1.0

     negative rho (up, down):  6.024E-07 0.000E+00

     total cpu time spent up to now is        0.8 secs

     total energy              =     -31.80168674 Ry
     Harris-Foulkes estimate   =     -32.09663145 Ry
     estimated scf accuracy    <       4.45606593 Ry

     iteration # 16     ecut=    30.00 Ry     beta=0.70
     Davidson diagonalization with overlap
     ethr =  1.00E-02,  avg # of iterations =  1.0

     negative rho (up, down):  1.124E-03 0.000E+00

     total cpu time spent up to now is        0.8 secs

     total energy              =     -31.80476337 Ry
     Harris-Foulkes estimate   =     -31.80399751 Ry
     estimated scf accuracy    <       3.97751876 Ry

     iteration # 17     ecut=    30.00 Ry     beta=0.70
     Davidson diagonalization with overlap
     ethr =  1.00E-02,  avg # of iterations =  1.0

     negative rho (up, down):  1.150E-02 0.000E+00

     total cpu time spent up to now is        0.8 secs

     total energy              =     -31.73954190 Ry
     Harris-Foulkes estimate   =     -31.80492394 Ry
     estimated scf accuracy    <       3.96567913 Ry

     iteration # 18     ecut=    30.00 Ry     beta=0.70
     Davidson diagonalization with overlap
     ethr =  1.00E-02,  avg # of iterations =  1.0

     negative rho (up, down):  1.309E-03 0.000E+00

     total cpu time spent up to now is        0.9 secs

     total energy              =     -31.71968654 Ry
     Harris-Foulkes estimate   =     -31.73990469 Ry
     estimated scf accuracy    <       3.84693636 Ry

     iteration # 19     ecut=    30.00 Ry     beta=0.70
     Davidson diagonalization with overlap
     ethr =  1.00E-02,  avg # of iterations =  1.0

     negative rho (up, down):  1.988E-05 0.000E+00

     total cpu time spent up to now is        0.9 secs

     total energy              =     -31.47610106 Ry
     Harris-Foulkes estimate   =     -31.71975119 Ry
     estimated scf accuracy    <       3.81321163 Ry

     iteration # 20     ecut=    30.00 Ry     beta=0.70
     Davidson diagonalization with overlap
     ethr =  1.00E-02,  avg # of iterations =  1.0

     negative rho (up, down):  2.219E-03 0.000E+00

     total cpu time spent up to now is        0.9 secs

     total energy              =     -31.51879111 Ry
     Harris-Foulkes estimate   =     -31.49669719 Ry
     estimated scf accuracy    <       0.24062837 Ry

     iteration # 21     ecut=    30.00 Ry     beta=0.70
     Davidson diagonalization with overlap
     ethr =  3.01E-03,  avg # of iterations =  1.0

     negative rho (up, down):  5.702E-02 0.000E+00

     total cpu time spent up to now is        1.0 secs

     total energy              =     -31.24496212 Ry
     Harris-Foulkes estimate   =     -31.58978001 Ry
     estimated scf accuracy    <       4.23034633 Ry

     iteration # 22     ecut=    30.00 Ry     beta=0.70
     Davidson diagonalization with overlap
     ethr =  3.01E-03,  avg # of iterations =  1.0

     negative rho (up, down):  1.172E-03 0.000E+00

     total cpu time spent up to now is        1.0 secs

     total energy              =     -31.48109566 Ry
     Harris-Foulkes estimate   =     -31.62587944 Ry
     estimated scf accuracy    <       2.76737616 Ry

     iteration # 23     ecut=    30.00 Ry     beta=0.70
     Davidson diagonalization with overlap
     ethr =  3.01E-03,  avg # of iterations =  1.0

     negative rho (up, down):  1.139E-03 0.000E+00

     total cpu time spent up to now is        1.0 secs

     total energy              =     -31.47100298 Ry
     Harris-Foulkes estimate   =     -31.49840204 Ry
     estimated scf accuracy    <       0.42870165 Ry

     iteration # 24     ecut=    30.00 Ry     beta=0.70
     Davidson diagonalization with overlap
     ethr =  3.01E-03,  avg # of iterations =  1.0

     negative rho (up, down):  1.123E-03 0.000E+00

     total cpu time spent up to now is        1.1 secs

     total energy              =     -31.49687168 Ry
     Harris-Foulkes estimate   =     -31.51557350 Ry
     estimated scf accuracy    <       2.17360257 Ry

     iteration # 25     ecut=    30.00 Ry     beta=0.70
     Davidson diagonalization with overlap
     ethr =  3.01E-03,  avg # of iterations =  1.0

     negative rho (up, down):  6.387E-05 0.000E+00

     total cpu time spent up to now is        1.1 secs

     total energy              =     -31.50647421 Ry
     Harris-Foulkes estimate   =     -31.50066856 Ry
     estimated scf accuracy    <       0.74133440 Ry

     iteration # 26     ecut=    30.00 Ry     beta=0.70
     Davidson diagonalization with overlap
     ethr =  3.01E-03,  avg # of iterations =  1.0

     negative rho (up, down):  7.587E-04 0.000E+00

     total cpu time spent up to now is        1.1 secs

     total energy              =     -31.44589607 Ry
     Harris-Foulkes estimate   =     -31.50777317 Ry
     estimated scf accuracy    <       1.46413860 Ry

     iteration # 27     ecut=    30.00 Ry     beta=0.70
     Davidson diagonalization with overlap
     ethr =  3.01E-03,  avg # of iterations =  1.0

     negative rho (up, down):  1.157E-04 0.000E+00

     total cpu time spent up to now is        1.2 secs

     total energy              =     -31.49897397 Ry
     Harris-Foulkes estimate   =     -31.51201574 Ry
     estimated scf accuracy    <       1.36813627 Ry

     iteration # 28     ecut=    30.00 Ry     beta=0.70
     Davidson diagonalization with overlap
     ethr =  3.01E-03,  avg # of iterations =  1.0

     negative rho (up, down):  1.059E-04 0.000E+00

     total cpu time spent up to now is        1.2 secs

     total energy              =     -31.49135364 Ry
     Harris-Foulkes estimate   =     -31.50091267 Ry
     estimated scf accuracy    <       0.64088534 Ry

     iteration # 29     ecut=    30.00 Ry     beta=0.70
     Davidson diagonalization with overlap
     ethr =  3.01E-03,  avg # of iterations =  1.0

     negative rho (up, down):  6.817E-08 0.000E+00

     total cpu time spent up to now is        1.2 secs

     total energy              =     -31.49339814 Ry
     Harris-Foulkes estimate   =     -31.49433997 Ry
     estimated scf accuracy    <       0.07689628 Ry

     iteration # 30     ecut=    30.00 Ry     beta=0.70
     Davidson diagonalization with overlap
     ethr =  9.61E-04,  avg # of iterations =  1.0

     negative rho (up, down):  1.609E-04 0.000E+00

     total cpu time spent up to now is        1.3 secs

     total energy              =     -31.49341493 Ry
     Harris-Foulkes estimate   =     -31.49371669 Ry
     estimated scf accuracy    <       0.01342537 Ry

     iteration # 31     ecut=    30.00 Ry     beta=0.70
     Davidson diagonalization with overlap
     ethr =  1.68E-04,  avg # of iterations =  1.0

     negative rho (up, down):  9.961E-05 0.000E+00

     total cpu time spent up to now is        1.3 secs

     total energy              =     -31.49354735 Ry
     Harris-Foulkes estimate   =     -31.49355064 Ry
     estimated scf accuracy    <       0.00015051 Ry

     iteration # 32     ecut=    30.00 Ry     beta=0.70
     Davidson diagonalization with overlap
     ethr =  1.88E-06,  avg # of iterations = 15.0

     negative rho (up, down):  2.092E-05 0.000E+00

     total cpu time spent up to now is        1.4 secs

     total energy              =     -31.49354750 Ry
     Harris-Foulkes estimate   =     -31.49354850 Ry
     estimated scf accuracy    <       0.00011248 Ry

     iteration # 33     ecut=    30.00 Ry     beta=0.70
     Davidson diagonalization with overlap
     ethr =  1.41E-06,  avg # of iterations =  1.0

     negative rho (up, down):  1.429E-07 0.000E+00

     total cpu time spent up to now is        1.4 secs

     total energy              =     -31.49354930 Ry
     Harris-Foulkes estimate   =     -31.49354790 Ry
     estimated scf accuracy    <       0.00002281 Ry

     iteration # 34     ecut=    30.00 Ry     beta=0.70
     Davidson diagonalization with overlap
     ethr =  2.85E-07,  avg # of iterations =  1.0

     total cpu time spent up to now is        1.4 secs

     total energy              =     -31.49354712 Ry
     Harris-Foulkes estimate   =     -31.49355078 Ry
     estimated scf accuracy    <       0.00027902 Ry

     iteration # 35     ecut=    30.00 Ry     beta=0.70
     Davidson diagonalization with overlap
     ethr =  2.85E-07,  avg # of iterations =  1.0

     total cpu time spent up to now is        1.4 secs

     total energy              =     -31.49354773 Ry
     Harris-Foulkes estimate   =     -31.49354828 Ry
     estimated scf accuracy    <       0.00003392 Ry

     iteration # 36     ecut=    30.00 Ry     beta=0.70
     Davidson diagonalization with overlap
     ethr =  2.85E-07,  avg # of iterations =  1.0

     total cpu time spent up to now is        1.5 secs

     total energy              =     -31.49354780 Ry
     Harris-Foulkes estimate   =     -31.49354794 Ry
     estimated scf accuracy    <       0.00000147 Ry

     iteration # 37     ecut=    30.00 Ry     beta=0.70
     Davidson diagonalization with overlap
     ethr =  1.84E-08,  avg # of iterations =  1.0

     total cpu time spent up to now is        1.5 secs

     End of self-consistent calculation

          k = 0.0000 0.0000 0.0000 ( 22119 PWs)   bands (ev):

   -23.6179  -7.0877  -7.0282  -7.0280  -6.9263  -6.8588  -0.2059   0.6495

     the Fermi energy is    -6.8936 ev

!    total energy              =     -31.49354777 Ry
     Harris-Foulkes estimate   =     -31.49354781 Ry
     estimated scf accuracy    <          1.2E-09 Ry

     convergence has been achieved in  37 iterations

     Forces acting on atoms (Ry/au):

     atom    1 type  1   force =     0.00072936    0.00053992    0.00035987
     atom    2 type  1   force =    -0.00180982   -0.00309111    0.00056121
     atom    3 type  2   force =     0.00108046    0.00255120   -0.00092107

     Total force =     0.004756     Total SCF correction =     0.000051

     Molecular Dynamics Calculation

     Starting temperature  =  1000.00 K

     temperature is controlled by Andersen thermostat
     Collision frequency = 1.0000/timestep
     mass H                =     1.01
     mass O                =    16.00
     Time step             =   100.00 a.u.,  4.8378 femto-seconds

     Entering Dynamics:    iteration =     1
                           time      =   0.0048 pico-seconds


     Andersen thermostat:    3 collisions

ATOMIC_POSITIONS (bohr)
H        9.370553272   8.310459363  11.166804693
H       12.179961387   2.866694765  19.011875695
O        7.725158652  17.206226992  19.126263889


     kinetic energy (Ekin) =     0.00478365 Ry
     temperature           =   251.75925971 K 
     Ekin + Etot (const)   =   -31.48876412 Ry

     Linear momentum :    0.0000000000   -0.0000000000    0.0000000000

     Writing output data file pwscf.save
     Check: negative starting charge=   -0.344749
     NEW-OLD atomic charge density approx. for the potential
     Check: negative starting charge=   -0.344267

     negative rho (up, down):  4.524E-02 0.000E+00

     total cpu time spent up to now is        1.8 secs

     per-process dynamical memory:    20.4 Mb

     Self-consistent Calculation

     iteration #  1     ecut=    30.00 Ry     beta=0.70
     Davidson diagonalization with overlap
     c_bands:  1 eigenvalues not converged
     ethr =  1.00E-06,  avg # of iterations = 20.0

     negative rho (up, down):  1.014E-02 0.000E+00

     total cpu time spent up to now is        1.9 secs

     total energy              =     -31.47549873 Ry
     Harris-Foulkes estimate   =     -31.45324195 Ry
     estimated scf accuracy    <       0.01168146 Ry

     iteration #  2     ecut=    30.00 Ry     beta=0.70
     Davidson diagonalization with overlap
     ethr =  1.46E-04,  avg # of iterations =  2.0

     negative rho (up, down):  9.680E-03 0.000E+00

     total cpu time spent up to now is        1.9 secs

     total energy              =     -31.46263466 Ry
     Harris-Foulkes estimate   =     -31.69567679 Ry
     estimated scf accuracy    <       3.80263700 Ry

     iteration #  3     ecut=    30.00 Ry     beta=0.70
     Davidson diagonalization with overlap
     ethr =  1.46E-04,  avg # of iterations =  2.0

     negative rho (up, down):  9.406E-03 0.000E+00

     total cpu time spent up to now is        1.9 secs

     total energy              =     -31.47986943 Ry
     Harris-Foulkes estimate   =     -31.49159172 Ry
     estimated scf accuracy    <       0.33961465 Ry

     iteration #  4     ecut=    30.00 Ry     beta=0.70
     Davidson diagonalization with overlap
     ethr =  1.46E-04,  avg # of iterations =  1.0

     negative rho (up, down):  1.988E-03 0.000E+00

     total cpu time spent up to now is        2.0 secs

     total energy              =     -31.49027255 Ry
     Harris-Foulkes estimate   =     -31.48573419 Ry
     estimated scf accuracy    <       0.04687373 Ry

     iteration #  5     ecut=    30.00 Ry     beta=0.70
     Davidson diagonalization with overlap
     ethr =  1.46E-04,  avg # of iterations =  5.0

     negative rho (up, down):  1.027E-03 0.000E+00

     total cpu time spent up to now is        2.0 secs

     total energy              =     -31.48993844 Ry
     Harris-Foulkes estimate   =     -31.49580111 Ry
     estimated scf accuracy    <       0.25912914 Ry

     iteration #  6     ecut=    30.00 Ry     beta=0.70
     Davidson diagonalization with overlap
     ethr =  1.46E-04,  avg # of iterations =  1.0

     negative rho (up, down):  2.970E-05 0.000E+00

     total cpu time spent up to now is        2.0 secs

     total energy              =     -31.49365941 Ry
     Harris-Foulkes estimate   =     -31.49399400 Ry
     estimated scf accuracy    <       0.01590545 Ry

     iteration #  7     ecut=    30.00 Ry     beta=0.70
     Davidson diagonalization with overlap
     ethr =  1.46E-04,  avg # of iterations =  5.0

     negative rho (up, down):  2.430E-06 0.000E+00

     total cpu time spent up to now is        2.1 secs

     total energy              =     -31.49397325 Ry
     Harris-Foulkes estimate   =     -31.49414404 Ry
     estimated scf accuracy    <       0.00883785 Ry

     iteration #  8     ecut=    30.00 Ry     beta=0.70
     Davidson diagonalization with overlap
     ethr =  1.10E-04,  avg # of iterations =  1.0

     total cpu time spent up to now is        2.1 secs

     total energy              =     -31.49407107 Ry
     Harris-Foulkes estimate   =     -31.49406549 Ry
     estimated scf accuracy    <       0.00000483 Ry

     iteration #  9     ecut=    30.00 Ry     beta=0.70
     Davidson diagonalization with overlap
     ethr =  6.04E-08,  avg # of iterations = 11.0

     total cpu time spent up to now is        2.1 secs

     total energy              =     -31.49407038 Ry
     Harris-Foulkes estimate   =     -31.49407173 Ry
     estimated scf accuracy    <       0.00008684 Ry

     iteration # 10     ecut=    30.00 Ry     beta=0.70
     Davidson diagonalization with overlap
     ethr =  6.04E-08,  avg # of iterations =  1.0

     total cpu time spent up to now is        2.2 secs

     total energy              =     -31.49407162 Ry
     Harris-Foulkes estimate   =     -31.49407136 Ry
     estimated scf accuracy    <       0.00000036 Ry

     iteration # 11     ecut=    30.00 Ry     beta=0.70
     Davidson diagonalization with overlap
     ethr =  4.44E-09,  avg # of iterations =  1.0

     total cpu time spent up to now is        2.2 secs

     total energy              =     -31.49407161 Ry
     Harris-Foulkes estimate   =     -31.49407163 Ry
     estimated scf accuracy    <       0.00000104 Ry

     iteration # 12     ecut=    30.00 Ry     beta=0.70
     Davidson diagonalization with overlap
     ethr =  4.44E-09,  avg # of iterations =  1.0

     total cpu time spent up to now is        2.2 secs

     End of self-consistent calculation

          k = 0.0000 0.0000 0.0000 ( 22119 PWs)   bands (ev):

   -23.6181  -7.0948  -7.0282  -7.0281  -6.9255  -6.8519  -0.2044   0.6497

     the Fermi energy is    -6.8936 ev

!    total energy              =     -31.49407158 Ry
     Harris-Foulkes estimate   =     -31.49407162 Ry
     estimated scf accuracy    <          4.4E-09 Ry

     convergence has been achieved in  12 iterations

     Forces acting on atoms (Ry/au):

     atom    1 type  1   force =     0.00070629    0.00026219    0.00063583
     atom    2 type  1   force =    -0.00261274   -0.00412879    0.00068653
     atom    3 type  2   force =     0.00190645    0.00386660   -0.00132236

     Total force =     0.006757     Total SCF correction =     0.000064

     Entering Dynamics:    iteration =     2
                           time      =   0.0097 pico-seconds


     Andersen thermostat:    3 collisions

ATOMIC_POSITIONS (bohr)
H        9.727869802   8.324555888  11.123661553
H       11.873412526   2.878062282  18.885922065
O        7.721953943  17.204619574  19.136938123


     kinetic energy (Ekin) =     0.01311051 Ry
     temperature           =   689.99435531 K 
     Ekin + Etot (const)   =   -31.48096107 Ry
     Message from routine dynamics:
     Total linear momentum <> 0

     Linear momentum :   -0.2539924343   -0.3506315891    0.0911623635

     Writing output data file pwscf.save

     first order wave-functions extrapolation
     Check: negative starting charge=   -0.344267
     first order charge density extrapolation
     Check: negative starting charge=   -0.344024

     negative rho (up, down):  7.444E-02 0.000E+00

     total cpu time spent up to now is        2.5 secs

     per-process dynamical memory:    20.4 Mb

     Self-consistent Calculation

     iteration #  1     ecut=    30.00 Ry     beta=0.70
     Davidson diagonalization with overlap
     c_bands:  1 eigenvalues not converged
     ethr =  1.00E-06,  avg # of iterations = 20.0

     negative rho (up, down):  1.730E-02 0.000E+00

     total cpu time spent up to now is        2.6 secs

     total energy              =     -31.39704887 Ry
     Harris-Foulkes estimate   =     -31.43113928 Ry
     estimated scf accuracy    <       0.10083039 Ry

     iteration #  2     ecut=    30.00 Ry     beta=0.70
     Davidson diagonalization with overlap
     ethr =  1.26E-03,  avg # of iterations =  2.0

     negative rho (up, down):  1.533E-02 0.000E+00

     total cpu time spent up to now is        2.7 secs

     total energy              =     -31.51670827 Ry
     Harris-Foulkes estimate   =     -32.22783674 Ry
     estimated scf accuracy    <       4.75280339 Ry

     iteration #  3     ecut=    30.00 Ry     beta=0.70
     Davidson diagonalization with overlap
     ethr =  1.26E-03,  avg # of iterations =  2.0

     negative rho (up, down):  1.501E-02 0.000E+00

     total cpu time spent up to now is        2.7 secs

     total energy              =     -31.41870612 Ry
     Harris-Foulkes estimate   =     -31.53009221 Ry
     estimated scf accuracy    <       3.80241230 Ry

     iteration #  4     ecut=    30.00 Ry     beta=0.70
     Davidson diagonalization with overlap
     ethr =  1.26E-03,  avg # of iterations =  1.0

     negative rho (up, down):  1.334E-02 0.000E+00

     total cpu time spent up to now is        2.7 secs

     total energy              =     -31.46576806 Ry
     Harris-Foulkes estimate   =     -31.48418937 Ry
     estimated scf accuracy    <       0.35642002 Ry

     iteration #  5     ecut=    30.00 Ry     beta=0.70
     Davidson diagonalization with overlap
     ethr =  1.26E-03,  avg # of iterations =  1.0

     negative rho (up, down):  2.465E-03 0.000E+00

     total cpu time spent up to now is        2.8 secs

     total energy              =     -31.48364258 Ry
     Harris-Foulkes estimate   =     -31.49349950 Ry
     estimated scf accuracy    <       1.12567436 Ry

     iteration #  6     ecut=    30.00 Ry     beta=0.70
     Davidson diagonalization with overlap
     ethr =  1.26E-03,  avg # of iterations =  1.0

     negative rho (up, down):  6.901E-04 0.000E+00

     total cpu time spent up to now is        2.8 secs

     total energy              =     -31.49494454 Ry
     Harris-Foulkes estimate   =     -31.49359417 Ry
     estimated scf accuracy    <       0.00513424 Ry

     iteration #  7     ecut=    30.00 Ry     beta=0.70
     Davidson diagonalization with overlap
     ethr =  6.42E-05,  avg # of iterations = 10.0

     negative rho (up, down):  2.601E-05 0.000E+00

     total cpu time spent up to now is        2.8 secs

     total energy              =     -31.49522048 Ry
     Harris-Foulkes estimate   =     -31.49510968 Ry
     estimated scf accuracy    <       0.00193579 Ry

     iteration #  8     ecut=    30.00 Ry     beta=0.70
     Davidson diagonalization with overlap
     ethr =  2.42E-05,  avg # of iterations =  3.0

     negative rho (up, down):  3.368E-07 0.000E+00

     total cpu time spent up to now is        2.9 secs

     total energy              =     -31.49481516 Ry
     Harris-Foulkes estimate   =     -31.49531641 Ry
     estimated scf accuracy    <       0.01916969 Ry

     iteration #  9     ecut=    30.00 Ry     beta=0.70
     Davidson diagonalization with overlap
     ethr =  2.42E-05,  avg # of iterations =  1.0

     negative rho (up, down):  2.060E-08 0.000E+00

     total cpu time spent up to now is        2.9 secs

     total energy              =     -31.49517236 Ry
     Harris-Foulkes estimate   =     -31.49514749 Ry
     estimated scf accuracy    <       0.00206652 Ry

     iteration # 10     ecut=    30.00 Ry     beta=0.70
     Davidson diagonalization with overlap
     ethr =  2.42E-05,  avg # of iterations =  1.0

     total cpu time spent up to now is        2.9 secs

     total energy              =     -31.49514606 Ry
     Harris-Foulkes estimate   =     -31.49518187 Ry
     estimated scf accuracy    <       0.00574910 Ry

     iteration # 11     ecut=    30.00 Ry     beta=0.70
     Davidson diagonalization with overlap
     ethr =  2.42E-05,  avg # of iterations =  1.0

     total cpu time spent up to now is        3.0 secs

     total energy              =     -31.49509533 Ry
     Harris-Foulkes estimate   =     -31.49515162 Ry
     estimated scf accuracy    <       0.00272202 Ry

     iteration # 12     ecut=    30.00 Ry     beta=0.70
     Davidson diagonalization with overlap
     ethr =  2.42E-05,  avg # of iterations =  1.0

     total cpu time spent up to now is        3.0 secs

     total energy              =     -31.49512440 Ry
     Harris-Foulkes estimate   =     -31.49512499 Ry
     estimated scf accuracy    <       0.00001030 Ry

     iteration # 13     ecut=    30.00 Ry     beta=0.70
     Davidson diagonalization with overlap
     ethr =  1.29E-07,  avg # of iterations =  1.0

     total cpu time spent up to now is        3.0 secs

     total energy              =     -31.49512421 Ry
     Harris-Foulkes estimate   =     -31.49512451 Ry
     estimated scf accuracy    <       0.00000001 Ry

     iteration # 14     ecut=    30.00 Ry     beta=0.70
     Davidson diagonalization with overlap
     ethr =  1.44E-10,  avg # of iterations =  2.0

     total cpu time spent up to now is        3.1 secs

     End of self-consistent calculation

          k = 0.0000 0.0000 0.0000 ( 22119 PWs)   bands (ev):

   -23.6250  -7.1143  -7.0339  -7.0338  -6.9314  -6.8429  -0.2007   0.6518

     the Fermi energy is    -6.8993 ev

!    total energy              =     -31.49512388 Ry
     Harris-Foulkes estimate   =     -31.49512421 Ry
     estimated scf accuracy    <          7.4E-09 Ry

     convergence has been achieved in  14 iterations

     Forces acting on atoms (Ry/au):

     atom    1 type  1   force =     0.00070787    0.00013750    0.00069625
     atom    2 type  1   force =    -0.00368027   -0.00623671    0.00091125
     atom    3 type  2   force =     0.00297240    0.00609921   -0.00160749

     Total force =     0.010144     Total SCF correction =     0.000804

     Entering Dynamics:    iteration =     3
                           time      =   0.0145 pico-seconds


     Andersen thermostat:    3 collisions

ATOMIC_POSITIONS (bohr)
H       10.292614384   8.589495933  10.882352977
H       12.282307467   3.081855989  18.309487165
O        7.660492948  17.175030756  19.188558180


     kinetic energy (Ekin) =     0.05368940 Ry
     temperature           =  2825.62546381 K 
     Ekin + Etot (const)   =   -31.44143447 Ry
     Message from routine dynamics:
     Total linear momentum <> 0

     Linear momentum :   -0.0410086889   -0.0850114795   -0.2771762176

     Writing output data file pwscf.save

     second order wave-functions extrapolation
     Check: negative starting charge=   -0.344024
     second order charge density extrapolation
     Check: negative starting charge=   -0.346195

     negative rho (up, down):  1.527E-01 0.000E+00

     total cpu time spent up to now is        3.4 secs

     per-process dynamical memory:    20.4 Mb

     Self-consistent Calculation

     iteration #  1     ecut=    30.00 Ry     beta=0.70
     Davidson diagonalization with overlap
     c_bands:  1 eigenvalues not converged
     ethr =  1.00E-06,  avg # of iterations = 20.0

     negative rho (up, down):  3.880E-02 0.000E+00

     total cpu time spent up to now is        3.5 secs

     total energy              =     -28.04139704 Ry
     Harris-Foulkes estimate   =     -31.83160263 Ry
     estimated scf accuracy    <       3.96185431 Ry

     iteration #  2     ecut=    30.00 Ry     beta=0.70
     Davidson diagonalization with overlap
     ethr =  1.00E-02,  avg # of iterations =  4.0

     negative rho (up, down):  2.880E-02 0.000E+00

     total cpu time spent up to now is        3.5 secs

     total energy              =     -32.89967844 Ry
     Harris-Foulkes estimate   =     -37.93145891 Ry
     estimated scf accuracy    <      12.72108056 Ry

     iteration #  3     ecut=    30.00 Ry     beta=0.70
     Davidson diagonalization with overlap
     ethr =  1.00E-02,  avg # of iterations =  3.0

     negative rho (up, down):  2.345E-02 0.000E+00

     total cpu time spent up to now is        3.6 secs

     total energy              =     -32.01599403 Ry
     Harris-Foulkes estimate   =     -33.20259385 Ry
     estimated scf accuracy    <       5.21298577 Ry

     iteration #  4     ecut=    30.00 Ry     beta=0.70
     Davidson diagonalization with overlap
     ethr =  1.00E-02,  avg # of iterations =  2.0

     negative rho (up, down):  1.652E-02 0.000E+00

     total cpu time spent up to now is        3.6 secs

     total energy              =     -31.08371132 Ry
     Harris-Foulkes estimate   =     -32.02628686 Ry
     estimated scf accuracy    <       3.43462746 Ry

     iteration #  5     ecut=    30.00 Ry     beta=0.70
     Davidson diagonalization with overlap
     ethr =  1.00E-02,  avg # of iterations =  2.0

     negative rho (up, down):  1.648E-02 0.000E+00

     total cpu time spent up to now is        3.6 secs

     total energy              =     -31.47356980 Ry
     Harris-Foulkes estimate   =     -31.47709177 Ry
     estimated scf accuracy    <       1.00974785 Ry

     iteration #  6     ecut=    30.00 Ry     beta=0.70
     Davidson diagonalization with overlap
     ethr =  1.00E-02,  avg # of iterations =  4.0

     negative rho (up, down):  1.194E-02 0.000E+00

     total cpu time spent up to now is        3.7 secs

     total energy              =     -31.27995245 Ry
     Harris-Foulkes estimate   =     -31.88307613 Ry
     estimated scf accuracy    <       4.11341919 Ry

     iteration #  7     ecut=    30.00 Ry     beta=0.70
     Davidson diagonalization with overlap
     ethr =  1.00E-02,  avg # of iterations =  1.0

     negative rho (up, down):  5.821E-03 0.000E+00

     total cpu time spent up to now is        3.7 secs

     total energy              =     -31.25464270 Ry
     Harris-Foulkes estimate   =     -31.59852941 Ry
     estimated scf accuracy    <       2.70213372 Ry

     iteration #  8     ecut=    30.00 Ry     beta=0.70
     Davidson diagonalization with overlap
     ethr =  1.00E-02,  avg # of iterations =  1.0

     negative rho (up, down):  1.931E-03 0.000E+00

     total cpu time spent up to now is        3.7 secs

     total energy              =     -31.74394541 Ry
     Harris-Foulkes estimate   =     -31.70733453 Ry
     estimated scf accuracy    <       3.79750246 Ry

     iteration #  9     ecut=    30.00 Ry     beta=0.70
     Davidson diagonalization with overlap
     ethr =  1.00E-02,  avg # of iterations =  1.0

     negative rho (up, down):  2.676E-04 0.000E+00

     total cpu time spent up to now is        3.8 secs

     total energy              =     -31.72760625 Ry
     Harris-Foulkes estimate   =     -31.74450850 Ry
     estimated scf accuracy    <       3.86288043 Ry

     iteration # 10     ecut=    30.00 Ry     beta=0.70
     Davidson diagonalization with overlap
     ethr =  1.00E-02,  avg # of iterations =  1.0

     negative rho (up, down):  2.562E-05 0.000E+00

     total cpu time spent up to now is        3.8 secs

     total energy              =     -31.68592460 Ry
     Harris-Foulkes estimate   =     -31.72766622 Ry
     estimated scf accuracy    <       3.84623329 Ry

     iteration # 11     ecut=    30.00 Ry     beta=0.70
     Davidson diagonalization with overlap
     ethr =  1.00E-02,  avg # of iterations =  1.0

     negative rho (up, down):  1.405E-05 0.000E+00

     total cpu time spent up to now is        3.8 secs

     total energy              =     -31.39118871 Ry
     Harris-Foulkes estimate   =     -31.68596873 Ry
     estimated scf accuracy    <       3.78276444 Ry

     iteration # 12     ecut=    30.00 Ry     beta=0.70
     Davidson diagonalization with overlap
     ethr =  1.00E-02,  avg # of iterations =  1.0

     negative rho (up, down):  8.277E-07 0.000E+00

     total cpu time spent up to now is        3.9 secs

     total energy              =     -31.46658640 Ry
     Harris-Foulkes estimate   =     -31.52554400 Ry
     estimated scf accuracy    <       2.00625896 Ry

     iteration # 13     ecut=    30.00 Ry     beta=0.70
     Davidson diagonalization with overlap
     ethr =  1.00E-02,  avg # of iterations =  1.0

     negative rho (up, down):  3.129E-07 0.000E+00

     total cpu time spent up to now is        3.9 secs

     total energy              =     -31.49006620 Ry
     Harris-Foulkes estimate   =     -31.49362203 Ry
     estimated scf accuracy    <       0.05697441 Ry

     iteration # 14     ecut=    30.00 Ry     beta=0.70
     Davidson diagonalization with overlap
     ethr =  7.12E-04,  avg # of iterations =  1.0

     negative rho (up, down):  8.708E-07 0.000E+00

     total cpu time spent up to now is        4.0 secs

     total energy              =     -31.49939773 Ry
     Harris-Foulkes estimate   =     -31.50439102 Ry
     estimated scf accuracy    <       0.92496442 Ry

     iteration # 15     ecut=    30.00 Ry     beta=0.70
     Davidson diagonalization with overlap
     ethr =  7.12E-04,  avg # of iterations =  1.0

     negative rho (up, down):  2.333E-07 0.000E+00

     total cpu time spent up to now is        4.0 secs

     total energy              =     -31.49083855 Ry
     Harris-Foulkes estimate   =     -31.49987842 Ry
     estimated scf accuracy    <       0.59526225 Ry

     iteration # 16     ecut=    30.00 Ry     beta=0.70
     Davidson diagonalization with overlap
     ethr =  7.12E-04,  avg # of iterations =  1.0

     negative rho (up, down):  2.096E-05 0.000E+00

     total cpu time spent up to now is        4.0 secs

     total energy              =     -31.49197704 Ry
     Harris-Foulkes estimate   =     -31.49378694 Ry
     estimated scf accuracy    <       0.07518131 Ry

     iteration # 17     ecut=    30.00 Ry     beta=0.70
     Davidson diagonalization with overlap
     ethr =  7.12E-04,  avg # of iterations =  1.0

     negative rho (up, down):  1.576E-05 0.000E+00

     total cpu time spent up to now is        4.1 secs

     total energy              =     -31.49395959 Ry
     Harris-Foulkes estimate   =     -31.49338662 Ry
     estimated scf accuracy    <       0.04498981 Ry

     iteration # 18     ecut=    30.00 Ry     beta=0.70
     Davidson diagonalization with overlap
     ethr =  5.62E-04,  avg # of iterations =  1.0

     negative rho (up, down):  3.903E-06 0.000E+00

     total cpu time spent up to now is        4.1 secs

     total energy              =     -31.49501308 Ry
     Harris-Foulkes estimate   =     -31.49446383 Ry
     estimated scf accuracy    <       0.16650435 Ry

     iteration # 19     ecut=    30.00 Ry     beta=0.70
     Davidson diagonalization with overlap
     ethr =  5.62E-04,  avg # of iterations =  1.0

     negative rho (up, down):  2.085E-07 0.000E+00

     total cpu time spent up to now is        4.1 secs

     total energy              =     -31.49609889 Ry
     Harris-Foulkes estimate   =     -31.49506892 Ry
     estimated scf accuracy    <       0.23058048 Ry

     iteration # 20     ecut=    30.00 Ry     beta=0.70
     Davidson diagonalization with overlap
     ethr =  5.62E-04,  avg # of iterations =  1.0

     negative rho (up, down):  8.344E-06 0.000E+00

     total cpu time spent up to now is        4.2 secs

     total energy              =     -31.48657486 Ry
     Harris-Foulkes estimate   =     -31.49624114 Ry
     estimated scf accuracy    <       0.35721916 Ry

     iteration # 21     ecut=    30.00 Ry     beta=0.70
     Davidson diagonalization with overlap
     ethr =  5.62E-04,  avg # of iterations =  1.0

     negative rho (up, down):  5.182E-06 0.000E+00

     total cpu time spent up to now is        4.2 secs

     total energy              =     -31.49204177 Ry
     Harris-Foulkes estimate   =     -31.49354242 Ry
     estimated scf accuracy    <       0.07428724 Ry

     iteration # 22     ecut=    30.00 Ry     beta=0.70
     Davidson diagonalization with overlap
     ethr =  5.62E-04,  avg # of iterations =  1.0

     negative rho (up, down):  7.140E-08 0.000E+00

     total cpu time spent up to now is        4.2 secs

     total energy              =     -31.49275516 Ry
     Harris-Foulkes estimate   =     -31.49276654 Ry
     estimated scf accuracy    <       0.00024324 Ry

     iteration # 23     ecut=    30.00 Ry     beta=0.70
     Davidson diagonalization with overlap
     c_bands:  1 eigenvalues not converged
     ethr =  3.04E-06,  avg # of iterations = 20.0

     total cpu time spent up to now is        4.3 secs

     total energy              =     -31.49275644 Ry
     Harris-Foulkes estimate   =     -31.49276518 Ry
     estimated scf accuracy    <       0.00027918 Ry

     iteration # 24     ecut=    30.00 Ry     beta=0.70
     Davidson diagonalization with overlap
     ethr =  3.04E-06,  avg # of iterations = 18.0

     total cpu time spent up to now is        4.3 secs

     total energy              =     -31.49276014 Ry
     Harris-Foulkes estimate   =     -31.49275944 Ry
     estimated scf accuracy    <       0.00000007 Ry

     iteration # 25     ecut=    30.00 Ry     beta=0.70
     Davidson diagonalization with overlap
     ethr =  9.03E-10,  avg # of iterations =  2.0

     total cpu time spent up to now is        4.4 secs

     total energy              =     -31.49276028 Ry
     Harris-Foulkes estimate   =     -31.49276017 Ry
     estimated scf accuracy    <       0.00000085 Ry

     iteration # 26     ecut=    30.00 Ry     beta=0.70
     Davidson diagonalization with overlap
     ethr =  9.03E-10,  avg # of iterations =  1.0

     total cpu time spent up to now is        4.4 secs

     total energy              =     -31.49276040 Ry
     Harris-Foulkes estimate   =     -31.49276029 Ry
     estimated scf accuracy    <       0.00000001 Ry

     iteration # 27     ecut=    30.00 Ry     beta=0.70
     Davidson diagonalization with overlap
     ethr =  1.85E-10,  avg # of iterations =  1.0

     total cpu time spent up to now is        4.4 secs

     total energy              =     -31.49276046 Ry
     Harris-Foulkes estimate   =     -31.49276040 Ry
     estimated scf accuracy    <       0.00000001 Ry

     iteration # 28     ecut=    30.00 Ry     beta=0.70
     Davidson diagonalization with overlap
     ethr =  1.79E-10,  avg # of iterations =  1.0

     total cpu time spent up to now is        4.5 secs

     End of self-consistent calculation

          k = 0.0000 0.0000 0.0000 ( 22119 PWs)   bands (ev):

   -23.6209  -7.0791  -7.0321  -7.0315  -6.9332  -6.8726  -0.2088   0.6261

     the Fermi energy is    -6.8975 ev

!    total energy              =     -31.49276047 Ry
     Harris-Foulkes estimate   =     -31.49276046 Ry
     estimated scf accuracy    <          1.0E-09 Ry

     convergence has been achieved in  28 iterations

     Forces acting on atoms (Ry/au):

     atom    1 type  1   force =     0.00024400    0.00035198   -0.00011109
     atom    2 type  1   force =    -0.00142347   -0.00213416    0.00014557
     atom    3 type  2   force =     0.00117947    0.00178219   -0.00003448

     Total force =     0.003371     Total SCF correction =     0.000021

     Entering Dynamics:    iteration =     4
                           time      =   0.0194 pico-seconds


     Andersen thermostat:    3 collisions

ATOMIC_POSITIONS (bohr)
H       10.178013935   8.876421261  11.125256433
H       12.674150389   3.034869360  18.162381399
O        7.642992017  17.159884626  19.182510951


     kinetic energy (Ekin) =     0.01871285 Ry
     temperature           =   984.84080597 K 
     Ekin + Etot (const)   =   -31.47404762 Ry
     Message from routine dynamics:
     Total linear momentum <> 0

     Linear momentum :    0.3488600901    0.2921550009    0.1433034407

     Writing output data file pwscf.save

     second order wave-functions extrapolation
     Check: negative starting charge=   -0.346195
     second order charge density extrapolation
     Check: negative starting charge=   -0.346814

     negative rho (up, down):  5.044E-02 0.000E+00

     total cpu time spent up to now is        4.8 secs

     per-process dynamical memory:    20.4 Mb

     Self-consistent Calculation

     iteration #  1     ecut=    30.00 Ry     beta=0.70
     Davidson diagonalization with overlap
     ethr =  1.00E-06,  avg # of iterations = 19.0

     negative rho (up, down):  1.183E-02 0.000E+00

     total cpu time spent up to now is        4.9 secs

     total energy              =     -23.21314086 Ry
     Harris-Foulkes estimate   =     -33.52801296 Ry
     estimated scf accuracy    <       3.50489272 Ry

     iteration #  2     ecut=    30.00 Ry     beta=0.70
     Davidson diagonalization with overlap
     ethr =  1.00E-02,  avg # of iterations =  4.0

     negative rho (up, down):  8.523E-03 0.000E+00

     total cpu time spent up to now is        4.9 secs

     total energy              =     -31.85558823 Ry
     Harris-Foulkes estimate   =     -35.54205104 Ry
     estimated scf accuracy    <       8.92597046 Ry

     iteration #  3     ecut=    30.00 Ry     beta=0.70
     Davidson diagonalization with overlap
     ethr =  1.00E-02,  avg # of iterations =  3.0

     negative rho (up, down):  6.694E-03 0.000E+00

     total cpu time spent up to now is        5.0 secs

     total energy              =     -31.72803841 Ry
     Harris-Foulkes estimate   =     -32.34795732 Ry
     estimated scf accuracy    <       2.13396975 Ry

     iteration #  4     ecut=    30.00 Ry     beta=0.70
     Davidson diagonalization with overlap
     ethr =  1.00E-02,  avg # of iterations =  1.0

     negative rho (up, down):  5.099E-03 0.000E+00

     total cpu time spent up to now is        5.0 secs

     total energy              =     -31.46141157 Ry
     Harris-Foulkes estimate   =     -32.17208718 Ry
     estimated scf accuracy    <       3.53611547 Ry

     iteration #  5     ecut=    30.00 Ry     beta=0.70
     Davidson diagonalization with overlap
     ethr =  1.00E-02,  avg # of iterations =  2.0

     negative rho (up, down):  4.051E-03 0.000E+00

     total cpu time spent up to now is        5.0 secs

     total energy              =     -31.16599547 Ry
     Harris-Foulkes estimate   =     -31.61446009 Ry
     estimated scf accuracy    <       3.96108138 Ry

     iteration #  6     ecut=    30.00 Ry     beta=0.70
     Davidson diagonalization with overlap
     ethr =  1.00E-02,  avg # of iterations =  1.0

     negative rho (up, down):  2.763E-03 0.000E+00

     total cpu time spent up to now is        5.1 secs

     total energy              =     -31.61650336 Ry
     Harris-Foulkes estimate   =     -31.87785009 Ry
     estimated scf accuracy    <       3.14581922 Ry

     iteration #  7     ecut=    30.00 Ry     beta=0.70
     Davidson diagonalization with overlap
     ethr =  1.00E-02,  avg # of iterations =  1.0

     negative rho (up, down):  1.428E-03 0.000E+00

     total cpu time spent up to now is        5.1 secs

     total energy              =     -31.35861868 Ry
     Harris-Foulkes estimate   =     -31.62119353 Ry
     estimated scf accuracy    <       1.96706341 Ry

     iteration #  8     ecut=    30.00 Ry     beta=0.70
     Davidson diagonalization with overlap
     ethr =  1.00E-02,  avg # of iterations =  1.0

     negative rho (up, down):  1.430E-03 0.000E+00

     total cpu time spent up to now is        5.1 secs

     total energy              =     -31.56072535 Ry
     Harris-Foulkes estimate   =     -31.63045497 Ry
     estimated scf accuracy    <       3.87178574 Ry

     iteration #  9     ecut=    30.00 Ry     beta=0.70
     Davidson diagonalization with overlap
     ethr =  1.00E-02,  avg # of iterations =  1.0

     negative rho (up, down):  1.075E-03 0.000E+00

     total cpu time spent up to now is        5.2 secs

     total energy              =     -31.48887102 Ry
     Harris-Foulkes estimate   =     -31.55737183 Ry
     estimated scf accuracy    <       3.84753230 Ry

     iteration # 10     ecut=    30.00 Ry     beta=0.70
     Davidson diagonalization with overlap
     ethr =  1.00E-02,  avg # of iterations =  1.0

     negative rho (up, down):  8.846E-07 0.000E+00

     total cpu time spent up to now is        5.2 secs

     total energy              =     -31.55569638 Ry
     Harris-Foulkes estimate   =     -31.50014910 Ry
     estimated scf accuracy    <       0.97896234 Ry

     iteration # 11     ecut=    30.00 Ry     beta=0.70
     Davidson diagonalization with overlap
     ethr =  1.00E-02,  avg # of iterations =  1.0

     negative rho (up, down):  1.646E-03 0.000E+00

     total cpu time spent up to now is        5.2 secs

     total energy              =     -30.81773759 Ry
     Harris-Foulkes estimate   =     -31.66887605 Ry
     estimated scf accuracy    <       4.23004823 Ry

     iteration # 12     ecut=    30.00 Ry     beta=0.70
     Davidson diagonalization with overlap
     ethr =  1.00E-02,  avg # of iterations =  1.0

     negative rho (up, down):  9.118E-04 0.000E+00

     total cpu time spent up to now is        5.3 secs

     total energy              =     -31.96314784 Ry
     Harris-Foulkes estimate   =     -32.04343281 Ry
     estimated scf accuracy    <       3.49480764 Ry

     iteration # 13     ecut=    30.00 Ry     beta=0.70
     Davidson diagonalization with overlap
     ethr =  1.00E-02,  avg # of iterations =  1.0

     negative rho (up, down):  6.027E-05 0.000E+00

     total cpu time spent up to now is        5.3 secs

     total energy              =     -31.71041087 Ry
     Harris-Foulkes estimate   =     -31.96408657 Ry
     estimated scf accuracy    <       3.35564363 Ry

     iteration # 14     ecut=    30.00 Ry     beta=0.70
     Davidson diagonalization with overlap
     ethr =  1.00E-02,  avg # of iterations =  1.0

     total cpu time spent up to now is        5.3 secs

     total energy              =     -31.52178933 Ry
     Harris-Foulkes estimate   =     -31.71272811 Ry
     estimated scf accuracy    <       2.92702031 Ry

     iteration # 15     ecut=    30.00 Ry     beta=0.70
     Davidson diagonalization with overlap
     ethr =  1.00E-02,  avg # of iterations =  1.0

     total cpu time spent up to now is        5.4 secs

     total energy              =     -31.51907605 Ry
     Harris-Foulkes estimate   =     -31.52792166 Ry
     estimated scf accuracy    <       1.53433245 Ry

     iteration # 16     ecut=    30.00 Ry     beta=0.70
     Davidson diagonalization with overlap
     ethr =  1.00E-02,  avg # of iterations =  1.0

     total cpu time spent up to now is        5.4 secs

     total energy              =     -31.52137108 Ry
     Harris-Foulkes estimate   =     -31.52193595 Ry
     estimated scf accuracy    <       0.84472421 Ry

     iteration # 17     ecut=    30.00 Ry     beta=0.70
     Davidson diagonalization with overlap
     ethr =  1.00E-02,  avg # of iterations =  1.0

     total cpu time spent up to now is        5.4 secs

     total energy              =     -31.51400075 Ry
     Harris-Foulkes estimate   =     -31.52160108 Ry
     estimated scf accuracy    <       0.98706473 Ry

     iteration # 18     ecut=    30.00 Ry     beta=0.70
     Davidson diagonalization with overlap
     ethr =  1.00E-02,  avg # of iterations =  1.0

     total cpu time spent up to now is        5.5 secs

     total energy              =     -31.52798679 Ry
     Harris-Foulkes estimate   =     -31.51519886 Ry
     estimated scf accuracy    <       0.66054672 Ry

     iteration # 19     ecut=    30.00 Ry     beta=0.70
     Davidson diagonalization with overlap
     ethr =  8.26E-03,  avg # of iterations =  1.0

     total cpu time spent up to now is        5.5 secs

     total energy              =     -31.52318819 Ry
     Harris-Foulkes estimate   =     -31.52905115 Ry
     estimated scf accuracy    <       0.95384289 Ry

     iteration # 20     ecut=    30.00 Ry     beta=0.70
     Davidson diagonalization with overlap
     ethr =  8.26E-03,  avg # of iterations =  1.0

     negative rho (up, down):  2.833E-04 0.000E+00

     total cpu time spent up to now is        5.5 secs

     total energy              =     -31.06557947 Ry
     Harris-Foulkes estimate   =     -31.57441532 Ry
     estimated scf accuracy    <       1.22335082 Ry

     iteration # 21     ecut=    30.00 Ry     beta=0.70
     Davidson diagonalization with overlap
     ethr =  8.26E-03,  avg # of iterations =  2.0

     negative rho (up, down):  9.911E-04 0.000E+00

     total cpu time spent up to now is        5.6 secs

     total energy              =     -31.77285002 Ry
     Harris-Foulkes estimate   =     -32.09187666 Ry
     estimated scf accuracy    <       1.95609324 Ry

     iteration # 22     ecut=    30.00 Ry     beta=0.70
     Davidson diagonalization with overlap
     ethr =  8.26E-03,  avg # of iterations =  1.0

     negative rho (up, down):  9.444E-04 0.000E+00

     total cpu time spent up to now is        5.6 secs

     total energy              =     -31.99149254 Ry
     Harris-Foulkes estimate   =     -32.20432105 Ry
     estimated scf accuracy    <       3.64522747 Ry

     iteration # 23     ecut=    30.00 Ry     beta=0.70
     Davidson diagonalization with overlap
     ethr =  8.26E-03,  avg # of iterations =  1.0

     negative rho (up, down):  1.216E-05 0.000E+00

     total cpu time spent up to now is        5.6 secs

     total energy              =     -31.22186522 Ry
     Harris-Foulkes estimate   =     -31.99267706 Ry
     estimated scf accuracy    <       3.33627274 Ry

     iteration # 24     ecut=    30.00 Ry     beta=0.70
     Davidson diagonalization with overlap
     ethr =  8.26E-03,  avg # of iterations =  1.0

     negative rho (up, down):  3.613E-08 0.000E+00

     total cpu time spent up to now is        5.7 secs

     total energy              =     -31.74927381 Ry
     Harris-Foulkes estimate   =     -31.89791225 Ry
     estimated scf accuracy    <       1.54589393 Ry

     iteration # 25     ecut=    30.00 Ry     beta=0.70
     Davidson diagonalization with overlap
     ethr =  8.26E-03,  avg # of iterations =  1.0

     total cpu time spent up to now is        5.8 secs

     total energy              =     -31.66106358 Ry
     Harris-Foulkes estimate   =     -32.01545542 Ry
     estimated scf accuracy    <       4.34932618 Ry

     iteration # 26     ecut=    30.00 Ry     beta=0.70
     Davidson diagonalization with overlap
     ethr =  8.26E-03,  avg # of iterations =  1.0

     total cpu time spent up to now is        5.8 secs

     total energy              =     -31.62051261 Ry
     Harris-Foulkes estimate   =     -31.69724167 Ry
     estimated scf accuracy    <       1.18605968 Ry

     iteration # 27     ecut=    30.00 Ry     beta=0.70
     Davidson diagonalization with overlap
     ethr =  8.26E-03,  avg # of iterations =  1.0

     total cpu time spent up to now is        5.9 secs

     total energy              =     -31.52897882 Ry
     Harris-Foulkes estimate   =     -31.63031147 Ry
     estimated scf accuracy    <       1.74381652 Ry

     iteration # 28     ecut=    30.00 Ry     beta=0.70
     Davidson diagonalization with overlap
     ethr =  8.26E-03,  avg # of iterations =  1.0

     total cpu time spent up to now is        5.9 secs

     total energy              =     -31.45827557 Ry
     Harris-Foulkes estimate   =     -31.56058375 Ry
     estimated scf accuracy    <       1.12545927 Ry

     iteration # 29     ecut=    30.00 Ry     beta=0.70
     Davidson diagonalization with overlap
     ethr =  8.26E-03,  avg # of iterations =  1.0

     total cpu time spent up to now is        5.9 secs

     total energy              =     -31.48644918 Ry
     Harris-Foulkes estimate   =     -31.50788317 Ry
     estimated scf accuracy    <       1.32104500 Ry

     iteration # 30     ecut=    30.00 Ry     beta=0.70
     Davidson diagonalization with overlap
     ethr =  8.26E-03,  avg # of iterations =  1.0

     negative rho (up, down):  3.514E-07 0.000E+00

     total cpu time spent up to now is        6.0 secs

     total energy              =     -31.47376093 Ry
     Harris-Foulkes estimate   =     -31.65969490 Ry
     estimated scf accuracy    <       1.17902025 Ry

     iteration # 31     ecut=    30.00 Ry     beta=0.70
     Davidson diagonalization with overlap
     ethr =  8.26E-03,  avg # of iterations =  1.0

     negative rho (up, down):  2.932E-07 0.000E+00

     total cpu time spent up to now is        6.0 secs

     total energy              =     -31.49041042 Ry
     Harris-Foulkes estimate   =     -31.49286535 Ry
     estimated scf accuracy    <       0.08492387 Ry

     iteration # 32     ecut=    30.00 Ry     beta=0.70
     Davidson diagonalization with overlap
     ethr =  1.06E-03,  avg # of iterations =  1.0

     negative rho (up, down):  2.330E-08 0.000E+00

     total cpu time spent up to now is        6.0 secs

     total energy              =     -31.50192068 Ry
     Harris-Foulkes estimate   =     -31.52140227 Ry
     estimated scf accuracy    <       0.96196362 Ry

     iteration # 33     ecut=    30.00 Ry     beta=0.70
     Davidson diagonalization with overlap
     ethr =  1.06E-03,  avg # of iterations =  1.0

     negative rho (up, down):  1.792E-08 0.000E+00

     total cpu time spent up to now is        6.1 secs

     total energy              =     -31.51496603 Ry
     Harris-Foulkes estimate   =     -31.52017427 Ry
     estimated scf accuracy    <       0.96460169 Ry

     iteration # 34     ecut=    30.00 Ry     beta=0.70
     Davidson diagonalization with overlap
     ethr =  1.06E-03,  avg # of iterations =  1.0

     total cpu time spent up to now is        6.1 secs

     total energy              =     -31.50808156 Ry
     Harris-Foulkes estimate   =     -31.51508680 Ry
     estimated scf accuracy    <       1.00443342 Ry

     iteration # 35     ecut=    30.00 Ry     beta=0.70
     Davidson diagonalization with overlap
     ethr =  1.06E-03,  avg # of iterations =  1.0

     total cpu time spent up to now is        6.1 secs

     total energy              =     -31.46945931 Ry
     Harris-Foulkes estimate   =     -31.50828390 Ry
     estimated scf accuracy    <       0.85695024 Ry

     iteration # 36     ecut=    30.00 Ry     beta=0.70
     Davidson diagonalization with overlap
     ethr =  1.06E-03,  avg # of iterations =  1.0

     total cpu time spent up to now is        6.2 secs

     total energy              =     -31.48281158 Ry
     Harris-Foulkes estimate   =     -31.49946292 Ry
     estimated scf accuracy    <       0.42183644 Ry

     iteration # 37     ecut=    30.00 Ry     beta=0.70
     Davidson diagonalization with overlap
     ethr =  1.06E-03,  avg # of iterations =  1.0

     total cpu time spent up to now is        6.2 secs

     total energy              =     -31.49287823 Ry
     Harris-Foulkes estimate   =     -31.49238741 Ry
     estimated scf accuracy    <       0.01471454 Ry

     iteration # 38     ecut=    30.00 Ry     beta=0.70
     Davidson diagonalization with overlap
     ethr =  1.84E-04,  avg # of iterations =  1.0

     total cpu time spent up to now is        6.2 secs

     total energy              =     -31.49094144 Ry
     Harris-Foulkes estimate   =     -31.49312411 Ry
     estimated scf accuracy    <       0.06074072 Ry

     iteration # 39     ecut=    30.00 Ry     beta=0.70
     Davidson diagonalization with overlap
     ethr =  1.84E-04,  avg # of iterations =  1.0

     total cpu time spent up to now is        6.3 secs

     total energy              =     -31.49189667 Ry
     Harris-Foulkes estimate   =     -31.49220119 Ry
     estimated scf accuracy    <       0.00204317 Ry

     iteration # 40     ecut=    30.00 Ry     beta=0.70
     Davidson diagonalization with overlap
     ethr =  2.55E-05,  avg # of iterations =  1.0

     total cpu time spent up to now is        6.3 secs

     total energy              =     -31.49269810 Ry
     Harris-Foulkes estimate   =     -31.49262896 Ry
     estimated scf accuracy    <       0.03074923 Ry

     iteration # 41     ecut=    30.00 Ry     beta=0.70
     Davidson diagonalization with overlap
     ethr =  2.55E-05,  avg # of iterations =  1.0

     total cpu time spent up to now is        6.3 secs

     total energy              =     -31.49264969 Ry
     Harris-Foulkes estimate   =     -31.49270143 Ry
     estimated scf accuracy    <       0.03611092 Ry

     iteration # 42     ecut=    30.00 Ry     beta=0.70
     Davidson diagonalization with overlap
     ethr =  2.55E-05,  avg # of iterations =  1.0

     total cpu time spent up to now is        6.4 secs

     total energy              =     -31.49218303 Ry
     Harris-Foulkes estimate   =     -31.49265137 Ry
     estimated scf accuracy    <       0.03214837 Ry

     iteration # 43     ecut=    30.00 Ry     beta=0.70
     Davidson diagonalization with overlap
     ethr =  2.55E-05,  avg # of iterations =  1.0

     total cpu time spent up to now is        6.4 secs

     total energy              =     -31.49198552 Ry
     Harris-Foulkes estimate   =     -31.49229281 Ry
     estimated scf accuracy    <       0.00900274 Ry

     iteration # 44     ecut=    30.00 Ry     beta=0.70
     Davidson diagonalization with overlap
     ethr =  2.55E-05,  avg # of iterations =  1.0

     total cpu time spent up to now is        6.4 secs

     total energy              =     -31.49215634 Ry
     Harris-Foulkes estimate   =     -31.49217119 Ry
     estimated scf accuracy    <       0.00044174 Ry

     iteration # 45     ecut=    30.00 Ry     beta=0.70
     Davidson diagonalization with overlap
     ethr =  5.52E-06,  avg # of iterations =  8.0

     total cpu time spent up to now is        6.5 secs

     total energy              =     -31.49216337 Ry
     Harris-Foulkes estimate   =     -31.49216376 Ry
     estimated scf accuracy    <       0.00000605 Ry

     iteration # 46     ecut=    30.00 Ry     beta=0.70
     Davidson diagonalization with overlap
     ethr =  7.57E-08,  avg # of iterations =  1.0

     total cpu time spent up to now is        6.5 secs

     total energy              =     -31.49216337 Ry
     Harris-Foulkes estimate   =     -31.49216346 Ry
     estimated scf accuracy    <       0.00000017 Ry

     iteration # 47     ecut=    30.00 Ry     beta=0.70
     Davidson diagonalization with overlap
     ethr =  2.17E-09,  avg # of iterations =  1.0

     total cpu time spent up to now is        6.5 secs

     total energy              =     -31.49216329 Ry
     Harris-Foulkes estimate   =     -31.49216337 Ry
     estimated scf accuracy    <       0.00000007 Ry

     iteration # 48     ecut=    30.00 Ry     beta=0.70
     Davidson diagonalization with overlap
     ethr =  8.19E-10,  avg # of iterations =  1.0

     total cpu time spent up to now is        6.6 secs

     End of self-consistent calculation

          k = 0.0000 0.0000 0.0000 ( 22119 PWs)   bands (ev):

   -23.6165  -7.0650  -7.0285  -7.0277  -6.9302  -6.8789  -0.2120   0.6250

     the Fermi energy is    -6.8937 ev

!    total energy              =     -31.49216328 Ry
     Harris-Foulkes estimate   =     -31.49216329 Ry
     estimated scf accuracy    <          3.9E-09 Ry

     convergence has been achieved in  48 iterations

     Forces acting on atoms (Ry/au):

     atom    1 type  1   force =     0.00001147    0.00039843   -0.00004176
     atom    2 type  1   force =    -0.00157621   -0.00166643    0.00021292
     atom    3 type  2   force =     0.00156473    0.00126800   -0.00017116

     Total force =     0.003091     Total SCF correction =     0.000012

     Entering Dynamics:    iteration =     5
                           time      =   0.0242 pico-seconds


     Andersen thermostat:    3 collisions

ATOMIC_POSITIONS (bohr)
H       10.364886642   8.874562376  11.314381000
H       12.538660438   2.574781534  18.268332060
O        7.639748481  17.189045012  19.163884327


     kinetic energy (Ekin) =     0.01724428 Ry
     temperature           =   907.55130245 K 
     Ekin + Etot (const)   =   -31.47491899 Ry
     Message from routine dynamics:
     Total linear momentum <> 0

     Linear momentum :   -0.2807563737    0.1128636022   -0.3388111185

     Writing output data file pwscf.save

     second order wave-functions extrapolation
     Check: negative starting charge=   -0.346814
     second order charge density extrapolation
     Check: negative starting charge=   -0.345480

     negative rho (up, down):  5.745E-02 0.000E+00

     total cpu time spent up to now is        6.9 secs

     per-process dynamical memory:    20.4 Mb

     Self-consistent Calculation

     iteration #  1     ecut=    30.00 Ry     beta=0.70
     Davidson diagonalization with overlap
     c_bands:  1 eigenvalues not converged
     ethr =  1.00E-06,  avg # of iterations = 20.0

     negative rho (up, down):  1.310E-02 0.000E+00

     total cpu time spent up to now is        7.0 secs

     total energy              =     -31.42029640 Ry
     Harris-Foulkes estimate   =     -31.44301410 Ry
     estimated scf accuracy    <       0.07821132 Ry

     iteration #  2     ecut=    30.00 Ry     beta=0.70
     Davidson diagonalization with overlap
     ethr =  9.78E-04,  avg # of iterations =  2.0

     negative rho (up, down):  1.180E-02 0.000E+00

     total cpu time spent up to now is        7.0 secs

     total energy              =     -31.47896701 Ry
     Harris-Foulkes estimate   =     -32.06631701 Ry
     estimated scf accuracy    <       4.47470312 Ry

     iteration #  3     ecut=    30.00 Ry     beta=0.70
     Davidson diagonalization with overlap
     ethr =  9.78E-04,  avg # of iterations =  2.0

     negative rho (up, down):  1.106E-02 0.000E+00

     total cpu time spent up to now is        7.1 secs

     total energy              =     -31.48294147 Ry
     Harris-Foulkes estimate   =     -31.58046660 Ry
     estimated scf accuracy    <       1.12896816 Ry

     iteration #  4     ecut=    30.00 Ry     beta=0.70
     Davidson diagonalization with overlap
     ethr =  9.78E-04,  avg # of iterations =  1.0

     negative rho (up, down):  1.068E-02 0.000E+00

     total cpu time spent up to now is        7.1 secs

     total energy              =     -31.45949580 Ry
     Harris-Foulkes estimate   =     -31.50385149 Ry
     estimated scf accuracy    <       1.72989035 Ry

     iteration #  5     ecut=    30.00 Ry     beta=0.70
     Davidson diagonalization with overlap
     ethr =  9.78E-04,  avg # of iterations =  1.0

     negative rho (up, down):  1.734E-03 0.000E+00

     total cpu time spent up to now is        7.1 secs

     total energy              =     -31.49085791 Ry
     Harris-Foulkes estimate   =     -31.48374824 Ry
     estimated scf accuracy    <       0.05291404 Ry

     iteration #  6     ecut=    30.00 Ry     beta=0.70
     Davidson diagonalization with overlap
     ethr =  6.61E-04,  avg # of iterations =  1.0

     negative rho (up, down):  7.286E-04 0.000E+00

     total cpu time spent up to now is        7.2 secs

     total energy              =     -31.49264305 Ry
     Harris-Foulkes estimate   =     -31.49344510 Ry
     estimated scf accuracy    <       0.08062330 Ry

     iteration #  7     ecut=    30.00 Ry     beta=0.70
     Davidson diagonalization with overlap
     ethr =  6.61E-04,  avg # of iterations =  1.0

     negative rho (up, down):  1.068E-05 0.000E+00

     total cpu time spent up to now is        7.2 secs

     total energy              =     -31.49345631 Ry
     Harris-Foulkes estimate   =     -31.49345623 Ry
     estimated scf accuracy    <       0.00207645 Ry

     iteration #  8     ecut=    30.00 Ry     beta=0.70
     Davidson diagonalization with overlap
     ethr =  2.60E-05,  avg # of iterations = 13.0

     negative rho (up, down):  8.374E-08 0.000E+00

     total cpu time spent up to now is        7.2 secs

     total energy              =     -31.49350969 Ry
     Harris-Foulkes estimate   =     -31.49351091 Ry
     estimated scf accuracy    <       0.00159684 Ry

     iteration #  9     ecut=    30.00 Ry     beta=0.70
     Davidson diagonalization with overlap
     ethr =  2.00E-05,  avg # of iterations =  1.0

     total cpu time spent up to now is        7.3 secs

     total energy              =     -31.49348442 Ry
     Harris-Foulkes estimate   =     -31.49352880 Ry
     estimated scf accuracy    <       0.00224206 Ry

     iteration # 10     ecut=    30.00 Ry     beta=0.70
     Davidson diagonalization with overlap
     ethr =  2.00E-05,  avg # of iterations =  1.0

     total cpu time spent up to now is        7.3 secs

     total energy              =     -31.49349744 Ry
     Harris-Foulkes estimate   =     -31.49350345 Ry
     estimated scf accuracy    <       0.00004689 Ry

     iteration # 11     ecut=    30.00 Ry     beta=0.70
     Davidson diagonalization with overlap
     ethr =  5.86E-07,  avg # of iterations =  6.0

     total cpu time spent up to now is        7.3 secs

     total energy              =     -31.49349265 Ry
     Harris-Foulkes estimate   =     -31.49351300 Ry
     estimated scf accuracy    <       0.00105179 Ry

     iteration # 12     ecut=    30.00 Ry     beta=0.70
     Davidson diagonalization with overlap
     ethr =  5.86E-07,  avg # of iterations =  1.0

     total cpu time spent up to now is        7.4 secs

     total energy              =     -31.49350170 Ry
     Harris-Foulkes estimate   =     -31.49350231 Ry
     estimated scf accuracy    <       0.00000941 Ry

     iteration # 13     ecut=    30.00 Ry     beta=0.70
     Davidson diagonalization with overlap
     ethr =  1.18E-07,  avg # of iterations =  1.0

     total cpu time spent up to now is        7.4 secs

     total energy              =     -31.49350170 Ry
     Harris-Foulkes estimate   =     -31.49350192 Ry
     estimated scf accuracy    <       0.00000011 Ry

     iteration # 14     ecut=    30.00 Ry     beta=0.70
     Davidson diagonalization with overlap
     ethr =  1.34E-09,  avg # of iterations =  1.0

     total cpu time spent up to now is        7.4 secs

     End of self-consistent calculation

          k = 0.0000 0.0000 0.0000 ( 22119 PWs)   bands (ev):

   -23.6185  -7.0872  -7.0300  -7.0292  -6.9286  -6.8616  -0.2048   0.6184

     the Fermi energy is    -6.8951 ev

!    total energy              =     -31.49350168 Ry
     Harris-Foulkes estimate   =     -31.49350170 Ry
     estimated scf accuracy    <          6.3E-10 Ry

     convergence has been achieved in  14 iterations

     Forces acting on atoms (Ry/au):

     atom    1 type  1   force =    -0.00003213    0.00029560    0.00007507
     atom    2 type  1   force =    -0.00292592   -0.00248147    0.00046645
     atom    3 type  2   force =     0.00295805    0.00218587   -0.00054152

     Total force =     0.005371     Total SCF correction =     0.000027

     Entering Dynamics:    iteration =     6
                           time      =   0.0290 pico-seconds


     Andersen thermostat:    3 collisions

ATOMIC_POSITIONS (bohr)
H       10.090789530   9.416420662  11.149337610
H       12.515361753   2.542518918  18.344607501
O        7.658521590  17.156876785  19.169487804


     kinetic energy (Ekin) =     0.02121743 Ry
     temperature           =  1116.65454607 K 
     Ekin + Etot (const)   =   -31.47228425 Ry
     Message from routine dynamics:
     Total linear momentum <> 0

     Linear momentum :    0.1094270014   -0.3029516936   -0.2011146650

     Writing output data file pwscf.save

     second order wave-functions extrapolation
     Check: negative starting charge=   -0.345480
     second order charge density extrapolation
     Check: negative starting charge=   -0.345127

     negative rho (up, down):  6.150E-02 0.000E+00

     total cpu time spent up to now is        7.8 secs

     per-process dynamical memory:    20.4 Mb

     Self-consistent Calculation

     iteration #  1     ecut=    30.00 Ry     beta=0.70
     Davidson diagonalization with overlap
     c_bands:  1 eigenvalues not converged
     ethr =  1.00E-06,  avg # of iterations = 20.0

     negative rho (up, down):  1.417E-02 0.000E+00

     total cpu time spent up to now is        7.9 secs

     total energy              =     -31.46695904 Ry
     Harris-Foulkes estimate   =     -31.44310427 Ry
     estimated scf accuracy    <       0.01741988 Ry

     iteration #  2     ecut=    30.00 Ry     beta=0.70
     Davidson diagonalization with overlap
     ethr =  2.18E-04,  avg # of iterations =  2.0

     negative rho (up, down):  1.342E-02 0.000E+00

     total cpu time spent up to now is        8.0 secs

     total energy              =     -31.46136540 Ry
     Harris-Foulkes estimate   =     -31.74693252 Ry
     estimated scf accuracy    <       3.89934420 Ry

     iteration #  3     ecut=    30.00 Ry     beta=0.70
     Davidson diagonalization with overlap
     ethr =  2.18E-04,  avg # of iterations =  2.0

     negative rho (up, down):  1.123E-02 0.000E+00

     total cpu time spent up to now is        8.0 secs

     total energy              =     -31.48123918 Ry
     Harris-Foulkes estimate   =     -31.48177230 Ry
     estimated scf accuracy    <       0.10533590 Ry

     iteration #  4     ecut=    30.00 Ry     beta=0.70
     Davidson diagonalization with overlap
     ethr =  2.18E-04,  avg # of iterations =  1.0

     negative rho (up, down):  2.694E-03 0.000E+00

     total cpu time spent up to now is        8.0 secs

     total energy              =     -31.48887241 Ry
     Harris-Foulkes estimate   =     -31.48606974 Ry
     estimated scf accuracy    <       0.15271318 Ry

     iteration #  5     ecut=    30.00 Ry     beta=0.70
     Davidson diagonalization with overlap
     ethr =  2.18E-04,  avg # of iterations =  3.0

     negative rho (up, down):  1.428E-03 0.000E+00

     total cpu time spent up to now is        8.1 secs

     total energy              =     -31.48043685 Ry
     Harris-Foulkes estimate   =     -31.50028239 Ry
     estimated scf accuracy    <       0.72068252 Ry

     iteration #  6     ecut=    30.00 Ry     beta=0.70
     Davidson diagonalization with overlap
     ethr =  2.18E-04,  avg # of iterations =  1.0

     negative rho (up, down):  3.479E-04 0.000E+00

     total cpu time spent up to now is        8.1 secs

     total energy              =     -31.49117136 Ry
     Harris-Foulkes estimate   =     -31.49427068 Ry
     estimated scf accuracy    <       0.11128213 Ry

     iteration #  7     ecut=    30.00 Ry     beta=0.70
     Davidson diagonalization with overlap
     ethr =  2.18E-04,  avg # of iterations =  3.0

     negative rho (up, down):  1.704E-05 0.000E+00

     total cpu time spent up to now is        8.1 secs

     total energy              =     -31.49340024 Ry
     Harris-Foulkes estimate   =     -31.49424025 Ry
     estimated scf accuracy    <       0.05157704 Ry

     iteration #  8     ecut=    30.00 Ry     beta=0.70
     Davidson diagonalization with overlap
     ethr =  2.18E-04,  avg # of iterations =  1.0

     total cpu time spent up to now is        8.2 secs

     total energy              =     -31.49369499 Ry
     Harris-Foulkes estimate   =     -31.49374811 Ry
     estimated scf accuracy    <       0.00157044 Ry

     iteration #  9     ecut=    30.00 Ry     beta=0.70
     Davidson diagonalization with overlap
     ethr =  1.96E-05,  avg # of iterations = 14.0

     total cpu time spent up to now is        8.2 secs

     total energy              =     -31.49373375 Ry
     Harris-Foulkes estimate   =     -31.49375934 Ry
     estimated scf accuracy    <       0.00176006 Ry

     iteration # 10     ecut=    30.00 Ry     beta=0.70
     Davidson diagonalization with overlap
[...]

     iteration # 53     ecut=    30.00 Ry     beta=0.70
     Davidson diagonalization with overlap
     ethr =  1.25E-04,  avg # of iterations =  1.0

     total cpu time spent up to now is       95.0 secs

     total energy              =     -31.71825982 Ry
     Harris-Foulkes estimate   =     -31.71598014 Ry
     estimated scf accuracy    <       0.01529990 Ry

     iteration # 54     ecut=    30.00 Ry     beta=0.70
     Davidson diagonalization with overlap
     ethr =  1.25E-04,  avg # of iterations =  1.0

     total cpu time spent up to now is       95.0 secs

     total energy              =     -31.71778608 Ry
     Harris-Foulkes estimate   =     -31.71829975 Ry
     estimated scf accuracy    <       0.01911588 Ry

     iteration # 55     ecut=    30.00 Ry     beta=0.70
     Davidson diagonalization with overlap
     ethr =  1.25E-04,  avg # of iterations =  1.0

     total cpu time spent up to now is       95.0 secs

     total energy              =     -31.71848562 Ry
     Harris-Foulkes estimate   =     -31.71778845 Ry
     estimated scf accuracy    <       0.01838555 Ry

     iteration # 56     ecut=    30.00 Ry     beta=0.70
     Davidson diagonalization with overlap
     ethr =  1.25E-04,  avg # of iterations =  1.0

     total cpu time spent up to now is       95.1 secs

     total energy              =     -31.71732440 Ry
     Harris-Foulkes estimate   =     -31.71848794 Ry
     estimated scf accuracy    <       0.01946852 Ry

     iteration # 57     ecut=    30.00 Ry     beta=0.70
     Davidson diagonalization with overlap
     ethr =  1.25E-04,  avg # of iterations =  1.0

     total cpu time spent up to now is       95.1 secs

     total energy              =     -31.72435701 Ry
     Harris-Foulkes estimate   =     -31.71733178 Ry
     estimated scf accuracy    <       0.01763992 Ry

     iteration # 58     ecut=    30.00 Ry     beta=0.70
     Davidson diagonalization with overlap
     ethr =  1.25E-04,  avg # of iterations =  1.0

     total cpu time spent up to now is       95.1 secs

     total energy              =     -31.71626034 Ry
     Harris-Foulkes estimate   =     -31.72459124 Ry
     estimated scf accuracy    <       0.02925783 Ry

     iteration # 59     ecut=    30.00 Ry     beta=0.70
     Davidson diagonalization with overlap
     ethr =  1.25E-04,  avg # of iterations =  1.0

     total cpu time spent up to now is       95.2 secs

     total energy              =     -31.70940079 Ry
     Harris-Foulkes estimate   =     -31.71654513 Ry
     estimated scf accuracy    <       0.01666236 Ry

     iteration # 60     ecut=    30.00 Ry     beta=0.70
     Davidson diagonalization with overlap
     ethr =  1.25E-04,  avg # of iterations =  1.0

     negative rho (up, down):  1.653E-06 0.000E+00

     total cpu time spent up to now is       95.2 secs

     total energy              =     -31.69073464 Ry
     Harris-Foulkes estimate   =     -31.70901990 Ry
     estimated scf accuracy    <       0.02734910 Ry

     iteration # 61     ecut=    30.00 Ry     beta=0.70
     Davidson diagonalization with overlap
     ethr =  1.25E-04,  avg # of iterations =  4.0

     total cpu time spent up to now is       95.3 secs

     total energy              =     -31.57089673 Ry
     Harris-Foulkes estimate   =     -31.88096520 Ry
     estimated scf accuracy    <       3.55285937 Ry

     iteration # 62     ecut=    30.00 Ry     beta=0.70
     Davidson diagonalization with overlap
     ethr =  1.25E-04,  avg # of iterations =  3.0

     total cpu time spent up to now is       95.3 secs

     total energy              =     -31.71111369 Ry
     Harris-Foulkes estimate   =     -31.71121342 Ry
     estimated scf accuracy    <       0.01090692 Ry

     iteration # 63     ecut=    30.00 Ry     beta=0.70
     Davidson diagonalization with overlap
     ethr =  1.25E-04,  avg # of iterations =  1.0

     total cpu time spent up to now is       95.3 secs

     total energy              =     -31.70937459 Ry
     Harris-Foulkes estimate   =     -31.71112907 Ry
     estimated scf accuracy    <       0.01121249 Ry

     iteration # 64     ecut=    30.00 Ry     beta=0.70
     Davidson diagonalization with overlap
     ethr =  1.25E-04,  avg # of iterations =  1.0

     total cpu time spent up to now is       95.4 secs

     total energy              =     -31.70785942 Ry
     Harris-Foulkes estimate   =     -31.70881690 Ry
     estimated scf accuracy    <       0.02962384 Ry

     iteration # 65     ecut=    30.00 Ry     beta=0.70
     Davidson diagonalization with overlap
     ethr =  1.25E-04,  avg # of iterations =  1.0

     total cpu time spent up to now is       95.4 secs

     total energy              =     -31.70725970 Ry
     Harris-Foulkes estimate   =     -31.70777283 Ry
     estimated scf accuracy    <       0.03930473 Ry

     iteration # 66     ecut=    30.00 Ry     beta=0.70
     Davidson diagonalization with overlap
     ethr =  1.25E-04,  avg # of iterations =  1.0

     total cpu time spent up to now is       95.4 secs

     total energy              =     -31.70482472 Ry
     Harris-Foulkes estimate   =     -31.70724823 Ry
     estimated scf accuracy    <       0.04198986 Ry

     iteration # 67     ecut=    30.00 Ry     beta=0.70
     Davidson diagonalization with overlap
     ethr =  1.25E-04,  avg # of iterations =  1.0

     total cpu time spent up to now is       95.5 secs

     total energy              =     -31.70800276 Ry
     Harris-Foulkes estimate   =     -31.70502127 Ry
     estimated scf accuracy    <       0.01727539 Ry

     iteration # 68     ecut=    30.00 Ry     beta=0.70
     Davidson diagonalization with overlap
     ethr =  1.25E-04,  avg # of iterations =  1.0

     total cpu time spent up to now is       95.5 secs

     total energy              =     -31.71084425 Ry
     Harris-Foulkes estimate   =     -31.70905150 Ry
     estimated scf accuracy    <       0.02694630 Ry

     iteration # 69     ecut=    30.00 Ry     beta=0.70
     Davidson diagonalization with overlap
     ethr =  1.25E-04,  avg # of iterations =  1.0

     total cpu time spent up to now is       95.5 secs

     total energy              =     -31.71131577 Ry
     Harris-Foulkes estimate   =     -31.71053953 Ry
     estimated scf accuracy    <       0.01386552 Ry

     iteration # 70     ecut=    30.00 Ry     beta=0.70
     Davidson diagonalization with overlap
     ethr =  1.25E-04,  avg # of iterations =  1.0

     total cpu time spent up to now is       95.6 secs

     total energy              =     -31.71465543 Ry
     Harris-Foulkes estimate   =     -31.71125439 Ry
     estimated scf accuracy    <       0.01090071 Ry

     iteration # 71     ecut=    30.00 Ry     beta=0.70
     Davidson diagonalization with overlap
     ethr =  1.25E-04,  avg # of iterations =  1.0

     total cpu time spent up to now is       95.6 secs

     total energy              =     -31.71467021 Ry
     Harris-Foulkes estimate   =     -31.71438696 Ry
     estimated scf accuracy    <       0.01280945 Ry

     iteration # 72     ecut=    30.00 Ry     beta=0.70
     Davidson diagonalization with overlap
     ethr =  1.25E-04,  avg # of iterations =  1.0

     total cpu time spent up to now is       95.6 secs

     total energy              =     -31.71488893 Ry
     Harris-Foulkes estimate   =     -31.71467303 Ry
     estimated scf accuracy    <       0.01325132 Ry

     iteration # 73     ecut=    30.00 Ry     beta=0.70
     Davidson diagonalization with overlap
     ethr =  1.25E-04,  avg # of iterations =  1.0

     total cpu time spent up to now is       95.7 secs

     total energy              =     -31.71542564 Ry
     Harris-Foulkes estimate   =     -31.71488988 Ry
     estimated scf accuracy    <       0.01364348 Ry

     iteration # 74     ecut=    30.00 Ry     beta=0.70
     Davidson diagonalization with overlap
     ethr =  1.25E-04,  avg # of iterations =  1.0

     total cpu time spent up to now is       95.7 secs

     total energy              =     -31.71282322 Ry
     Harris-Foulkes estimate   =     -31.71542823 Ry
     estimated scf accuracy    <       0.01453387 Ry

     iteration # 75     ecut=    30.00 Ry     beta=0.70
     Davidson diagonalization with overlap
     ethr =  1.25E-04,  avg # of iterations =  1.0

     total cpu time spent up to now is       95.7 secs

     total energy              =     -31.71248603 Ry
     Harris-Foulkes estimate   =     -31.71287434 Ry
     estimated scf accuracy    <       0.01067273 Ry

     iteration # 76     ecut=    30.00 Ry     beta=0.70
     Davidson diagonalization with overlap
     ethr =  1.25E-04,  avg # of iterations =  1.0

     total cpu time spent up to now is       95.8 secs

     total energy              =     -31.70963013 Ry
     Harris-Foulkes estimate   =     -31.71248756 Ry
     estimated scf accuracy    <       0.01028325 Ry

     iteration # 77     ecut=    30.00 Ry     beta=0.70
     Davidson diagonalization with overlap
     ethr =  1.25E-04,  avg # of iterations =  1.0

     total cpu time spent up to now is       95.8 secs

     total energy              =     -31.70850597 Ry
     Harris-Foulkes estimate   =     -31.70877806 Ry
     estimated scf accuracy    <       0.03001801 Ry

     iteration # 78     ecut=    30.00 Ry     beta=0.70
     Davidson diagonalization with overlap
     ethr =  1.25E-04,  avg # of iterations =  1.0

     total cpu time spent up to now is       95.8 secs

     total energy              =     -31.71076144 Ry
     Harris-Foulkes estimate   =     -31.70850175 Ry
     estimated scf accuracy    <       0.03297159 Ry

     iteration # 79     ecut=    30.00 Ry     beta=0.70
     Davidson diagonalization with overlap
     ethr =  1.25E-04,  avg # of iterations =  1.0

     total cpu time spent up to now is       95.9 secs

     total energy              =     -31.70961387 Ry
     Harris-Foulkes estimate   =     -31.71033581 Ry
     estimated scf accuracy    <       0.01511954 Ry

     iteration # 80     ecut=    30.00 Ry     beta=0.70
     Davidson diagonalization with overlap
     ethr =  1.25E-04,  avg # of iterations =  1.0

     total cpu time spent up to now is       95.9 secs

     total energy              =     -31.70776050 Ry
     Harris-Foulkes estimate   =     -31.70953237 Ry
     estimated scf accuracy    <       0.02207484 Ry

     iteration # 81     ecut=    30.00 Ry     beta=0.70
     Davidson diagonalization with overlap
     ethr =  1.25E-04,  avg # of iterations =  1.0

     total cpu time spent up to now is       95.9 secs

     total energy              =     -31.71318341 Ry
     Harris-Foulkes estimate   =     -31.70734117 Ry
     estimated scf accuracy    <       0.04163649 Ry

     iteration # 82     ecut=    30.00 Ry     beta=0.70
     Davidson diagonalization with overlap
     ethr =  1.25E-04,  avg # of iterations =  1.0

     total cpu time spent up to now is       96.0 secs

     total energy              =     -31.71679261 Ry
     Harris-Foulkes estimate   =     -31.71137294 Ry
     estimated scf accuracy    <       0.01056907 Ry

     iteration # 83     ecut=    30.00 Ry     beta=0.70
     Davidson diagonalization with overlap
     ethr =  1.25E-04,  avg # of iterations =  1.0

     total cpu time spent up to now is       96.0 secs

     total energy              =     -31.71817863 Ry
     Harris-Foulkes estimate   =     -31.71650414 Ry
     estimated scf accuracy    <       0.01628552 Ry

     iteration # 84     ecut=    30.00 Ry     beta=0.70
     Davidson diagonalization with overlap
     ethr =  1.25E-04,  avg # of iterations =  1.0

     total cpu time spent up to now is       96.0 secs

     total energy              =     -31.71873577 Ry
     Harris-Foulkes estimate   =     -31.71820070 Ry
     estimated scf accuracy    <       0.01905838 Ry

     iteration # 85     ecut=    30.00 Ry     beta=0.70
     Davidson diagonalization with overlap
     ethr =  1.25E-04,  avg # of iterations =  1.0

     total cpu time spent up to now is       96.1 secs

     total energy              =     -31.71761337 Ry
     Harris-Foulkes estimate   =     -31.71873794 Ry
     estimated scf accuracy    <       0.01992004 Ry

     iteration # 86     ecut=    30.00 Ry     beta=0.70
     Davidson diagonalization with overlap
     ethr =  1.25E-04,  avg # of iterations =  1.0

     total cpu time spent up to now is       96.1 secs

     total energy              =     -31.71816411 Ry
     Harris-Foulkes estimate   =     -31.71761949 Ry
     estimated scf accuracy    <       0.01817752 Ry

     iteration # 87     ecut=    30.00 Ry     beta=0.70
     Davidson diagonalization with overlap
     ethr =  1.25E-04,  avg # of iterations =  1.0

     total cpu time spent up to now is       96.1 secs

     total energy              =     -31.71741657 Ry
     Harris-Foulkes estimate   =     -31.71816563 Ry
     estimated scf accuracy    <       0.01899324 Ry

     iteration # 88     ecut=    30.00 Ry     beta=0.70
     Davidson diagonalization with overlap
     ethr =  1.25E-04,  avg # of iterations =  1.0

     total cpu time spent up to now is       96.2 secs

     total energy              =     -31.71860813 Ry
     Harris-Foulkes estimate   =     -31.71741928 Ry
     estimated scf accuracy    <       0.01783839 Ry

     iteration # 89     ecut=    30.00 Ry     beta=0.70
     Davidson diagonalization with overlap
     ethr =  1.25E-04,  avg # of iterations =  1.0

     total cpu time spent up to now is       96.2 secs

     total energy              =     -31.71936804 Ry
     Harris-Foulkes estimate   =     -31.71861582 Ry
     estimated scf accuracy    <       0.01972994 Ry

     iteration # 90     ecut=    30.00 Ry     beta=0.70
     Davidson diagonalization with overlap
     ethr =  1.25E-04,  avg # of iterations =  1.0

     negative rho (up, down):  3.171E-07 0.000E+00

     total cpu time spent up to now is       96.2 secs

     total energy              =     -31.70208986 Ry
     Harris-Foulkes estimate   =     -31.71937211 Ry
     estimated scf accuracy    <       0.02100340 Ry

     iteration # 91     ecut=    30.00 Ry     beta=0.70
     Davidson diagonalization with overlap
     ethr =  1.25E-04,  avg # of iterations =  3.0

     total cpu time spent up to now is       96.3 secs

     total energy              =     -31.56800462 Ry
     Harris-Foulkes estimate   =     -31.82461913 Ry
     estimated scf accuracy    <       3.45458281 Ry

     iteration # 92     ecut=    30.00 Ry     beta=0.70
     Davidson diagonalization with overlap
     ethr =  1.25E-04,  avg # of iterations =  3.0

     total cpu time spent up to now is       96.3 secs

     total energy              =     -31.70957201 Ry
     Harris-Foulkes estimate   =     -31.71145274 Ry
     estimated scf accuracy    <       0.01040983 Ry

     iteration # 93     ecut=    30.00 Ry     beta=0.70
     Davidson diagonalization with overlap
     ethr =  1.25E-04,  avg # of iterations =  1.0

     total cpu time spent up to now is       96.3 secs

     total energy              =     -31.70948888 Ry
     Harris-Foulkes estimate   =     -31.70900692 Ry
     estimated scf accuracy    <       0.02758977 Ry

     iteration # 94     ecut=    30.00 Ry     beta=0.70
     Davidson diagonalization with overlap
     ethr =  1.25E-04,  avg # of iterations =  1.0

     total cpu time spent up to now is       96.4 secs

     total energy              =     -31.70187327 Ry
     Harris-Foulkes estimate   =     -31.70946481 Ry
     estimated scf accuracy    <       0.02269190 Ry

     iteration # 95     ecut=    30.00 Ry     beta=0.70
     Davidson diagonalization with overlap
     ethr =  1.25E-04,  avg # of iterations =  1.0

     total cpu time spent up to now is       96.4 secs

     total energy              =     -31.71158193 Ry
     Harris-Foulkes estimate   =     -31.71545917 Ry
     estimated scf accuracy    <       0.79458142 Ry

     iteration # 96     ecut=    30.00 Ry     beta=0.70
     Davidson diagonalization with overlap
     ethr =  1.25E-04,  avg # of iterations =  1.0

     total cpu time spent up to now is       96.4 secs

     total energy              =     -31.71298402 Ry
     Harris-Foulkes estimate   =     -31.71193422 Ry
     estimated scf accuracy    <       0.53270872 Ry

     iteration # 97     ecut=    30.00 Ry     beta=0.70
     Davidson diagonalization with overlap
     ethr =  1.25E-04,  avg # of iterations =  1.0

     total cpu time spent up to now is       96.5 secs

     total energy              =     -31.70191311 Ry
     Harris-Foulkes estimate   =     -31.71302235 Ry
     estimated scf accuracy    <       0.61428694 Ry

     iteration # 98     ecut=    30.00 Ry     beta=0.70
     Davidson diagonalization with overlap
     ethr =  1.25E-04,  avg # of iterations =  1.0

     total cpu time spent up to now is       96.5 secs

     total energy              =     -31.70296227 Ry
     Harris-Foulkes estimate   =     -31.70563900 Ry
     estimated scf accuracy    <       0.06783680 Ry

     iteration # 99     ecut=    30.00 Ry     beta=0.70
     Davidson diagonalization with overlap
     ethr =  1.25E-04,  avg # of iterations =  1.0

     total cpu time spent up to now is       96.5 secs

     total energy              =     -31.70567173 Ry
     Harris-Foulkes estimate   =     -31.70458974 Ry
     estimated scf accuracy    <       0.00152273 Ry

     iteration #100     ecut=    30.00 Ry     beta=0.70
     Davidson diagonalization with overlap
     ethr =  1.90E-05,  avg # of iterations =  1.0

     total cpu time spent up to now is       96.6 secs

     total energy              =     -31.70985115 Ry
     Harris-Foulkes estimate   =     -31.70854164 Ry
     estimated scf accuracy    <       0.03235547 Ry

     End of self-consistent calculation

     convergence NOT achieved after 100 iterations: stopping

     Writing output data file pwscf.save
 
     init_run     :      0.09s CPU      0.12s WALL (       1 calls)
     electrons    :     57.81s CPU     76.56s WALL (      72 calls)
     update_pot   :      9.45s CPU     13.36s WALL (      71 calls)
     forces       :      1.89s CPU      1.95s WALL (      71 calls)

     Called by init_run:
     wfcinit      :      0.01s CPU      0.03s WALL (       1 calls)
     potinit      :      0.02s CPU      0.03s WALL (       1 calls)

     Called by electrons:
     c_bands      :     23.87s CPU     25.81s WALL (    1845 calls)
     sum_band     :      5.42s CPU      5.95s WALL (    1845 calls)
     v_of_rho     :     13.57s CPU     14.82s WALL (    1917 calls)
     mix_rho      :     12.59s CPU     22.02s WALL (    1845 calls)

     Called by c_bands:
     init_us_2    :      0.17s CPU      0.22s WALL (    3691 calls)
     cegterg      :     23.42s CPU     24.75s WALL (    1845 calls)

     Called by sum_band:

     Called by *egterg:
     h_psi        :     19.80s CPU     20.90s WALL (    7161 calls)
     g_psi        :      0.17s CPU      0.17s WALL (    5315 calls)
     cdiaghg      :      1.31s CPU      1.37s WALL (    7089 calls)

     Called by h_psi:
     h_psi:pot    :     19.69s CPU     20.78s WALL (    7161 calls)
     h_psi:calbec :      0.65s CPU      0.86s WALL (    7161 calls)
     vloc_psi     :     18.95s CPU     19.83s WALL (    7161 calls)
     add_vuspsi   :      0.06s CPU      0.06s WALL (    7161 calls)

     General routines
     calbec       :      1.27s CPU      1.73s WALL (    7515 calls)
     fft          :      9.66s CPU     10.52s WALL (   21229 calls)
     fftw         :     20.42s CPU     21.67s WALL (   90750 calls)
     davcio       :      1.90s CPU      7.73s WALL (   30505 calls)
 
     Parallel routines
     fft_scatter  :     12.88s CPU     14.47s WALL (  111979 calls)
 
     PWSCF        :  1m11.07s CPU     1m36.65s WALL

 
   This run was terminated on:   2:44:26  11Feb2018            

=------------------------------------------------------------------------------=
   JOB DONE.
=------------------------------------------------------------------------------=
