
     Program PWSCF v.6.2 (svn rev. 14038) starts on 12May2018 at  1:21:47 

     This program is part of the open-source Quantum ESPRESSO suite
     for quantum simulation of materials; please cite
         "P. Giannozzi et al., J. Phys.:Condens. Matter 21 395502 (2009);
         "P. Giannozzi et al., J. Phys.:Condens. Matter 29 465901 (2017);
          URL http://www.quantum-espresso.org", 
     in publications or presentations arising from this work. More details at
     http://www.quantum-espresso.org/quote

     Parallel version (MPI), running on    28 processors

     MPI processes distributed on     1 nodes
     R & G space division:  proc/nbgrp/npool/nimage =      28
     Reading input from ../ecut30/0.in
Warning: card &IONS ignored
Warning: card     POT_EXTRAPOLATION='SECOND-ORDER' ignored
Warning: card     WFC_EXTRAPOLATION='SECOND-ORDER' ignored
Warning: card     ION_TEMPERATURE = 'ANDERSEN' ignored
Warning: card / ignored

     Current dimensions of program PWSCF are:
     Max number of different atomic species (ntypx) = 10
     Max number of k-points (npk) =  40000
     Max angular momentum in pseudopotentials (lmaxx) =  3

     Subspace diagonalization in iterative solution of the eigenvalue problem:
     a serial algorithm will be used

 
     Parallelization info
     --------------------
     sticks:   dense  smooth     PW     G-vecs:    dense   smooth      PW
     Min         136     136     33                 6338     6338     787
     Max         137     137     34                 6341     6341     792
     Sum        3809    3809    949               177509   177509   22119
 


     bravais-lattice index     =            1
     lattice parameter (alat)  =      20.0000  a.u.
     unit-cell volume          =    8000.0000 (a.u.)^3
     number of atoms/cell      =            3
     number of atomic types    =            2
     number of electrons       =         8.00
     number of Kohn-Sham states=            8
     kinetic-energy cutoff     =      30.0000  Ry
     charge density cutoff     =     120.0000  Ry
     convergence threshold     =      1.0E-08
     mixing beta               =       0.7000
     number of iterations used =            8  plain     mixing
     Exchange-correlation      = PBE ( 1  4  3  4 0 0)

     celldm(1)=  20.000000  celldm(2)=   0.000000  celldm(3)=   0.000000
     celldm(4)=   0.000000  celldm(5)=   0.000000  celldm(6)=   0.000000

     crystal axes: (cart. coord. in units of alat)
               a(1) = (   1.000000   0.000000   0.000000 )  
               a(2) = (   0.000000   1.000000   0.000000 )  
               a(3) = (   0.000000   0.000000   1.000000 )  

     reciprocal axes: (cart. coord. in units 2 pi/alat)
               b(1) = (  1.000000  0.000000  0.000000 )  
               b(2) = (  0.000000  1.000000  0.000000 )  
               b(3) = (  0.000000  0.000000  1.000000 )  


     PseudoPot. # 1 for H  read from file:
     ../pslibrary/pbe/PSEUDOPOTENTIALS/H.pbe-rrkjus_psl.1.0.0.UPF
     MD5 check sum: b2b1ff84b4ceabe23335d1bf25025923
     Pseudo is Ultrasoft, Zval =  1.0
     Generated using "atomic" code by A. Dal Corso v.6.2 svn rev. 14038
     Using radial grid of  929 points,  2 beta functions with: 
                l(1) =   0
                l(2) =   0
     Q(r) pseudized with 0 coefficients 


     PseudoPot. # 2 for O  read from file:
     ../pslibrary/pbe/PSEUDOPOTENTIALS/O.pbe-n-rrkjus_psl.1.0.0.UPF
     MD5 check sum: 61455b21a47f6823f888c3bfb9bd1235
     Pseudo is Ultrasoft + core correction, Zval =  6.0
     Generated using "atomic" code by A. Dal Corso v.6.2 svn rev. 14038
     Using radial grid of 1095 points,  4 beta functions with: 
                l(1) =   0
                l(2) =   0
                l(3) =   1
                l(4) =   1
     Q(r) pseudized with 0 coefficients 


     atomic species   valence    mass     pseudopotential
        H              1.00     1.01000     H ( 1.00)
        O              6.00    16.00000     O ( 1.00)

     No symmetry found



   Cartesian axes

     site n.     atom                  positions (alat units)
         1           O   tau(   1) = (   0.0000000   0.0000000   0.0112686  )
         2           H   tau(   2) = (   0.0000000   0.0721156  -0.0450744  )
         3           H   tau(   3) = (   0.0000000  -0.0721156  -0.0450744  )

     number of k points=     1  Marzari-Vanderbilt smearing, width (Ry)=  0.0250
                       cart. coord. in units 2pi/alat
        k(    1) = (   0.0000000   0.0000000   0.0000000), wk =   2.0000000

     Dense  grid:   177509 G-vectors     FFT dimensions: (  72,  72,  72)

     Estimated max dynamical RAM per process >       8.54 MB

     Estimated total dynamical RAM >     239.18 MB

     Check: negative/imaginary core charge=   -0.000016    0.000000

     Initial potential from superposition of free atoms
     Check: negative starting charge=   -0.092519

     starting charge    7.99998, renormalised to    8.00000

     negative rho (up, down):  9.252E-02 0.000E+00
     Starting wfc are    6 randomized atomic wfcs +    2 random wfc

     total cpu time spent up to now is        1.9 secs

     Self-consistent Calculation

     iteration #  1     ecut=    30.00 Ry     beta= 0.70
     Davidson diagonalization with overlap
     ethr =  1.00E-02,  avg # of iterations =  5.0

     negative rho (up, down):  1.252E-01 0.000E+00

     total cpu time spent up to now is        2.1 secs

     total energy              =     -34.49563490 Ry
     Harris-Foulkes estimate   =     -34.77180350 Ry
     estimated scf accuracy    <       0.38484124 Ry

     iteration #  2     ecut=    30.00 Ry     beta= 0.70
     Davidson diagonalization with overlap
     ethr =  4.81E-03,  avg # of iterations =  3.0

     negative rho (up, down):  1.131E-01 0.000E+00

     total cpu time spent up to now is        2.2 secs

     total energy              =     -34.55754792 Ry
     Harris-Foulkes estimate   =     -34.75468172 Ry
     estimated scf accuracy    <       0.41304693 Ry

     iteration #  3     ecut=    30.00 Ry     beta= 0.70
     Davidson diagonalization with overlap
     ethr =  4.81E-03,  avg # of iterations =  3.0

     negative rho (up, down):  1.218E-01 0.000E+00

     total cpu time spent up to now is        2.2 secs

     total energy              =     -34.64817445 Ry
     Harris-Foulkes estimate   =     -34.65112437 Ry
     estimated scf accuracy    <       0.00638647 Ry

     iteration #  4     ecut=    30.00 Ry     beta= 0.70
     Davidson diagonalization with overlap
     ethr =  7.98E-05,  avg # of iterations =  5.0

     negative rho (up, down):  1.206E-01 0.000E+00

     total cpu time spent up to now is        2.3 secs

     total energy              =     -34.64649572 Ry
     Harris-Foulkes estimate   =     -34.64690101 Ry
     estimated scf accuracy    <       0.00109308 Ry

     iteration #  5     ecut=    30.00 Ry     beta= 0.70
     Davidson diagonalization with overlap
     ethr =  1.37E-05,  avg # of iterations =  3.0

     negative rho (up, down):  1.201E-01 0.000E+00

     total cpu time spent up to now is        2.4 secs

     total energy              =     -34.64646562 Ry
     Harris-Foulkes estimate   =     -34.64655949 Ry
     estimated scf accuracy    <       0.00022266 Ry

     iteration #  6     ecut=    30.00 Ry     beta= 0.70
     Davidson diagonalization with overlap
     ethr =  2.78E-06,  avg # of iterations = 11.0

     negative rho (up, down):  1.203E-01 0.000E+00

     total cpu time spent up to now is        2.5 secs

     total energy              =     -34.64647864 Ry
     Harris-Foulkes estimate   =     -34.64648243 Ry
     estimated scf accuracy    <       0.00001327 Ry

     iteration #  7     ecut=    30.00 Ry     beta= 0.70
     Davidson diagonalization with overlap
     ethr =  1.66E-07,  avg # of iterations =  2.0

     negative rho (up, down):  1.202E-01 0.000E+00

     total cpu time spent up to now is        2.6 secs

     total energy              =     -34.64647897 Ry
     Harris-Foulkes estimate   =     -34.64647957 Ry
     estimated scf accuracy    <       0.00000133 Ry

     iteration #  8     ecut=    30.00 Ry     beta= 0.70
     Davidson diagonalization with overlap
     ethr =  1.66E-08,  avg # of iterations =  3.0

     negative rho (up, down):  1.202E-01 0.000E+00

     total cpu time spent up to now is        2.6 secs

     total energy              =     -34.64647930 Ry
     Harris-Foulkes estimate   =     -34.64647934 Ry
     estimated scf accuracy    <       0.00000012 Ry

     iteration #  9     ecut=    30.00 Ry     beta= 0.70
     Davidson diagonalization with overlap
     ethr =  1.54E-09,  avg # of iterations =  1.0

     negative rho (up, down):  1.203E-01 0.000E+00

     total cpu time spent up to now is        2.7 secs

     total energy              =     -34.64647924 Ry
     Harris-Foulkes estimate   =     -34.64647931 Ry
     estimated scf accuracy    <       0.00000006 Ry

     iteration # 10     ecut=    30.00 Ry     beta= 0.70
     Davidson diagonalization with overlap
     ethr =  7.60E-10,  avg # of iterations =  2.0

     negative rho (up, down):  1.203E-01 0.000E+00

     total cpu time spent up to now is        2.8 secs

     End of self-consistent calculation

          k = 0.0000 0.0000 0.0000 ( 22119 PWs)   bands (ev):

   -25.5667 -13.0318  -9.2943  -7.1606  -1.3116  -0.2573   0.1852   0.3202

     the Fermi energy is    -6.8473 ev

!    total energy              =     -34.64647925 Ry
     Harris-Foulkes estimate   =     -34.64647925 Ry
     estimated scf accuracy    <          8.7E-09 Ry

     The total energy is the sum of the following terms:

     one-electron contribution =     -64.07635736 Ry
     hartree contribution      =      33.49439216 Ry
     xc contribution           =      -8.82050717 Ry
     ewald contribution        =       4.75191565 Ry
     smearing contrib. (-TS)   =       0.00407747 Ry

     convergence has been achieved in  10 iterations

     Writing output data file pwscf.save
 
     init_run     :      0.19s CPU      0.40s WALL (       1 calls)
     electrons    :      0.72s CPU      0.86s WALL (       1 calls)

     Called by init_run:
     wfcinit      :      0.02s CPU      0.07s WALL (       1 calls)
     potinit      :      0.04s CPU      0.06s WALL (       1 calls)

     Called by electrons:
     c_bands      :      0.27s CPU      0.29s WALL (      10 calls)
     sum_band     :      0.14s CPU      0.15s WALL (      10 calls)
     v_of_rho     :      0.18s CPU      0.19s WALL (      11 calls)
     newd         :      0.08s CPU      0.09s WALL (      11 calls)
     mix_rho      :      0.04s CPU      0.09s WALL (      10 calls)

     Called by c_bands:
     init_us_2    :      0.01s CPU      0.01s WALL (      21 calls)
     cegterg      :      0.26s CPU      0.28s WALL (      10 calls)

     Called by sum_band:
     sum_band:bec :      0.00s CPU      0.00s WALL (      10 calls)
     addusdens    :      0.09s CPU      0.09s WALL (      10 calls)

     Called by *egterg:
     h_psi        :      0.23s CPU      0.27s WALL (      49 calls)
     s_psi        :      0.00s CPU      0.00s WALL (      49 calls)
     g_psi        :      0.00s CPU      0.00s WALL (      38 calls)
     cdiaghg      :      0.02s CPU      0.02s WALL (      48 calls)

     Called by h_psi:
     h_psi:pot    :      0.23s CPU      0.27s WALL (      49 calls)
     h_psi:calbec :      0.00s CPU      0.03s WALL (      49 calls)
     vloc_psi     :      0.22s CPU      0.23s WALL (      49 calls)
     add_vuspsi   :      0.00s CPU      0.00s WALL (      49 calls)

     General routines
     calbec       :      0.01s CPU      0.03s WALL (      59 calls)
     fft          :      0.10s CPU      0.21s WALL (     142 calls)
     fftw         :      0.24s CPU      0.25s WALL (     570 calls)
     davcio       :      0.01s CPU      0.04s WALL (     107 calls)
 
     Parallel routines
     fft_scatt_xy :      0.03s CPU      0.03s WALL (     712 calls)
     fft_scatt_yz :      0.11s CPU      0.12s WALL (     712 calls)
 
     PWSCF        :     1.97s CPU         2.98s WALL

 
   This run was terminated on:   1:21:50  12May2018            

=------------------------------------------------------------------------------=
   JOB DONE.
=------------------------------------------------------------------------------=
