
     Program PWSCF v.6.2 (svn rev. 14038) starts on 12May2018 at  1:22:57 

     This program is part of the open-source Quantum ESPRESSO suite
     for quantum simulation of materials; please cite
         "P. Giannozzi et al., J. Phys.:Condens. Matter 21 395502 (2009);
         "P. Giannozzi et al., J. Phys.:Condens. Matter 29 465901 (2017);
          URL http://www.quantum-espresso.org", 
     in publications or presentations arising from this work. More details at
     http://www.quantum-espresso.org/quote

     Parallel version (MPI), running on    28 processors

     MPI processes distributed on     1 nodes
     R & G space division:  proc/nbgrp/npool/nimage =      28
     Reading input from ../ecut30/11000.in
Warning: card &IONS ignored
Warning: card     POT_EXTRAPOLATION='SECOND-ORDER' ignored
Warning: card     WFC_EXTRAPOLATION='SECOND-ORDER' ignored
Warning: card     ION_TEMPERATURE = 'ANDERSEN' ignored
Warning: card / ignored

     Current dimensions of program PWSCF are:
     Max number of different atomic species (ntypx) = 10
     Max number of k-points (npk) =  40000
     Max angular momentum in pseudopotentials (lmaxx) =  3

     Subspace diagonalization in iterative solution of the eigenvalue problem:
     a serial algorithm will be used

 
     Parallelization info
     --------------------
     sticks:   dense  smooth     PW     G-vecs:    dense   smooth      PW
     Min         136     136     33                 6338     6338     787
     Max         137     137     34                 6341     6341     792
     Sum        3809    3809    949               177509   177509   22119
 


     bravais-lattice index     =            1
     lattice parameter (alat)  =      20.0000  a.u.
     unit-cell volume          =    8000.0000 (a.u.)^3
     number of atoms/cell      =            3
     number of atomic types    =            2
     number of electrons       =         8.00
     number of Kohn-Sham states=            8
     kinetic-energy cutoff     =      30.0000  Ry
     charge density cutoff     =     120.0000  Ry
     convergence threshold     =      1.0E-08
     mixing beta               =       0.7000
     number of iterations used =            8  plain     mixing
     Exchange-correlation      = PBE ( 1  4  3  4 0 0)

     celldm(1)=  20.000000  celldm(2)=   0.000000  celldm(3)=   0.000000
     celldm(4)=   0.000000  celldm(5)=   0.000000  celldm(6)=   0.000000

     crystal axes: (cart. coord. in units of alat)
               a(1) = (   1.000000   0.000000   0.000000 )  
               a(2) = (   0.000000   1.000000   0.000000 )  
               a(3) = (   0.000000   0.000000   1.000000 )  

     reciprocal axes: (cart. coord. in units 2 pi/alat)
               b(1) = (  1.000000  0.000000  0.000000 )  
               b(2) = (  0.000000  1.000000  0.000000 )  
               b(3) = (  0.000000  0.000000  1.000000 )  


     PseudoPot. # 1 for H  read from file:
     ../pslibrary/pbe/PSEUDOPOTENTIALS/H.pbe-rrkjus_psl.1.0.0.UPF
     MD5 check sum: b2b1ff84b4ceabe23335d1bf25025923
     Pseudo is Ultrasoft, Zval =  1.0
     Generated using "atomic" code by A. Dal Corso v.6.2 svn rev. 14038
     Using radial grid of  929 points,  2 beta functions with: 
                l(1) =   0
                l(2) =   0
     Q(r) pseudized with 0 coefficients 


     PseudoPot. # 2 for O  read from file:
     ../pslibrary/pbe/PSEUDOPOTENTIALS/O.pbe-n-rrkjus_psl.1.0.0.UPF
     MD5 check sum: 61455b21a47f6823f888c3bfb9bd1235
     Pseudo is Ultrasoft + core correction, Zval =  6.0
     Generated using "atomic" code by A. Dal Corso v.6.2 svn rev. 14038
     Using radial grid of 1095 points,  4 beta functions with: 
                l(1) =   0
                l(2) =   0
                l(3) =   1
                l(4) =   1
     Q(r) pseudized with 0 coefficients 


     atomic species   valence    mass     pseudopotential
        H              1.00     1.01000     H ( 1.00)
        O              6.00    16.00000     O ( 1.00)

     No symmetry found



   Cartesian axes

     site n.     atom                  positions (alat units)
         1           O   tau(   1) = (   0.0228472   0.0002980  -0.0075854  )
         2           H   tau(   2) = (  -0.3063573  -0.0684336   0.1864692  )
         3           H   tau(   3) = (  -0.0555780   0.0637126   0.0220582  )

     number of k points=     1  Marzari-Vanderbilt smearing, width (Ry)=  0.0250
                       cart. coord. in units 2pi/alat
        k(    1) = (   0.0000000   0.0000000   0.0000000), wk =   2.0000000

     Dense  grid:   177509 G-vectors     FFT dimensions: (  72,  72,  72)

     Estimated max dynamical RAM per process >       8.54 MB

     Estimated total dynamical RAM >     239.18 MB

     Check: negative/imaginary core charge=   -0.000016    0.000000

     Initial potential from superposition of free atoms
     Check: negative starting charge=   -0.090818

     starting charge    7.99998, renormalised to    8.00000

     negative rho (up, down):  9.082E-02 0.000E+00
     Starting wfc are    6 randomized atomic wfcs +    2 random wfc

     total cpu time spent up to now is        1.6 secs

     Self-consistent Calculation

     iteration #  1     ecut=    30.00 Ry     beta= 0.70
     Davidson diagonalization with overlap
     ethr =  1.00E-02,  avg # of iterations =  7.0

     negative rho (up, down):  1.240E-01 0.000E+00

     total cpu time spent up to now is        1.8 secs

     total energy              =     -33.26558504 Ry
     Harris-Foulkes estimate   =     -34.35753836 Ry
     estimated scf accuracy    <       1.39822946 Ry

     iteration #  2     ecut=    30.00 Ry     beta= 0.70
     Davidson diagonalization with overlap
     ethr =  1.00E-02,  avg # of iterations =  3.0

     negative rho (up, down):  4.042E-02 0.000E+00

     total cpu time spent up to now is        1.9 secs

     total energy              =     -32.97588838 Ry
     Harris-Foulkes estimate   =     -36.76108452 Ry
     estimated scf accuracy    <      14.11596851 Ry

     iteration #  3     ecut=    30.00 Ry     beta= 0.70
     Davidson diagonalization with overlap
     ethr =  1.00E-02,  avg # of iterations =  4.0

     negative rho (up, down):  5.372E-02 0.000E+00

     total cpu time spent up to now is        1.9 secs

     total energy              =     -34.16061528 Ry
     Harris-Foulkes estimate   =     -34.30422260 Ry
     estimated scf accuracy    <       1.74155305 Ry

     iteration #  4     ecut=    30.00 Ry     beta= 0.70
     Davidson diagonalization with overlap
     ethr =  1.00E-02,  avg # of iterations =  4.0

     negative rho (up, down):  6.028E-02 0.000E+00

     total cpu time spent up to now is        2.0 secs

     total energy              =     -34.12218823 Ry
     Harris-Foulkes estimate   =     -34.19149423 Ry
     estimated scf accuracy    <       1.52654806 Ry

     iteration #  5     ecut=    30.00 Ry     beta= 0.70
     Davidson diagonalization with overlap
     ethr =  1.00E-02,  avg # of iterations =  1.0

     negative rho (up, down):  7.436E-02 0.000E+00

     total cpu time spent up to now is        2.1 secs

     total energy              =     -34.13663799 Ry
     Harris-Foulkes estimate   =     -34.13811729 Ry
     estimated scf accuracy    <       0.09510021 Ry

     iteration #  6     ecut=    30.00 Ry     beta= 0.70
     Davidson diagonalization with overlap
     ethr =  1.19E-03,  avg # of iterations =  1.0

     negative rho (up, down):  9.433E-02 0.000E+00

     total cpu time spent up to now is        2.2 secs

     total energy              =     -34.13350427 Ry
     Harris-Foulkes estimate   =     -34.13846218 Ry
     estimated scf accuracy    <       0.07311828 Ry

     iteration #  7     ecut=    30.00 Ry     beta= 0.70
     Davidson diagonalization with overlap
     ethr =  9.14E-04,  avg # of iterations =  1.0

     negative rho (up, down):  9.302E-02 0.000E+00

     total cpu time spent up to now is        2.2 secs

     total energy              =     -34.13508504 Ry
     Harris-Foulkes estimate   =     -34.14057891 Ry
     estimated scf accuracy    <       0.16061017 Ry

     iteration #  8     ecut=    30.00 Ry     beta= 0.70
     Davidson diagonalization with overlap
     ethr =  9.14E-04,  avg # of iterations =  1.0

     negative rho (up, down):  9.586E-02 0.000E+00

     total cpu time spent up to now is        2.3 secs

     total energy              =     -34.13776217 Ry
     Harris-Foulkes estimate   =     -34.13842250 Ry
     estimated scf accuracy    <       0.00801695 Ry

     iteration #  9     ecut=    30.00 Ry     beta= 0.70
     Davidson diagonalization with overlap
     ethr =  1.00E-04,  avg # of iterations =  8.0

     negative rho (up, down):  9.626E-02 0.000E+00

     total cpu time spent up to now is        2.4 secs

     total energy              =     -34.13783825 Ry
     Harris-Foulkes estimate   =     -34.13865013 Ry
     estimated scf accuracy    <       0.02644074 Ry

     iteration # 10     ecut=    30.00 Ry     beta= 0.70
     Davidson diagonalization with overlap
     ethr =  1.00E-04,  avg # of iterations =  1.0

     negative rho (up, down):  9.794E-02 0.000E+00

     total cpu time spent up to now is        2.5 secs

     total energy              =     -34.13825641 Ry
     Harris-Foulkes estimate   =     -34.13827267 Ry
     estimated scf accuracy    <       0.00034741 Ry

     iteration # 11     ecut=    30.00 Ry     beta= 0.70
     Davidson diagonalization with overlap
     ethr =  4.34E-06,  avg # of iterations =  5.0

     negative rho (up, down):  1.004E-01 0.000E+00

     total cpu time spent up to now is        2.5 secs

     total energy              =     -34.13813359 Ry
     Harris-Foulkes estimate   =     -34.13829155 Ry
     estimated scf accuracy    <       0.00169040 Ry

     iteration # 12     ecut=    30.00 Ry     beta= 0.70
     Davidson diagonalization with overlap
     ethr =  4.34E-06,  avg # of iterations =  1.0

     negative rho (up, down):  1.007E-01 0.000E+00

     total cpu time spent up to now is        2.6 secs

     total energy              =     -34.13806194 Ry
     Harris-Foulkes estimate   =     -34.13842863 Ry
     estimated scf accuracy    <       0.01218606 Ry

     iteration # 13     ecut=    30.00 Ry     beta= 0.70
     Davidson diagonalization with overlap
     ethr =  4.34E-06,  avg # of iterations =  1.0

     negative rho (up, down):  1.007E-01 0.000E+00

     total cpu time spent up to now is        2.7 secs

     total energy              =     -34.13825988 Ry
     Harris-Foulkes estimate   =     -34.13826408 Ry
     estimated scf accuracy    <       0.00018071 Ry

     iteration # 14     ecut=    30.00 Ry     beta= 0.70
     Davidson diagonalization with overlap
     ethr =  2.26E-06,  avg # of iterations =  1.0

     negative rho (up, down):  1.007E-01 0.000E+00

     total cpu time spent up to now is        2.8 secs

     total energy              =     -34.13826202 Ry
     Harris-Foulkes estimate   =     -34.13826202 Ry
     estimated scf accuracy    <       0.00000242 Ry

     iteration # 15     ecut=    30.00 Ry     beta= 0.70
     Davidson diagonalization with overlap
     ethr =  3.03E-08,  avg # of iterations =  1.0

     negative rho (up, down):  1.007E-01 0.000E+00

     total cpu time spent up to now is        2.8 secs

     total energy              =     -34.13826209 Ry
     Harris-Foulkes estimate   =     -34.13826213 Ry
     estimated scf accuracy    <       0.00000191 Ry

     iteration # 16     ecut=    30.00 Ry     beta= 0.70
     Davidson diagonalization with overlap
     ethr =  2.39E-08,  avg # of iterations =  1.0

     negative rho (up, down):  1.007E-01 0.000E+00

     total cpu time spent up to now is        2.9 secs

     total energy              =     -34.13826210 Ry
     Harris-Foulkes estimate   =     -34.13826213 Ry
     estimated scf accuracy    <       0.00000064 Ry

     iteration # 17     ecut=    30.00 Ry     beta= 0.70
     Davidson diagonalization with overlap
     ethr =  7.98E-09,  avg # of iterations =  1.0

     negative rho (up, down):  1.007E-01 0.000E+00

     total cpu time spent up to now is        3.0 secs

     End of self-consistent calculation

          k = 0.0000 0.0000 0.0000 ( 22119 PWs)   bands (ev):

   -23.5970 -10.4164  -7.2988  -7.2747  -7.1116  -1.1664  -0.4079   0.2942

     the Fermi energy is    -7.1041 ev

!    total energy              =     -34.13826211 Ry
     Harris-Foulkes estimate   =     -34.13826213 Ry
     estimated scf accuracy    <          1.0E-08 Ry

     The total energy is the sum of the following terms:

     one-electron contribution =     -52.26747081 Ry
     hartree contribution      =      27.69046338 Ry
     xc contribution           =      -8.24622857 Ry
     ewald contribution        =      -1.29990845 Ry
     smearing contrib. (-TS)   =      -0.01511766 Ry

     convergence has been achieved in  17 iterations

     Writing output data file pwscf.save
 
     init_run     :      0.26s CPU      0.34s WALL (       1 calls)
     electrons    :      1.16s CPU      1.42s WALL (       1 calls)

     Called by init_run:
     wfcinit      :      0.05s CPU      0.11s WALL (       1 calls)
     potinit      :      0.05s CPU      0.05s WALL (       1 calls)

     Called by electrons:
     c_bands      :      0.37s CPU      0.39s WALL (      17 calls)
     sum_band     :      0.24s CPU      0.25s WALL (      17 calls)
     v_of_rho     :      0.31s CPU      0.32s WALL (      18 calls)
     newd         :      0.14s CPU      0.14s WALL (      18 calls)
     mix_rho      :      0.10s CPU      0.19s WALL (      17 calls)

     Called by c_bands:
     init_us_2    :      0.01s CPU      0.02s WALL (      35 calls)
     cegterg      :      0.35s CPU      0.36s WALL (      17 calls)

     Called by sum_band:
     sum_band:bec :      0.00s CPU      0.00s WALL (      17 calls)
     addusdens    :      0.15s CPU      0.15s WALL (      17 calls)

     Called by *egterg:
     h_psi        :      0.34s CPU      0.35s WALL (      60 calls)
     s_psi        :      0.00s CPU      0.00s WALL (      60 calls)
     g_psi        :      0.00s CPU      0.00s WALL (      42 calls)
     cdiaghg      :      0.02s CPU      0.02s WALL (      59 calls)

     Called by h_psi:
     h_psi:pot    :      0.34s CPU      0.35s WALL (      60 calls)
     h_psi:calbec :      0.01s CPU      0.01s WALL (      60 calls)
     vloc_psi     :      0.33s CPU      0.34s WALL (      60 calls)
     add_vuspsi   :      0.00s CPU      0.01s WALL (      60 calls)

     General routines
     calbec       :      0.01s CPU      0.01s WALL (      77 calls)
     fft          :      0.17s CPU      0.18s WALL (     233 calls)
     fftw         :      0.36s CPU      0.37s WALL (     802 calls)
     davcio       :      0.02s CPU      0.08s WALL (     247 calls)
 
     Parallel routines
     fft_scatt_xy :      0.04s CPU      0.04s WALL (    1035 calls)
     fft_scatt_yz :      0.18s CPU      0.19s WALL (    1035 calls)
 
     PWSCF        :     2.60s CPU         3.22s WALL

 
   This run was terminated on:   1:23: 0  12May2018            

=------------------------------------------------------------------------------=
   JOB DONE.
=------------------------------------------------------------------------------=
