
     Program PWSCF v.6.2 (svn rev. 14038) starts on 12May2018 at  1:22: 0 

     This program is part of the open-source Quantum ESPRESSO suite
     for quantum simulation of materials; please cite
         "P. Giannozzi et al., J. Phys.:Condens. Matter 21 395502 (2009);
         "P. Giannozzi et al., J. Phys.:Condens. Matter 29 465901 (2017);
          URL http://www.quantum-espresso.org", 
     in publications or presentations arising from this work. More details at
     http://www.quantum-espresso.org/quote

     Parallel version (MPI), running on    28 processors

     MPI processes distributed on     1 nodes
     R & G space division:  proc/nbgrp/npool/nimage =      28
     Reading input from ../ecut30/2000.in
Warning: card &IONS ignored
Warning: card     POT_EXTRAPOLATION='SECOND-ORDER' ignored
Warning: card     WFC_EXTRAPOLATION='SECOND-ORDER' ignored
Warning: card     ION_TEMPERATURE = 'ANDERSEN' ignored
Warning: card / ignored

     Current dimensions of program PWSCF are:
     Max number of different atomic species (ntypx) = 10
     Max number of k-points (npk) =  40000
     Max angular momentum in pseudopotentials (lmaxx) =  3

     Subspace diagonalization in iterative solution of the eigenvalue problem:
     a serial algorithm will be used

 
     Parallelization info
     --------------------
     sticks:   dense  smooth     PW     G-vecs:    dense   smooth      PW
     Min         136     136     33                 6338     6338     787
     Max         137     137     34                 6341     6341     792
     Sum        3809    3809    949               177509   177509   22119
 


     bravais-lattice index     =            1
     lattice parameter (alat)  =      20.0000  a.u.
     unit-cell volume          =    8000.0000 (a.u.)^3
     number of atoms/cell      =            3
     number of atomic types    =            2
     number of electrons       =         8.00
     number of Kohn-Sham states=            8
     kinetic-energy cutoff     =      30.0000  Ry
     charge density cutoff     =     120.0000  Ry
     convergence threshold     =      1.0E-08
     mixing beta               =       0.7000
     number of iterations used =            8  plain     mixing
     Exchange-correlation      = PBE ( 1  4  3  4 0 0)

     celldm(1)=  20.000000  celldm(2)=   0.000000  celldm(3)=   0.000000
     celldm(4)=   0.000000  celldm(5)=   0.000000  celldm(6)=   0.000000

     crystal axes: (cart. coord. in units of alat)
               a(1) = (   1.000000   0.000000   0.000000 )  
               a(2) = (   0.000000   1.000000   0.000000 )  
               a(3) = (   0.000000   0.000000   1.000000 )  

     reciprocal axes: (cart. coord. in units 2 pi/alat)
               b(1) = (  1.000000  0.000000  0.000000 )  
               b(2) = (  0.000000  1.000000  0.000000 )  
               b(3) = (  0.000000  0.000000  1.000000 )  


     PseudoPot. # 1 for H  read from file:
     ../pslibrary/pbe/PSEUDOPOTENTIALS/H.pbe-rrkjus_psl.1.0.0.UPF
     MD5 check sum: b2b1ff84b4ceabe23335d1bf25025923
     Pseudo is Ultrasoft, Zval =  1.0
     Generated using "atomic" code by A. Dal Corso v.6.2 svn rev. 14038
     Using radial grid of  929 points,  2 beta functions with: 
                l(1) =   0
                l(2) =   0
     Q(r) pseudized with 0 coefficients 


     PseudoPot. # 2 for O  read from file:
     ../pslibrary/pbe/PSEUDOPOTENTIALS/O.pbe-n-rrkjus_psl.1.0.0.UPF
     MD5 check sum: 61455b21a47f6823f888c3bfb9bd1235
     Pseudo is Ultrasoft + core correction, Zval =  6.0
     Generated using "atomic" code by A. Dal Corso v.6.2 svn rev. 14038
     Using radial grid of 1095 points,  4 beta functions with: 
                l(1) =   0
                l(2) =   0
                l(3) =   1
                l(4) =   1
     Q(r) pseudized with 0 coefficients 


     atomic species   valence    mass     pseudopotential
        H              1.00     1.01000     H ( 1.00)
        O              6.00    16.00000     O ( 1.00)

     No symmetry found



   Cartesian axes

     site n.     atom                  positions (alat units)
         1           O   tau(   1) = (   0.0013709   0.0021736   0.0015099  )
         2           H   tau(   2) = (   0.0542936  -0.0166063   0.1119304  )
         3           H   tau(   3) = (  -0.0760110  -0.0178265  -0.0474847  )

     number of k points=     1  Marzari-Vanderbilt smearing, width (Ry)=  0.0250
                       cart. coord. in units 2pi/alat
        k(    1) = (   0.0000000   0.0000000   0.0000000), wk =   2.0000000

     Dense  grid:   177509 G-vectors     FFT dimensions: (  72,  72,  72)

     Estimated max dynamical RAM per process >       8.54 MB

     Estimated total dynamical RAM >     239.18 MB

     Check: negative/imaginary core charge=   -0.000016    0.000000

     Initial potential from superposition of free atoms
     Check: negative starting charge=   -0.091033

     starting charge    7.99998, renormalised to    8.00000

     negative rho (up, down):  9.103E-02 0.000E+00
     Starting wfc are    6 randomized atomic wfcs +    2 random wfc

     total cpu time spent up to now is        1.7 secs

     Self-consistent Calculation

     iteration #  1     ecut=    30.00 Ry     beta= 0.70
     Davidson diagonalization with overlap
     ethr =  1.00E-02,  avg # of iterations =  7.0

     negative rho (up, down):  1.242E-01 0.000E+00

     total cpu time spent up to now is        1.9 secs

     total energy              =     -34.28223891 Ry
     Harris-Foulkes estimate   =     -34.61545922 Ry
     estimated scf accuracy    <       0.45754666 Ry

     iteration #  2     ecut=    30.00 Ry     beta= 0.70
     Davidson diagonalization with overlap
     ethr =  5.72E-03,  avg # of iterations =  3.0

     negative rho (up, down):  1.079E-01 0.000E+00

     total cpu time spent up to now is        2.0 secs

     total energy              =     -34.26086798 Ry
     Harris-Foulkes estimate   =     -34.69728542 Ry
     estimated scf accuracy    <       1.11007351 Ry

     iteration #  3     ecut=    30.00 Ry     beta= 0.70
     Davidson diagonalization with overlap
     ethr =  5.72E-03,  avg # of iterations =  3.0

     negative rho (up, down):  1.167E-01 0.000E+00

     total cpu time spent up to now is        2.0 secs

     total energy              =     -34.47722736 Ry
     Harris-Foulkes estimate   =     -34.48439951 Ry
     estimated scf accuracy    <       0.01887875 Ry

     iteration #  4     ecut=    30.00 Ry     beta= 0.70
     Davidson diagonalization with overlap
     ethr =  2.36E-04,  avg # of iterations =  3.0

     negative rho (up, down):  1.191E-01 0.000E+00

     total cpu time spent up to now is        2.1 secs

     total energy              =     -34.48094182 Ry
     Harris-Foulkes estimate   =     -34.48154972 Ry
     estimated scf accuracy    <       0.00124689 Ry

     iteration #  5     ecut=    30.00 Ry     beta= 0.70
     Davidson diagonalization with overlap
     ethr =  1.56E-05,  avg # of iterations =  8.0

     negative rho (up, down):  1.184E-01 0.000E+00

     total cpu time spent up to now is        2.2 secs

     total energy              =     -34.48120223 Ry
     Harris-Foulkes estimate   =     -34.48124690 Ry
     estimated scf accuracy    <       0.00011796 Ry

     iteration #  6     ecut=    30.00 Ry     beta= 0.70
     Davidson diagonalization with overlap
     c_bands:  1 eigenvalues not converged
     ethr =  1.47E-06,  avg # of iterations = 20.0

     negative rho (up, down):  1.185E-01 0.000E+00

     total cpu time spent up to now is        2.3 secs

     total energy              =     -34.48121885 Ry
     Harris-Foulkes estimate   =     -34.48121917 Ry
     estimated scf accuracy    <       0.00000304 Ry

     iteration #  7     ecut=    30.00 Ry     beta= 0.70
     Davidson diagonalization with overlap
     ethr =  3.80E-08,  avg # of iterations = 13.0

     negative rho (up, down):  1.185E-01 0.000E+00

     total cpu time spent up to now is        2.4 secs

     total energy              =     -34.48121931 Ry
     Harris-Foulkes estimate   =     -34.48121934 Ry
     estimated scf accuracy    <       0.00000012 Ry

     iteration #  8     ecut=    30.00 Ry     beta= 0.70
     Davidson diagonalization with overlap
     ethr =  1.52E-09,  avg # of iterations =  3.0

     negative rho (up, down):  1.186E-01 0.000E+00

     total cpu time spent up to now is        2.5 secs

     total energy              =     -34.48121932 Ry
     Harris-Foulkes estimate   =     -34.48121934 Ry
     estimated scf accuracy    <       0.00000001 Ry

     iteration #  9     ecut=    30.00 Ry     beta= 0.70
     Davidson diagonalization with overlap
     ethr =  1.50E-10,  avg # of iterations =  1.0

     negative rho (up, down):  1.186E-01 0.000E+00

     total cpu time spent up to now is        2.6 secs

     End of self-consistent calculation

          k = 0.0000 0.0000 0.0000 ( 22119 PWs)   bands (ev):

   -23.8033 -12.5459  -7.3180  -6.5754  -2.8664  -0.8721  -0.0363   0.2599

     the Fermi energy is    -6.2630 ev

!    total energy              =     -34.48121932 Ry
     Harris-Foulkes estimate   =     -34.48121932 Ry
     estimated scf accuracy    <          1.3E-09 Ry

     The total energy is the sum of the following terms:

     one-electron contribution =     -60.51076660 Ry
     hartree contribution      =      31.89270460 Ry
     xc contribution           =      -8.55644893 Ry
     ewald contribution        =       2.68910270 Ry
     smearing contrib. (-TS)   =       0.00418891 Ry

     convergence has been achieved in   9 iterations

     Writing output data file pwscf.save
 
     init_run     :      0.26s CPU      0.30s WALL (       1 calls)
     electrons    :      0.77s CPU      0.98s WALL (       1 calls)

     Called by init_run:
     wfcinit      :      0.04s CPU      0.06s WALL (       1 calls)
     potinit      :      0.05s CPU      0.05s WALL (       1 calls)

     Called by electrons:
     c_bands      :      0.29s CPU      0.31s WALL (       9 calls)
     sum_band     :      0.13s CPU      0.14s WALL (       9 calls)
     v_of_rho     :      0.17s CPU      0.18s WALL (      10 calls)
     newd         :      0.07s CPU      0.08s WALL (      10 calls)
     mix_rho      :      0.04s CPU      0.08s WALL (       9 calls)

     Called by c_bands:
     init_us_2    :      0.01s CPU      0.01s WALL (      19 calls)
     cegterg      :      0.28s CPU      0.29s WALL (       9 calls)

     Called by sum_band:
     sum_band:bec :      0.00s CPU      0.00s WALL (       9 calls)
     addusdens    :      0.08s CPU      0.08s WALL (       9 calls)

     Called by *egterg:
     h_psi        :      0.25s CPU      0.27s WALL (      71 calls)
     s_psi        :      0.00s CPU      0.00s WALL (      71 calls)
     g_psi        :      0.00s CPU      0.00s WALL (      61 calls)
     cdiaghg      :      0.03s CPU      0.03s WALL (      70 calls)

     Called by h_psi:
     h_psi:pot    :      0.25s CPU      0.26s WALL (      71 calls)
     h_psi:calbec :      0.01s CPU      0.01s WALL (      71 calls)
     vloc_psi     :      0.24s CPU      0.25s WALL (      71 calls)
     add_vuspsi   :      0.00s CPU      0.00s WALL (      71 calls)

     General routines
     calbec       :      0.01s CPU      0.01s WALL (      80 calls)
     fft          :      0.10s CPU      0.10s WALL (     129 calls)
     fftw         :      0.25s CPU      0.26s WALL (     562 calls)
     davcio       :      0.01s CPU      0.03s WALL (      87 calls)
 
     Parallel routines
     fft_scatt_xy :      0.03s CPU      0.03s WALL (     691 calls)
     fft_scatt_yz :      0.12s CPU      0.13s WALL (     691 calls)
 
     PWSCF        :     2.37s CPU         2.91s WALL

 
   This run was terminated on:   1:22: 2  12May2018            

=------------------------------------------------------------------------------=
   JOB DONE.
=------------------------------------------------------------------------------=
