
     Program PWSCF v.6.2 (svn rev. 14038) starts on 18May2018 at 14:25:45 

     This program is part of the open-source Quantum ESPRESSO suite
     for quantum simulation of materials; please cite
         "P. Giannozzi et al., J. Phys.:Condens. Matter 21 395502 (2009);
         "P. Giannozzi et al., J. Phys.:Condens. Matter 29 465901 (2017);
          URL http://www.quantum-espresso.org", 
     in publications or presentations arising from this work. More details at
     http://www.quantum-espresso.org/quote

     Parallel version (MPI), running on    28 processors

     MPI processes distributed on     1 nodes
     R & G space division:  proc/nbgrp/npool/nimage =      28
     Reading input from ../ecut2-150/12000.in
Warning: card &IONS ignored
Warning: card     POT_EXTRAPOLATION='SECOND-ORDER' ignored
Warning: card     WFC_EXTRAPOLATION='SECOND-ORDER' ignored
Warning: card     ION_TEMPERATURE = 'ANDERSEN' ignored
Warning: card / ignored

     Current dimensions of program PWSCF are:
     Max number of different atomic species (ntypx) = 10
     Max number of k-points (npk) =  40000
     Max angular momentum in pseudopotentials (lmaxx) =  3
               file H.pbe-kjpaw_psl.1.0.0.UPF: wavefunction(s)  1S renormalized
               file O.pbe-n-kjpaw_psl.1.0.0.UPF: wavefunction(s)  2S 2P renormalized

     Subspace diagonalization in iterative solution of the eigenvalue problem:
     a serial algorithm will be used

 
     Parallelization info
     --------------------
     sticks:   dense  smooth     PW     G-vecs:    dense   smooth      PW
     Min         681     681    170                70897    70897    8858
     Max         682     682    171                70904    70904    8861
     Sum       19089   19089   4765              1985227  1985227  248049
 


     bravais-lattice index     =            1
     lattice parameter (alat)  =      20.0000  a.u.
     unit-cell volume          =    8000.0000 (a.u.)^3
     number of atoms/cell      =            3
     number of atomic types    =            2
     number of electrons       =         8.00
     number of Kohn-Sham states=            8
     kinetic-energy cutoff     =     150.0000  Ry
     charge density cutoff     =     600.0000  Ry
     convergence threshold     =      1.0E-08
     mixing beta               =       0.7000
     number of iterations used =            8  plain     mixing
     Exchange-correlation      = SLA PW PBX PBC ( 1  4  3  4 0 0)

     celldm(1)=  20.000000  celldm(2)=   0.000000  celldm(3)=   0.000000
     celldm(4)=   0.000000  celldm(5)=   0.000000  celldm(6)=   0.000000

     crystal axes: (cart. coord. in units of alat)
               a(1) = (   1.000000   0.000000   0.000000 )  
               a(2) = (   0.000000   1.000000   0.000000 )  
               a(3) = (   0.000000   0.000000   1.000000 )  

     reciprocal axes: (cart. coord. in units 2 pi/alat)
               b(1) = (  1.000000  0.000000  0.000000 )  
               b(2) = (  0.000000  1.000000  0.000000 )  
               b(3) = (  0.000000  0.000000  1.000000 )  


     PseudoPot. # 1 for H  read from file:
     ../pslibrary/pbe/PSEUDOPOTENTIALS/H.pbe-kjpaw_psl.1.0.0.UPF
     MD5 check sum: e77ef4e89cfa2d6a63e4c80bb1a147aa
     Pseudo is Projector augmented-wave, Zval =  1.0
     Generated using "atomic" code by A. Dal Corso v.6.2 svn rev. 14038
     Shape of augmentation charge: PSQ
     Using radial grid of  929 points,  2 beta functions with: 
                l(1) =   0
                l(2) =   0
     Q(r) pseudized with 0 coefficients 


     PseudoPot. # 2 for O  read from file:
     ../pslibrary/pbe/PSEUDOPOTENTIALS/O.pbe-n-kjpaw_psl.1.0.0.UPF
     MD5 check sum: bb09017f9a02654af35f7312a94eda3e
     Pseudo is Projector augmented-wave + core cor, Zval =  6.0
     Generated using "atomic" code by A. Dal Corso v.6.2 svn rev. 14038
     Shape of augmentation charge: PSQ
     Using radial grid of 1095 points,  4 beta functions with: 
                l(1) =   0
                l(2) =   0
                l(3) =   1
                l(4) =   1
     Q(r) pseudized with 0 coefficients 


     atomic species   valence    mass     pseudopotential
        H              1.00     1.01000     H ( 1.00)
        O              6.00    16.00000     O ( 1.00)

     No symmetry found



   Cartesian axes

     site n.     atom                  positions (alat units)
         1           O   tau(   1) = (   0.0022314   0.0037535   0.0050608  )
         2           H   tau(   2) = (   0.0633683  -0.0608876  -0.0452820  )
         3           H   tau(   3) = (  -0.0987177   0.0014261   0.0534756  )

     number of k points=     1  Marzari-Vanderbilt smearing, width (Ry)=  0.0250
                       cart. coord. in units 2pi/alat
        k(    1) = (   0.0000000   0.0000000   0.0000000), wk =   2.0000000

     Dense  grid:  1985227 G-vectors     FFT dimensions: ( 160, 160, 160)

     Estimated max dynamical RAM per process >      79.84 MB

     Estimated total dynamical RAM >       2.18 GB

     Initial potential from superposition of free atoms
     Check: negative starting charge=   -0.000137

     starting charge    7.99998, renormalised to    8.00000

     negative rho (up, down):  1.372E-04 0.000E+00
     Starting wfc are    6 randomized atomic wfcs +    2 random wfc
     Checking if some PAW data can be deallocated... 

     total cpu time spent up to now is        2.5 secs

     Self-consistent Calculation

     iteration #  1     ecut=   150.00 Ry     beta= 0.70
     Davidson diagonalization with overlap
     ethr =  1.00E-02,  avg # of iterations =  7.0

     negative rho (up, down):  2.540E-04 0.000E+00

     total cpu time spent up to now is        3.8 secs

     total energy              =     -43.69831729 Ry
     Harris-Foulkes estimate   =     -44.05538098 Ry
     estimated scf accuracy    <       0.48058619 Ry

     iteration #  2     ecut=   150.00 Ry     beta= 0.70
     Davidson diagonalization with overlap
     ethr =  6.01E-03,  avg # of iterations =  3.0

     negative rho (up, down):  7.220E-05 0.000E+00

     total cpu time spent up to now is        4.8 secs

     total energy              =     -43.71253465 Ry
     Harris-Foulkes estimate   =     -44.09762264 Ry
     estimated scf accuracy    <       0.89787985 Ry

     iteration #  3     ecut=   150.00 Ry     beta= 0.70
     Davidson diagonalization with overlap
     ethr =  6.01E-03,  avg # of iterations =  1.0

     negative rho (up, down):  6.331E-06 0.000E+00

     total cpu time spent up to now is        5.7 secs

     total energy              =     -43.80242725 Ry
     Harris-Foulkes estimate   =     -43.82845111 Ry
     estimated scf accuracy    <       0.07631247 Ry

     iteration #  4     ecut=   150.00 Ry     beta= 0.70
     Davidson diagonalization with overlap
     ethr =  9.54E-04,  avg # of iterations =  3.0

     negative rho (up, down):  1.208E-05 0.000E+00

     total cpu time spent up to now is        6.8 secs

     total energy              =     -43.91932132 Ry
     Harris-Foulkes estimate   =     -43.94016594 Ry
     estimated scf accuracy    <       0.08461673 Ry

     iteration #  5     ecut=   150.00 Ry     beta= 0.70
     Davidson diagonalization with overlap
     ethr =  9.54E-04,  avg # of iterations =  1.0

     negative rho (up, down):  2.583E-05 0.000E+00

     total cpu time spent up to now is        7.7 secs

     total energy              =     -43.91060191 Ry
     Harris-Foulkes estimate   =     -43.92121664 Ry
     estimated scf accuracy    <       0.03766062 Ry

     iteration #  6     ecut=   150.00 Ry     beta= 0.70
     Davidson diagonalization with overlap
     ethr =  4.71E-04,  avg # of iterations =  2.0

     negative rho (up, down):  7.941E-05 0.000E+00

     total cpu time spent up to now is        8.7 secs

     total energy              =     -43.91584783 Ry
     Harris-Foulkes estimate   =     -43.91655243 Ry
     estimated scf accuracy    <       0.00205004 Ry

     iteration #  7     ecut=   150.00 Ry     beta= 0.70
     Davidson diagonalization with overlap
     ethr =  2.56E-05,  avg # of iterations =  8.0

     negative rho (up, down):  1.838E-04 0.000E+00

     total cpu time spent up to now is       10.1 secs

     total energy              =     -43.91276384 Ry
     Harris-Foulkes estimate   =     -43.91276681 Ry
     estimated scf accuracy    <       0.00013276 Ry

     iteration #  8     ecut=   150.00 Ry     beta= 0.70
     Davidson diagonalization with overlap
     ethr =  1.66E-06,  avg # of iterations = 14.0

     negative rho (up, down):  2.531E-04 0.000E+00

     total cpu time spent up to now is       11.4 secs

     total energy              =     -43.91278363 Ry
     Harris-Foulkes estimate   =     -43.91282642 Ry
     estimated scf accuracy    <       0.00026903 Ry

     iteration #  9     ecut=   150.00 Ry     beta= 0.70
     Davidson diagonalization with overlap
     ethr =  1.66E-06,  avg # of iterations =  1.0

     negative rho (up, down):  2.428E-04 0.000E+00

     total cpu time spent up to now is       12.4 secs

     total energy              =     -43.91274424 Ry
     Harris-Foulkes estimate   =     -43.91278817 Ry
     estimated scf accuracy    <       0.00016038 Ry

     iteration # 10     ecut=   150.00 Ry     beta= 0.70
     Davidson diagonalization with overlap
     ethr =  1.66E-06,  avg # of iterations =  1.0

     negative rho (up, down):  2.368E-04 0.000E+00

     total cpu time spent up to now is       13.4 secs

     total energy              =     -43.91274931 Ry
     Harris-Foulkes estimate   =     -43.91275345 Ry
     estimated scf accuracy    <       0.00005333 Ry

     iteration # 11     ecut=   150.00 Ry     beta= 0.70
     Davidson diagonalization with overlap
     ethr =  6.67E-07,  avg # of iterations =  1.0

     negative rho (up, down):  2.429E-04 0.000E+00

     total cpu time spent up to now is       14.5 secs

     total energy              =     -43.91275161 Ry
     Harris-Foulkes estimate   =     -43.91275061 Ry
     estimated scf accuracy    <       0.00004024 Ry

     iteration # 12     ecut=   150.00 Ry     beta= 0.70
     Davidson diagonalization with overlap
     ethr =  5.03E-07,  avg # of iterations =  1.0

     negative rho (up, down):  2.542E-04 0.000E+00

     total cpu time spent up to now is       15.5 secs

     total energy              =     -43.91275288 Ry
     Harris-Foulkes estimate   =     -43.91275243 Ry
     estimated scf accuracy    <       0.00003823 Ry

     iteration # 13     ecut=   150.00 Ry     beta= 0.70
     Davidson diagonalization with overlap
     ethr =  4.78E-07,  avg # of iterations =  1.0

     negative rho (up, down):  2.564E-04 0.000E+00

     total cpu time spent up to now is       16.5 secs

     total energy              =     -43.91275200 Ry
     Harris-Foulkes estimate   =     -43.91275355 Ry
     estimated scf accuracy    <       0.00003658 Ry

     iteration # 14     ecut=   150.00 Ry     beta= 0.70
     Davidson diagonalization with overlap
     ethr =  4.57E-07,  avg # of iterations =  1.0

     negative rho (up, down):  2.650E-04 0.000E+00

     total cpu time spent up to now is       17.5 secs

     total energy              =     -43.91274476 Ry
     Harris-Foulkes estimate   =     -43.91275241 Ry
     estimated scf accuracy    <       0.00003173 Ry

     iteration # 15     ecut=   150.00 Ry     beta= 0.70
     Davidson diagonalization with overlap
     ethr =  3.97E-07,  avg # of iterations =  2.0

     negative rho (up, down):  2.704E-04 0.000E+00

     total cpu time spent up to now is       18.5 secs

     total energy              =     -43.91274757 Ry
     Harris-Foulkes estimate   =     -43.91274908 Ry
     estimated scf accuracy    <       0.00000887 Ry

     iteration # 16     ecut=   150.00 Ry     beta= 0.70
     Davidson diagonalization with overlap
     ethr =  1.11E-07,  avg # of iterations =  2.0

     negative rho (up, down):  2.664E-04 0.000E+00

     total cpu time spent up to now is       19.6 secs

     total energy              =     -43.91274932 Ry
     Harris-Foulkes estimate   =     -43.91274965 Ry
     estimated scf accuracy    <       0.00000604 Ry

     iteration # 17     ecut=   150.00 Ry     beta= 0.70
     Davidson diagonalization with overlap
     ethr =  7.56E-08,  avg # of iterations =  3.0

     negative rho (up, down):  2.637E-04 0.000E+00

     total cpu time spent up to now is       20.7 secs

     total energy              =     -43.91275098 Ry
     Harris-Foulkes estimate   =     -43.91275227 Ry
     estimated scf accuracy    <       0.00001442 Ry

     iteration # 18     ecut=   150.00 Ry     beta= 0.70
     Davidson diagonalization with overlap
     ethr =  7.56E-08,  avg # of iterations =  1.0

     negative rho (up, down):  2.653E-04 0.000E+00

     total cpu time spent up to now is       21.7 secs

     total energy              =     -43.91274769 Ry
     Harris-Foulkes estimate   =     -43.91275102 Ry
     estimated scf accuracy    <       0.00001104 Ry

     iteration # 19     ecut=   150.00 Ry     beta= 0.70
     Davidson diagonalization with overlap
     ethr =  7.56E-08,  avg # of iterations =  2.0

     negative rho (up, down):  2.650E-04 0.000E+00

     total cpu time spent up to now is       22.8 secs

     total energy              =     -43.91274829 Ry
     Harris-Foulkes estimate   =     -43.91274867 Ry
     estimated scf accuracy    <       0.00000186 Ry

     iteration # 20     ecut=   150.00 Ry     beta= 0.70
     Davidson diagonalization with overlap
     ethr =  2.32E-08,  avg # of iterations =  3.0

     negative rho (up, down):  2.661E-04 0.000E+00

     total cpu time spent up to now is       23.8 secs

     total energy              =     -43.91274833 Ry
     Harris-Foulkes estimate   =     -43.91274860 Ry
     estimated scf accuracy    <       0.00000059 Ry

     iteration # 21     ecut=   150.00 Ry     beta= 0.70
     Davidson diagonalization with overlap
     ethr =  7.35E-09,  avg # of iterations =  3.0

     negative rho (up, down):  2.658E-04 0.000E+00

     total cpu time spent up to now is       24.9 secs

     total energy              =     -43.91274856 Ry
     Harris-Foulkes estimate   =     -43.91274858 Ry
     estimated scf accuracy    <       0.00000022 Ry

     iteration # 22     ecut=   150.00 Ry     beta= 0.70
     Davidson diagonalization with overlap
     ethr =  2.74E-09,  avg # of iterations =  1.0

     negative rho (up, down):  2.654E-04 0.000E+00

     total cpu time spent up to now is       25.9 secs

     total energy              =     -43.91274854 Ry
     Harris-Foulkes estimate   =     -43.91274856 Ry
     estimated scf accuracy    <       0.00000014 Ry

     iteration # 23     ecut=   150.00 Ry     beta= 0.70
     Davidson diagonalization with overlap
     ethr =  1.77E-09,  avg # of iterations =  2.0

     negative rho (up, down):  2.652E-04 0.000E+00

     total cpu time spent up to now is       27.0 secs

     total energy              =     -43.91274855 Ry
     Harris-Foulkes estimate   =     -43.91274855 Ry
     estimated scf accuracy    <       0.00000002 Ry

     iteration # 24     ecut=   150.00 Ry     beta= 0.70
     Davidson diagonalization with overlap
     ethr =  2.86E-10,  avg # of iterations =  3.0

     negative rho (up, down):  2.654E-04 0.000E+00

     total cpu time spent up to now is       27.8 secs

     End of self-consistent calculation

          k = 0.0000 0.0000 0.0000 (248049 PWs)   bands (ev):

   -23.3171 -12.5916  -7.4434  -6.5912  -2.0571  -0.0426   0.2181   0.9368

     the Fermi energy is    -6.2781 ev

!    total energy              =     -43.91274856 Ry
     Harris-Foulkes estimate   =     -43.91274856 Ry
     estimated scf accuracy    <          1.7E-09 Ry

     total all-electron energy =      -152.759630 Ry

     The total energy is the sum of the following terms:

     one-electron contribution =     -60.53980269 Ry
     hartree contribution      =      32.10989245 Ry
     xc contribution           =      -8.58864422 Ry
     ewald contribution        =       2.68549252 Ry
     one-center paw contrib.   =      -9.58378896 Ry
     smearing contrib. (-TS)   =       0.00410235 Ry

     convergence has been achieved in  24 iterations

     Writing output data file pwscf.save
 
     init_run     :      1.68s CPU      1.80s WALL (       1 calls)
     electrons    :     22.37s CPU     25.51s WALL (       1 calls)

     Called by init_run:
     wfcinit      :      0.19s CPU      0.23s WALL (       1 calls)
     potinit      :      0.28s CPU      0.30s WALL (       1 calls)

     Called by electrons:
     c_bands      :      8.47s CPU      8.55s WALL (      24 calls)
     sum_band     :      5.31s CPU      5.88s WALL (      24 calls)
     v_of_rho     :      3.96s CPU      4.14s WALL (      25 calls)
     newd         :      1.86s CPU      2.32s WALL (      25 calls)
     PAW_pot      :      0.21s CPU      0.23s WALL (      25 calls)
     mix_rho      :      2.53s CPU      4.24s WALL (      24 calls)

     Called by c_bands:
     init_us_2    :      0.14s CPU      0.15s WALL (      49 calls)
     cegterg      :      8.33s CPU      8.39s WALL (      24 calls)

     Called by sum_band:
     sum_band:bec :      0.00s CPU      0.00s WALL (      24 calls)
     addusdens    :      2.64s CPU      3.15s WALL (      24 calls)

     Called by *egterg:
     h_psi        :      7.92s CPU      7.97s WALL (      92 calls)
     s_psi        :      0.05s CPU      0.05s WALL (      92 calls)
     g_psi        :      0.02s CPU      0.02s WALL (      67 calls)
     cdiaghg      :      0.02s CPU      0.02s WALL (      91 calls)

     Called by h_psi:
     h_psi:pot    :      7.88s CPU      7.93s WALL (      92 calls)
     h_psi:calbec :      0.08s CPU      0.08s WALL (      92 calls)
     vloc_psi     :      7.75s CPU      7.80s WALL (      92 calls)
     add_vuspsi   :      0.04s CPU      0.04s WALL (      92 calls)

     General routines
     calbec       :      0.11s CPU      0.11s WALL (     116 calls)
     fft          :      3.99s CPU      4.26s WALL (     324 calls)
     fftw         :      8.05s CPU      8.11s WALL (    1148 calls)
     davcio       :      0.26s CPU      1.82s WALL (     387 calls)
 
     Parallel routines
     fft_scatt_xy :      1.85s CPU      1.86s WALL (    1472 calls)
     fft_scatt_yz :      2.46s CPU      2.73s WALL (    1472 calls)
 
     PWSCF        :    24.72s CPU        28.36s WALL

 
   This run was terminated on:  14:26:13  18May2018            

=------------------------------------------------------------------------------=
   JOB DONE.
=------------------------------------------------------------------------------=
