
     Program PWSCF v.6.2 (svn rev. 14038) starts on 18May2018 at 14:26:15 

     This program is part of the open-source Quantum ESPRESSO suite
     for quantum simulation of materials; please cite
         "P. Giannozzi et al., J. Phys.:Condens. Matter 21 395502 (2009);
         "P. Giannozzi et al., J. Phys.:Condens. Matter 29 465901 (2017);
          URL http://www.quantum-espresso.org", 
     in publications or presentations arising from this work. More details at
     http://www.quantum-espresso.org/quote

     Parallel version (MPI), running on    28 processors

     MPI processes distributed on     1 nodes
     R & G space division:  proc/nbgrp/npool/nimage =      28
     Reading input from ../ecut2-150/12500.in
Warning: card &IONS ignored
Warning: card     POT_EXTRAPOLATION='SECOND-ORDER' ignored
Warning: card     WFC_EXTRAPOLATION='SECOND-ORDER' ignored
Warning: card     ION_TEMPERATURE = 'ANDERSEN' ignored
Warning: card / ignored

     Current dimensions of program PWSCF are:
     Max number of different atomic species (ntypx) = 10
     Max number of k-points (npk) =  40000
     Max angular momentum in pseudopotentials (lmaxx) =  3
               file H.pbe-kjpaw_psl.1.0.0.UPF: wavefunction(s)  1S renormalized
               file O.pbe-n-kjpaw_psl.1.0.0.UPF: wavefunction(s)  2S 2P renormalized

     Subspace diagonalization in iterative solution of the eigenvalue problem:
     a serial algorithm will be used

 
     Parallelization info
     --------------------
     sticks:   dense  smooth     PW     G-vecs:    dense   smooth      PW
     Min         681     681    170                70897    70897    8858
     Max         682     682    171                70904    70904    8861
     Sum       19089   19089   4765              1985227  1985227  248049
 


     bravais-lattice index     =            1
     lattice parameter (alat)  =      20.0000  a.u.
     unit-cell volume          =    8000.0000 (a.u.)^3
     number of atoms/cell      =            3
     number of atomic types    =            2
     number of electrons       =         8.00
     number of Kohn-Sham states=            8
     kinetic-energy cutoff     =     150.0000  Ry
     charge density cutoff     =     600.0000  Ry
     convergence threshold     =      1.0E-08
     mixing beta               =       0.7000
     number of iterations used =            8  plain     mixing
     Exchange-correlation      = SLA PW PBX PBC ( 1  4  3  4 0 0)

     celldm(1)=  20.000000  celldm(2)=   0.000000  celldm(3)=   0.000000
     celldm(4)=   0.000000  celldm(5)=   0.000000  celldm(6)=   0.000000

     crystal axes: (cart. coord. in units of alat)
               a(1) = (   1.000000   0.000000   0.000000 )  
               a(2) = (   0.000000   1.000000   0.000000 )  
               a(3) = (   0.000000   0.000000   1.000000 )  

     reciprocal axes: (cart. coord. in units 2 pi/alat)
               b(1) = (  1.000000  0.000000  0.000000 )  
               b(2) = (  0.000000  1.000000  0.000000 )  
               b(3) = (  0.000000  0.000000  1.000000 )  


     PseudoPot. # 1 for H  read from file:
     ../pslibrary/pbe/PSEUDOPOTENTIALS/H.pbe-kjpaw_psl.1.0.0.UPF
     MD5 check sum: e77ef4e89cfa2d6a63e4c80bb1a147aa
     Pseudo is Projector augmented-wave, Zval =  1.0
     Generated using "atomic" code by A. Dal Corso v.6.2 svn rev. 14038
     Shape of augmentation charge: PSQ
     Using radial grid of  929 points,  2 beta functions with: 
                l(1) =   0
                l(2) =   0
     Q(r) pseudized with 0 coefficients 


     PseudoPot. # 2 for O  read from file:
     ../pslibrary/pbe/PSEUDOPOTENTIALS/O.pbe-n-kjpaw_psl.1.0.0.UPF
     MD5 check sum: bb09017f9a02654af35f7312a94eda3e
     Pseudo is Projector augmented-wave + core cor, Zval =  6.0
     Generated using "atomic" code by A. Dal Corso v.6.2 svn rev. 14038
     Shape of augmentation charge: PSQ
     Using radial grid of 1095 points,  4 beta functions with: 
                l(1) =   0
                l(2) =   0
                l(3) =   1
                l(4) =   1
     Q(r) pseudized with 0 coefficients 


     atomic species   valence    mass     pseudopotential
        H              1.00     1.01000     H ( 1.00)
        O              6.00    16.00000     O ( 1.00)

     No symmetry found



   Cartesian axes

     site n.     atom                  positions (alat units)
         1           O   tau(   1) = (  -0.0053013  -0.0008756   0.0138451  )
         2           H   tau(   2) = (   0.0274939   0.0911008  -0.1218591  )
         3           H   tau(   3) = (   0.0564873  -0.0772293  -0.0091041  )

     number of k points=     1  Marzari-Vanderbilt smearing, width (Ry)=  0.0250
                       cart. coord. in units 2pi/alat
        k(    1) = (   0.0000000   0.0000000   0.0000000), wk =   2.0000000

     Dense  grid:  1985227 G-vectors     FFT dimensions: ( 160, 160, 160)

     Estimated max dynamical RAM per process >      79.84 MB

     Estimated total dynamical RAM >       2.18 GB

     Initial potential from superposition of free atoms
     Check: negative starting charge=   -0.000135

     starting charge    7.99998, renormalised to    8.00000

     negative rho (up, down):  1.352E-04 0.000E+00
     Starting wfc are    6 randomized atomic wfcs +    2 random wfc
     Checking if some PAW data can be deallocated... 

     total cpu time spent up to now is        2.5 secs

     Self-consistent Calculation

     iteration #  1     ecut=   150.00 Ry     beta= 0.70
     Davidson diagonalization with overlap
     ethr =  1.00E-02,  avg # of iterations =  8.0

     negative rho (up, down):  2.462E-04 0.000E+00

     total cpu time spent up to now is        3.9 secs

     total energy              =     -43.36912033 Ry
     Harris-Foulkes estimate   =     -43.88916090 Ry
     estimated scf accuracy    <       0.68394298 Ry

     iteration #  2     ecut=   150.00 Ry     beta= 0.70
     Davidson diagonalization with overlap
     ethr =  8.55E-03,  avg # of iterations =  4.0

     negative rho (up, down):  6.582E-05 0.000E+00

     total cpu time spent up to now is        4.9 secs

     total energy              =     -43.29194233 Ry
     Harris-Foulkes estimate   =     -44.46568342 Ry
     estimated scf accuracy    <       3.72013846 Ry

     iteration #  3     ecut=   150.00 Ry     beta= 0.70
     Davidson diagonalization with overlap
     ethr =  8.55E-03,  avg # of iterations =  4.0

     negative rho (up, down):  1.426E-05 0.000E+00

     total cpu time spent up to now is        5.9 secs

     total energy              =     -43.60797609 Ry
     Harris-Foulkes estimate   =     -43.62614985 Ry
     estimated scf accuracy    <       0.14066090 Ry

     iteration #  4     ecut=   150.00 Ry     beta= 0.70
     Davidson diagonalization with overlap
     ethr =  1.76E-03,  avg # of iterations =  3.0

     negative rho (up, down):  2.914E-05 0.000E+00

     total cpu time spent up to now is        7.0 secs

     total energy              =     -43.74905569 Ry
     Harris-Foulkes estimate   =     -43.75290220 Ry
     estimated scf accuracy    <       0.02418262 Ry

     iteration #  5     ecut=   150.00 Ry     beta= 0.70
     Davidson diagonalization with overlap
     ethr =  3.02E-04,  avg # of iterations =  1.0

     negative rho (up, down):  3.609E-05 0.000E+00

     total cpu time spent up to now is        7.9 secs

     total energy              =     -43.74831101 Ry
     Harris-Foulkes estimate   =     -43.75029156 Ry
     estimated scf accuracy    <       0.01694556 Ry

     iteration #  6     ecut=   150.00 Ry     beta= 0.70
     Davidson diagonalization with overlap
     ethr =  2.12E-04,  avg # of iterations =  1.0

     negative rho (up, down):  4.696E-05 0.000E+00

     total cpu time spent up to now is        8.9 secs

     total energy              =     -43.74727605 Ry
     Harris-Foulkes estimate   =     -43.74854881 Ry
     estimated scf accuracy    <       0.01080994 Ry

     iteration #  7     ecut=   150.00 Ry     beta= 0.70
     Davidson diagonalization with overlap
     ethr =  1.35E-04,  avg # of iterations =  1.0

     negative rho (up, down):  5.851E-05 0.000E+00

     total cpu time spent up to now is        9.9 secs

     total energy              =     -43.74741564 Ry
     Harris-Foulkes estimate   =     -43.74770860 Ry
     estimated scf accuracy    <       0.00503842 Ry

     iteration #  8     ecut=   150.00 Ry     beta= 0.70
     Davidson diagonalization with overlap
     ethr =  6.30E-05,  avg # of iterations =  8.0

     negative rho (up, down):  6.738E-05 0.000E+00

     total cpu time spent up to now is       11.0 secs

     total energy              =     -43.74753626 Ry
     Harris-Foulkes estimate   =     -43.74758291 Ry
     estimated scf accuracy    <       0.00301635 Ry

     iteration #  9     ecut=   150.00 Ry     beta= 0.70
     Davidson diagonalization with overlap
     ethr =  3.77E-05,  avg # of iterations =  1.0

     negative rho (up, down):  9.638E-05 0.000E+00

     total cpu time spent up to now is       12.1 secs

     total energy              =     -43.74740091 Ry
     Harris-Foulkes estimate   =     -43.74757146 Ry
     estimated scf accuracy    <       0.00255616 Ry

     iteration # 10     ecut=   150.00 Ry     beta= 0.70
     Davidson diagonalization with overlap
     ethr =  3.20E-05,  avg # of iterations =  1.0

     negative rho (up, down):  1.377E-04 0.000E+00

     total cpu time spent up to now is       13.1 secs

     total energy              =     -43.74722257 Ry
     Harris-Foulkes estimate   =     -43.74742935 Ry
     estimated scf accuracy    <       0.00174281 Ry

     iteration # 11     ecut=   150.00 Ry     beta= 0.70
     Davidson diagonalization with overlap
     ethr =  2.18E-05,  avg # of iterations =  2.0

     negative rho (up, down):  1.549E-04 0.000E+00

     total cpu time spent up to now is       14.1 secs

     total energy              =     -43.74725139 Ry
     Harris-Foulkes estimate   =     -43.74730018 Ry
     estimated scf accuracy    <       0.00062369 Ry

     iteration # 12     ecut=   150.00 Ry     beta= 0.70
     Davidson diagonalization with overlap
     ethr =  7.80E-06,  avg # of iterations =  5.0

     negative rho (up, down):  2.502E-04 0.000E+00

     total cpu time spent up to now is       15.2 secs

     total energy              =     -43.74717839 Ry
     Harris-Foulkes estimate   =     -43.74726947 Ry
     estimated scf accuracy    <       0.00032848 Ry

     iteration # 13     ecut=   150.00 Ry     beta= 0.70
     Davidson diagonalization with overlap
     ethr =  4.11E-06,  avg # of iterations =  9.0

     negative rho (up, down):  2.482E-04 0.000E+00

     total cpu time spent up to now is       16.4 secs

     total energy              =     -43.74720381 Ry
     Harris-Foulkes estimate   =     -43.74720793 Ry
     estimated scf accuracy    <       0.00001429 Ry

     iteration # 14     ecut=   150.00 Ry     beta= 0.70
     Davidson diagonalization with overlap
     ethr =  1.79E-07,  avg # of iterations =  4.0

     negative rho (up, down):  2.484E-04 0.000E+00

     total cpu time spent up to now is       17.6 secs

     total energy              =     -43.74721768 Ry
     Harris-Foulkes estimate   =     -43.74721827 Ry
     estimated scf accuracy    <       0.00000882 Ry

     iteration # 15     ecut=   150.00 Ry     beta= 0.70
     Davidson diagonalization with overlap
     ethr =  1.10E-07,  avg # of iterations =  1.0

     negative rho (up, down):  2.474E-04 0.000E+00

     total cpu time spent up to now is       18.6 secs

     total energy              =     -43.74721523 Ry
     Harris-Foulkes estimate   =     -43.74721769 Ry
     estimated scf accuracy    <       0.00000723 Ry

     iteration # 16     ecut=   150.00 Ry     beta= 0.70
     Davidson diagonalization with overlap
     ethr =  9.03E-08,  avg # of iterations =  1.0

     negative rho (up, down):  2.457E-04 0.000E+00

     total cpu time spent up to now is       19.6 secs

     total energy              =     -43.74721524 Ry
     Harris-Foulkes estimate   =     -43.74721560 Ry
     estimated scf accuracy    <       0.00000107 Ry

     iteration # 17     ecut=   150.00 Ry     beta= 0.70
     Davidson diagonalization with overlap
     ethr =  1.34E-08,  avg # of iterations =  3.0

     negative rho (up, down):  2.453E-04 0.000E+00

     total cpu time spent up to now is       20.7 secs

     total energy              =     -43.74721585 Ry
     Harris-Foulkes estimate   =     -43.74721591 Ry
     estimated scf accuracy    <       0.00000019 Ry

     iteration # 18     ecut=   150.00 Ry     beta= 0.70
     Davidson diagonalization with overlap
     ethr =  2.43E-09,  avg # of iterations =  1.0

     negative rho (up, down):  2.446E-04 0.000E+00

     total cpu time spent up to now is       21.7 secs

     total energy              =     -43.74721585 Ry
     Harris-Foulkes estimate   =     -43.74721586 Ry
     estimated scf accuracy    <       0.00000009 Ry

     iteration # 19     ecut=   150.00 Ry     beta= 0.70
     Davidson diagonalization with overlap
     ethr =  1.14E-09,  avg # of iterations =  3.0

     negative rho (up, down):  2.446E-04 0.000E+00

     total cpu time spent up to now is       22.9 secs

     total energy              =     -43.74721595 Ry
     Harris-Foulkes estimate   =     -43.74721601 Ry
     estimated scf accuracy    <       0.00000070 Ry

     iteration # 20     ecut=   150.00 Ry     beta= 0.70
     Davidson diagonalization with overlap
     ethr =  1.14E-09,  avg # of iterations =  1.0

     negative rho (up, down):  2.446E-04 0.000E+00

     total cpu time spent up to now is       23.9 secs

     total energy              =     -43.74721586 Ry
     Harris-Foulkes estimate   =     -43.74721595 Ry
     estimated scf accuracy    <       0.00000048 Ry

     iteration # 21     ecut=   150.00 Ry     beta= 0.70
     Davidson diagonalization with overlap
     ethr =  1.14E-09,  avg # of iterations =  1.0

     negative rho (up, down):  2.446E-04 0.000E+00

     total cpu time spent up to now is       24.9 secs

     total energy              =     -43.74721582 Ry
     Harris-Foulkes estimate   =     -43.74721587 Ry
     estimated scf accuracy    <       0.00000020 Ry

     iteration # 22     ecut=   150.00 Ry     beta= 0.70
     Davidson diagonalization with overlap
     ethr =  1.14E-09,  avg # of iterations =  6.0

     negative rho (up, down):  2.447E-04 0.000E+00

     total cpu time spent up to now is       25.8 secs

     End of self-consistent calculation

          k = 0.0000 0.0000 0.0000 (248049 PWs)   bands (ev):

   -23.2174 -10.3619  -8.7130  -6.7090  -4.7833  -0.5661   0.2017   0.8617

     the Fermi energy is    -6.3957 ev

!    total energy              =     -43.74721586 Ry
     Harris-Foulkes estimate   =     -43.74721586 Ry
     estimated scf accuracy    <          9.4E-09 Ry

     total all-electron energy =      -152.594097 Ry

     The total energy is the sum of the following terms:

     one-electron contribution =     -57.10585577 Ry
     hartree contribution      =      30.33498804 Ry
     xc contribution           =      -8.38754976 Ry
     ewald contribution        =       1.00271754 Ry
     one-center paw contrib.   =      -9.59559337 Ry
     smearing contrib. (-TS)   =       0.00407747 Ry

     convergence has been achieved in  22 iterations

     Writing output data file pwscf.save
 
     init_run     :      1.71s CPU      1.82s WALL (       1 calls)
     electrons    :     20.53s CPU     23.42s WALL (       1 calls)

     Called by init_run:
     wfcinit      :      0.24s CPU      0.27s WALL (       1 calls)
     potinit      :      0.28s CPU      0.30s WALL (       1 calls)

     Called by electrons:
     c_bands      :      7.94s CPU      8.02s WALL (      22 calls)
     sum_band     :      4.81s CPU      5.35s WALL (      22 calls)
     v_of_rho     :      3.66s CPU      3.83s WALL (      23 calls)
     newd         :      1.71s CPU      2.13s WALL (      23 calls)
     PAW_pot      :      0.18s CPU      0.21s WALL (      23 calls)
     mix_rho      :      2.20s CPU      3.74s WALL (      22 calls)

     Called by c_bands:
     init_us_2    :      0.14s CPU      0.14s WALL (      45 calls)
     cegterg      :      7.81s CPU      7.87s WALL (      22 calls)

     Called by sum_band:
     sum_band:bec :      0.00s CPU      0.00s WALL (      22 calls)
     addusdens    :      2.40s CPU      2.89s WALL (      22 calls)

     Called by *egterg:
     h_psi        :      7.50s CPU      7.56s WALL (      92 calls)
     s_psi        :      0.04s CPU      0.05s WALL (      92 calls)
     g_psi        :      0.02s CPU      0.02s WALL (      69 calls)
     cdiaghg      :      0.02s CPU      0.02s WALL (      91 calls)

     Called by h_psi:
     h_psi:pot    :      7.46s CPU      7.51s WALL (      92 calls)
     h_psi:calbec :      0.10s CPU      0.10s WALL (      92 calls)
     vloc_psi     :      7.32s CPU      7.38s WALL (      92 calls)
     add_vuspsi   :      0.04s CPU      0.04s WALL (      92 calls)

     General routines
     calbec       :      0.12s CPU      0.12s WALL (     114 calls)
     fft          :      3.66s CPU      3.92s WALL (     298 calls)
     fftw         :      7.57s CPU      7.63s WALL (    1052 calls)
     davcio       :      0.22s CPU      1.62s WALL (     347 calls)
 
     Parallel routines
     fft_scatt_xy :      1.73s CPU      1.75s WALL (    1350 calls)
     fft_scatt_yz :      2.31s CPU      2.57s WALL (    1350 calls)
 
     PWSCF        :    23.03s CPU        26.47s WALL

 
   This run was terminated on:  14:26:41  18May2018            

=------------------------------------------------------------------------------=
   JOB DONE.
=------------------------------------------------------------------------------=
