
     Program PWSCF v.6.2 (svn rev. 14038) starts on 18May2018 at 14:29:30 

     This program is part of the open-source Quantum ESPRESSO suite
     for quantum simulation of materials; please cite
         "P. Giannozzi et al., J. Phys.:Condens. Matter 21 395502 (2009);
         "P. Giannozzi et al., J. Phys.:Condens. Matter 29 465901 (2017);
          URL http://www.quantum-espresso.org", 
     in publications or presentations arising from this work. More details at
     http://www.quantum-espresso.org/quote

     Parallel version (MPI), running on    28 processors

     MPI processes distributed on     1 nodes
     R & G space division:  proc/nbgrp/npool/nimage =      28
     Reading input from ../ecut2-150/16000.in
Warning: card &IONS ignored
Warning: card     POT_EXTRAPOLATION='SECOND-ORDER' ignored
Warning: card     WFC_EXTRAPOLATION='SECOND-ORDER' ignored
Warning: card     ION_TEMPERATURE = 'ANDERSEN' ignored
Warning: card / ignored

     Current dimensions of program PWSCF are:
     Max number of different atomic species (ntypx) = 10
     Max number of k-points (npk) =  40000
     Max angular momentum in pseudopotentials (lmaxx) =  3
               file H.pbe-kjpaw_psl.1.0.0.UPF: wavefunction(s)  1S renormalized
               file O.pbe-n-kjpaw_psl.1.0.0.UPF: wavefunction(s)  2S 2P renormalized

     Subspace diagonalization in iterative solution of the eigenvalue problem:
     a serial algorithm will be used

 
     Parallelization info
     --------------------
     sticks:   dense  smooth     PW     G-vecs:    dense   smooth      PW
     Min         681     681    170                70897    70897    8858
     Max         682     682    171                70904    70904    8861
     Sum       19089   19089   4765              1985227  1985227  248049
 


     bravais-lattice index     =            1
     lattice parameter (alat)  =      20.0000  a.u.
     unit-cell volume          =    8000.0000 (a.u.)^3
     number of atoms/cell      =            3
     number of atomic types    =            2
     number of electrons       =         8.00
     number of Kohn-Sham states=            8
     kinetic-energy cutoff     =     150.0000  Ry
     charge density cutoff     =     600.0000  Ry
     convergence threshold     =      1.0E-08
     mixing beta               =       0.7000
     number of iterations used =            8  plain     mixing
     Exchange-correlation      = SLA PW PBX PBC ( 1  4  3  4 0 0)

     celldm(1)=  20.000000  celldm(2)=   0.000000  celldm(3)=   0.000000
     celldm(4)=   0.000000  celldm(5)=   0.000000  celldm(6)=   0.000000

     crystal axes: (cart. coord. in units of alat)
               a(1) = (   1.000000   0.000000   0.000000 )  
               a(2) = (   0.000000   1.000000   0.000000 )  
               a(3) = (   0.000000   0.000000   1.000000 )  

     reciprocal axes: (cart. coord. in units 2 pi/alat)
               b(1) = (  1.000000  0.000000  0.000000 )  
               b(2) = (  0.000000  1.000000  0.000000 )  
               b(3) = (  0.000000  0.000000  1.000000 )  


     PseudoPot. # 1 for H  read from file:
     ../pslibrary/pbe/PSEUDOPOTENTIALS/H.pbe-kjpaw_psl.1.0.0.UPF
     MD5 check sum: e77ef4e89cfa2d6a63e4c80bb1a147aa
     Pseudo is Projector augmented-wave, Zval =  1.0
     Generated using "atomic" code by A. Dal Corso v.6.2 svn rev. 14038
     Shape of augmentation charge: PSQ
     Using radial grid of  929 points,  2 beta functions with: 
                l(1) =   0
                l(2) =   0
     Q(r) pseudized with 0 coefficients 


     PseudoPot. # 2 for O  read from file:
     ../pslibrary/pbe/PSEUDOPOTENTIALS/O.pbe-n-kjpaw_psl.1.0.0.UPF
     MD5 check sum: bb09017f9a02654af35f7312a94eda3e
     Pseudo is Projector augmented-wave + core cor, Zval =  6.0
     Generated using "atomic" code by A. Dal Corso v.6.2 svn rev. 14038
     Shape of augmentation charge: PSQ
     Using radial grid of 1095 points,  4 beta functions with: 
                l(1) =   0
                l(2) =   0
                l(3) =   1
                l(4) =   1
     Q(r) pseudized with 0 coefficients 


     atomic species   valence    mass     pseudopotential
        H              1.00     1.01000     H ( 1.00)
        O              6.00    16.00000     O ( 1.00)

     No symmetry found



   Cartesian axes

     site n.     atom                  positions (alat units)
         1           O   tau(   1) = (  -0.0040208  -0.0097288   0.0055931  )
         2           H   tau(   2) = (  -0.0252565   0.1165225   0.0567062  )
         3           H   tau(   3) = (   0.0889514   0.0375970  -0.0569466  )

     number of k points=     1  Marzari-Vanderbilt smearing, width (Ry)=  0.0250
                       cart. coord. in units 2pi/alat
        k(    1) = (   0.0000000   0.0000000   0.0000000), wk =   2.0000000

     Dense  grid:  1985227 G-vectors     FFT dimensions: ( 160, 160, 160)

     Estimated max dynamical RAM per process >      79.84 MB

     Estimated total dynamical RAM >       2.18 GB

     Initial potential from superposition of free atoms
     Check: negative starting charge=   -0.000139

     starting charge    7.99998, renormalised to    8.00000

     negative rho (up, down):  1.388E-04 0.000E+00
     Starting wfc are    6 randomized atomic wfcs +    2 random wfc
     Checking if some PAW data can be deallocated... 

     total cpu time spent up to now is        2.5 secs

     Self-consistent Calculation

     iteration #  1     ecut=   150.00 Ry     beta= 0.70
     Davidson diagonalization with overlap
     ethr =  1.00E-02,  avg # of iterations =  7.0

     negative rho (up, down):  2.310E-04 0.000E+00

     total cpu time spent up to now is        3.8 secs

     total energy              =     -43.55059850 Ry
     Harris-Foulkes estimate   =     -43.88332848 Ry
     estimated scf accuracy    <       0.44419840 Ry

     iteration #  2     ecut=   150.00 Ry     beta= 0.70
     Davidson diagonalization with overlap
     ethr =  5.55E-03,  avg # of iterations =  3.0

     negative rho (up, down):  1.811E-04 0.000E+00

     total cpu time spent up to now is        4.8 secs

     total energy              =     -43.45916313 Ry
     Harris-Foulkes estimate   =     -44.16169219 Ry
     estimated scf accuracy    <       2.13027075 Ry

     iteration #  3     ecut=   150.00 Ry     beta= 0.70
     Davidson diagonalization with overlap
     ethr =  5.55E-03,  avg # of iterations =  3.0

     negative rho (up, down):  1.093E-04 0.000E+00

     total cpu time spent up to now is        5.8 secs

     total energy              =     -43.69750094 Ry
     Harris-Foulkes estimate   =     -43.70996479 Ry
     estimated scf accuracy    <       0.05175449 Ry

     iteration #  4     ecut=   150.00 Ry     beta= 0.70
     Davidson diagonalization with overlap
     ethr =  6.47E-04,  avg # of iterations =  4.0

     negative rho (up, down):  1.420E-04 0.000E+00

     total cpu time spent up to now is        6.9 secs

     total energy              =     -43.78510237 Ry
     Harris-Foulkes estimate   =     -43.79316357 Ry
     estimated scf accuracy    <       0.04258032 Ry

     iteration #  5     ecut=   150.00 Ry     beta= 0.70
     Davidson diagonalization with overlap
     ethr =  5.32E-04,  avg # of iterations =  1.0

     negative rho (up, down):  1.633E-04 0.000E+00

     total cpu time spent up to now is        7.8 secs

     total energy              =     -43.78400527 Ry
     Harris-Foulkes estimate   =     -43.78619074 Ry
     estimated scf accuracy    <       0.01624799 Ry

     iteration #  6     ecut=   150.00 Ry     beta= 0.70
     Davidson diagonalization with overlap
     ethr =  2.03E-04,  avg # of iterations =  1.0

     negative rho (up, down):  1.749E-04 0.000E+00

     total cpu time spent up to now is        8.8 secs

     total energy              =     -43.78347191 Ry
     Harris-Foulkes estimate   =     -43.78435529 Ry
     estimated scf accuracy    <       0.00897592 Ry

     iteration #  7     ecut=   150.00 Ry     beta= 0.70
     Davidson diagonalization with overlap
     ethr =  1.12E-04,  avg # of iterations =  1.0

     negative rho (up, down):  2.133E-04 0.000E+00

     total cpu time spent up to now is        9.8 secs

     total energy              =     -43.78215613 Ry
     Harris-Foulkes estimate   =     -43.78366763 Ry
     estimated scf accuracy    <       0.00545727 Ry

     iteration #  8     ecut=   150.00 Ry     beta= 0.70
     Davidson diagonalization with overlap
     ethr =  6.82E-05,  avg # of iterations =  8.0

     negative rho (up, down):  2.133E-04 0.000E+00

     total cpu time spent up to now is       11.0 secs

     total energy              =     -43.78780773 Ry
     Harris-Foulkes estimate   =     -43.78782585 Ry
     estimated scf accuracy    <       0.00004371 Ry

     iteration #  9     ecut=   150.00 Ry     beta= 0.70
     Davidson diagonalization with overlap
     ethr =  5.46E-07,  avg # of iterations =  6.0

     negative rho (up, down):  2.279E-04 0.000E+00

     total cpu time spent up to now is       12.4 secs

     total energy              =     -43.78783226 Ry
     Harris-Foulkes estimate   =     -43.78784763 Ry
     estimated scf accuracy    <       0.00007220 Ry

     iteration # 10     ecut=   150.00 Ry     beta= 0.70
     Davidson diagonalization with overlap
     ethr =  5.46E-07,  avg # of iterations =  1.0

     negative rho (up, down):  2.348E-04 0.000E+00

     total cpu time spent up to now is       13.4 secs

     total energy              =     -43.78784263 Ry
     Harris-Foulkes estimate   =     -43.78783608 Ry
     estimated scf accuracy    <       0.00001246 Ry

     iteration # 11     ecut=   150.00 Ry     beta= 0.70
     Davidson diagonalization with overlap
     ethr =  1.56E-07,  avg # of iterations =  2.0

     negative rho (up, down):  2.432E-04 0.000E+00

     total cpu time spent up to now is       14.5 secs

     total energy              =     -43.78784206 Ry
     Harris-Foulkes estimate   =     -43.78784616 Ry
     estimated scf accuracy    <       0.00004818 Ry

     iteration # 12     ecut=   150.00 Ry     beta= 0.70
     Davidson diagonalization with overlap
     ethr =  1.56E-07,  avg # of iterations =  1.0

     negative rho (up, down):  2.444E-04 0.000E+00

     total cpu time spent up to now is       15.5 secs

     total energy              =     -43.78783944 Ry
     Harris-Foulkes estimate   =     -43.78784252 Ry
     estimated scf accuracy    <       0.00003091 Ry

     iteration # 13     ecut=   150.00 Ry     beta= 0.70
     Davidson diagonalization with overlap
     ethr =  1.56E-07,  avg # of iterations =  1.0

     negative rho (up, down):  2.446E-04 0.000E+00

     total cpu time spent up to now is       16.5 secs

     total energy              =     -43.78783538 Ry
     Harris-Foulkes estimate   =     -43.78783971 Ry
     estimated scf accuracy    <       0.00001879 Ry

     iteration # 14     ecut=   150.00 Ry     beta= 0.70
     Davidson diagonalization with overlap
     ethr =  1.56E-07,  avg # of iterations =  1.0

     negative rho (up, down):  2.447E-04 0.000E+00

     total cpu time spent up to now is       17.5 secs

     total energy              =     -43.78783590 Ry
     Harris-Foulkes estimate   =     -43.78783619 Ry
     estimated scf accuracy    <       0.00000487 Ry

     iteration # 15     ecut=   150.00 Ry     beta= 0.70
     Davidson diagonalization with overlap
     ethr =  6.09E-08,  avg # of iterations =  1.0

     negative rho (up, down):  2.451E-04 0.000E+00

     total cpu time spent up to now is       18.5 secs

     total energy              =     -43.78783474 Ry
     Harris-Foulkes estimate   =     -43.78783604 Ry
     estimated scf accuracy    <       0.00000353 Ry

     iteration # 16     ecut=   150.00 Ry     beta= 0.70
     Davidson diagonalization with overlap
     ethr =  4.41E-08,  avg # of iterations =  3.0

     negative rho (up, down):  2.450E-04 0.000E+00

     total cpu time spent up to now is       19.6 secs

     total energy              =     -43.78783582 Ry
     Harris-Foulkes estimate   =     -43.78783585 Ry
     estimated scf accuracy    <       0.00000017 Ry

     iteration # 17     ecut=   150.00 Ry     beta= 0.70
     Davidson diagonalization with overlap
     ethr =  2.18E-09,  avg # of iterations =  3.0

     negative rho (up, down):  2.450E-04 0.000E+00

     total cpu time spent up to now is       20.7 secs

     total energy              =     -43.78783605 Ry
     Harris-Foulkes estimate   =     -43.78783608 Ry
     estimated scf accuracy    <       0.00000032 Ry

     iteration # 18     ecut=   150.00 Ry     beta= 0.70
     Davidson diagonalization with overlap
     ethr =  2.18E-09,  avg # of iterations =  1.0

     negative rho (up, down):  2.449E-04 0.000E+00

     total cpu time spent up to now is       21.7 secs

     total energy              =     -43.78783609 Ry
     Harris-Foulkes estimate   =     -43.78783605 Ry
     estimated scf accuracy    <       0.00000019 Ry

     iteration # 19     ecut=   150.00 Ry     beta= 0.70
     Davidson diagonalization with overlap
     ethr =  2.18E-09,  avg # of iterations =  1.0

     negative rho (up, down):  2.447E-04 0.000E+00

     total cpu time spent up to now is       22.7 secs

     total energy              =     -43.78783610 Ry
     Harris-Foulkes estimate   =     -43.78783609 Ry
     estimated scf accuracy    <       0.00000033 Ry

     iteration # 20     ecut=   150.00 Ry     beta= 0.70
     Davidson diagonalization with overlap
     ethr =  2.18E-09,  avg # of iterations =  1.0

     negative rho (up, down):  2.449E-04 0.000E+00

     total cpu time spent up to now is       23.7 secs

     total energy              =     -43.78783600 Ry
     Harris-Foulkes estimate   =     -43.78783610 Ry
     estimated scf accuracy    <       0.00000039 Ry

     iteration # 21     ecut=   150.00 Ry     beta= 0.70
     Davidson diagonalization with overlap
     ethr =  2.18E-09,  avg # of iterations =  1.0

     negative rho (up, down):  2.449E-04 0.000E+00

     total cpu time spent up to now is       24.7 secs

     total energy              =     -43.78783597 Ry
     Harris-Foulkes estimate   =     -43.78783601 Ry
     estimated scf accuracy    <       0.00000009 Ry

     iteration # 22     ecut=   150.00 Ry     beta= 0.70
     Davidson diagonalization with overlap
     ethr =  1.09E-09,  avg # of iterations =  3.0

     negative rho (up, down):  2.449E-04 0.000E+00

     total cpu time spent up to now is       25.9 secs

     total energy              =     -43.78783601 Ry
     Harris-Foulkes estimate   =     -43.78783602 Ry
     estimated scf accuracy    <       0.00000006 Ry

     iteration # 23     ecut=   150.00 Ry     beta= 0.70
     Davidson diagonalization with overlap
     ethr =  7.50E-10,  avg # of iterations =  1.0

     negative rho (up, down):  2.448E-04 0.000E+00

     total cpu time spent up to now is       26.9 secs

     total energy              =     -43.78783600 Ry
     Harris-Foulkes estimate   =     -43.78783601 Ry
     estimated scf accuracy    <       0.00000001 Ry

     iteration # 24     ecut=   150.00 Ry     beta= 0.70
     Davidson diagonalization with overlap
     ethr =  1.84E-10,  avg # of iterations =  2.0

     negative rho (up, down):  2.448E-04 0.000E+00

     total cpu time spent up to now is       27.7 secs

     End of self-consistent calculation

          k = 0.0000 0.0000 0.0000 (248049 PWs)   bands (ev):

   -22.6664  -9.8387  -9.3742  -6.6835  -3.1878  -1.5220  -0.0322   0.8992

     the Fermi energy is    -4.6520 ev

!    total energy              =     -43.78783601 Ry
     Harris-Foulkes estimate   =     -43.78783601 Ry
     estimated scf accuracy    <          8.0E-09 Ry

     total all-electron energy =      -152.634717 Ry

     The total energy is the sum of the following terms:

     one-electron contribution =     -56.90179180 Ry
     hartree contribution      =      30.23248772 Ry
     xc contribution           =      -8.33407640 Ry
     ewald contribution        =       0.81244550 Ry
     one-center paw contrib.   =      -9.59690102 Ry
     smearing contrib. (-TS)   =      -0.00000000 Ry

     convergence has been achieved in  24 iterations

     Writing output data file pwscf.save
 
     init_run     :      1.65s CPU      1.81s WALL (       1 calls)
     electrons    :     22.01s CPU     25.42s WALL (       1 calls)

     Called by init_run:
     wfcinit      :      0.18s CPU      0.25s WALL (       1 calls)
     potinit      :      0.28s CPU      0.30s WALL (       1 calls)

     Called by electrons:
     c_bands      :      8.30s CPU      8.38s WALL (      24 calls)
     sum_band     :      5.23s CPU      5.82s WALL (      24 calls)
     v_of_rho     :      3.93s CPU      4.11s WALL (      25 calls)
     newd         :      1.87s CPU      2.32s WALL (      25 calls)
     PAW_pot      :      0.21s CPU      0.23s WALL (      25 calls)
     mix_rho      :      2.45s CPU      4.31s WALL (      24 calls)

     Called by c_bands:
     init_us_2    :      0.15s CPU      0.15s WALL (      49 calls)
     cegterg      :      8.15s CPU      8.22s WALL (      24 calls)

     Called by sum_band:
     sum_band:bec :      0.00s CPU      0.00s WALL (      24 calls)
     addusdens    :      2.57s CPU      3.10s WALL (      24 calls)

     Called by *egterg:
     h_psi        :      7.79s CPU      7.85s WALL (      82 calls)
     s_psi        :      0.05s CPU      0.05s WALL (      82 calls)
     g_psi        :      0.02s CPU      0.02s WALL (      57 calls)
     cdiaghg      :      0.02s CPU      0.02s WALL (      81 calls)

     Called by h_psi:
     h_psi:pot    :      7.74s CPU      7.80s WALL (      82 calls)
     h_psi:calbec :      0.11s CPU      0.11s WALL (      82 calls)
     vloc_psi     :      7.59s CPU      7.65s WALL (      82 calls)
     add_vuspsi   :      0.04s CPU      0.04s WALL (      82 calls)

     General routines
     calbec       :      0.14s CPU      0.14s WALL (     106 calls)
     fft          :      3.91s CPU      4.18s WALL (     324 calls)
     fftw         :      7.87s CPU      7.94s WALL (    1128 calls)
     davcio       :      0.28s CPU      1.98s WALL (     387 calls)
 
     Parallel routines
     fft_scatt_xy :      1.85s CPU      1.86s WALL (    1452 calls)
     fft_scatt_yz :      2.41s CPU      2.67s WALL (    1452 calls)
 
     PWSCF        :    24.41s CPU        28.31s WALL

 
   This run was terminated on:  14:29:58  18May2018            

=------------------------------------------------------------------------------=
   JOB DONE.
=------------------------------------------------------------------------------=
