
     Program PWSCF v.6.2 (svn rev. 14038) starts on 18May2018 at 14:30: 1 

     This program is part of the open-source Quantum ESPRESSO suite
     for quantum simulation of materials; please cite
         "P. Giannozzi et al., J. Phys.:Condens. Matter 21 395502 (2009);
         "P. Giannozzi et al., J. Phys.:Condens. Matter 29 465901 (2017);
          URL http://www.quantum-espresso.org", 
     in publications or presentations arising from this work. More details at
     http://www.quantum-espresso.org/quote

     Parallel version (MPI), running on    28 processors

     MPI processes distributed on     1 nodes
     R & G space division:  proc/nbgrp/npool/nimage =      28
     Reading input from ../ecut2-150/16500.in
Warning: card &IONS ignored
Warning: card     POT_EXTRAPOLATION='SECOND-ORDER' ignored
Warning: card     WFC_EXTRAPOLATION='SECOND-ORDER' ignored
Warning: card     ION_TEMPERATURE = 'ANDERSEN' ignored
Warning: card / ignored

     Current dimensions of program PWSCF are:
     Max number of different atomic species (ntypx) = 10
     Max number of k-points (npk) =  40000
     Max angular momentum in pseudopotentials (lmaxx) =  3
               file H.pbe-kjpaw_psl.1.0.0.UPF: wavefunction(s)  1S renormalized
               file O.pbe-n-kjpaw_psl.1.0.0.UPF: wavefunction(s)  2S 2P renormalized

     Subspace diagonalization in iterative solution of the eigenvalue problem:
     a serial algorithm will be used

 
     Parallelization info
     --------------------
     sticks:   dense  smooth     PW     G-vecs:    dense   smooth      PW
     Min         681     681    170                70897    70897    8858
     Max         682     682    171                70904    70904    8861
     Sum       19089   19089   4765              1985227  1985227  248049
 


     bravais-lattice index     =            1
     lattice parameter (alat)  =      20.0000  a.u.
     unit-cell volume          =    8000.0000 (a.u.)^3
     number of atoms/cell      =            3
     number of atomic types    =            2
     number of electrons       =         8.00
     number of Kohn-Sham states=            8
     kinetic-energy cutoff     =     150.0000  Ry
     charge density cutoff     =     600.0000  Ry
     convergence threshold     =      1.0E-08
     mixing beta               =       0.7000
     number of iterations used =            8  plain     mixing
     Exchange-correlation      = SLA PW PBX PBC ( 1  4  3  4 0 0)

     celldm(1)=  20.000000  celldm(2)=   0.000000  celldm(3)=   0.000000
     celldm(4)=   0.000000  celldm(5)=   0.000000  celldm(6)=   0.000000

     crystal axes: (cart. coord. in units of alat)
               a(1) = (   1.000000   0.000000   0.000000 )  
               a(2) = (   0.000000   1.000000   0.000000 )  
               a(3) = (   0.000000   0.000000   1.000000 )  

     reciprocal axes: (cart. coord. in units 2 pi/alat)
               b(1) = (  1.000000  0.000000  0.000000 )  
               b(2) = (  0.000000  1.000000  0.000000 )  
               b(3) = (  0.000000  0.000000  1.000000 )  


     PseudoPot. # 1 for H  read from file:
     ../pslibrary/pbe/PSEUDOPOTENTIALS/H.pbe-kjpaw_psl.1.0.0.UPF
     MD5 check sum: e77ef4e89cfa2d6a63e4c80bb1a147aa
     Pseudo is Projector augmented-wave, Zval =  1.0
     Generated using "atomic" code by A. Dal Corso v.6.2 svn rev. 14038
     Shape of augmentation charge: PSQ
     Using radial grid of  929 points,  2 beta functions with: 
                l(1) =   0
                l(2) =   0
     Q(r) pseudized with 0 coefficients 


     PseudoPot. # 2 for O  read from file:
     ../pslibrary/pbe/PSEUDOPOTENTIALS/O.pbe-n-kjpaw_psl.1.0.0.UPF
     MD5 check sum: bb09017f9a02654af35f7312a94eda3e
     Pseudo is Projector augmented-wave + core cor, Zval =  6.0
     Generated using "atomic" code by A. Dal Corso v.6.2 svn rev. 14038
     Shape of augmentation charge: PSQ
     Using radial grid of 1095 points,  4 beta functions with: 
                l(1) =   0
                l(2) =   0
                l(3) =   1
                l(4) =   1
     Q(r) pseudized with 0 coefficients 


     atomic species   valence    mass     pseudopotential
        H              1.00     1.01000     H ( 1.00)
        O              6.00    16.00000     O ( 1.00)

     No symmetry found



   Cartesian axes

     site n.     atom                  positions (alat units)
         1           O   tau(   1) = (  -0.0057217  -0.0020898   0.0052862  )
         2           H   tau(   2) = (   0.0264999   0.0928899   0.0233784  )
         3           H   tau(   3) = (   0.0641408  -0.0597833  -0.0187566  )

     number of k points=     1  Marzari-Vanderbilt smearing, width (Ry)=  0.0250
                       cart. coord. in units 2pi/alat
        k(    1) = (   0.0000000   0.0000000   0.0000000), wk =   2.0000000

     Dense  grid:  1985227 G-vectors     FFT dimensions: ( 160, 160, 160)

     Estimated max dynamical RAM per process >      79.84 MB

     Estimated total dynamical RAM >       2.18 GB

     Initial potential from superposition of free atoms
     Check: negative starting charge=   -0.000144

     starting charge    7.99998, renormalised to    8.00000

     negative rho (up, down):  1.441E-04 0.000E+00
     Starting wfc are    6 randomized atomic wfcs +    2 random wfc
     Checking if some PAW data can be deallocated... 

     total cpu time spent up to now is        3.4 secs

     Self-consistent Calculation

     iteration #  1     ecut=   150.00 Ry     beta= 0.70
     Davidson diagonalization with overlap
     ethr =  1.00E-02,  avg # of iterations =  7.0

     negative rho (up, down):  2.728E-04 0.000E+00

     total cpu time spent up to now is        5.2 secs

     total energy              =     -43.82329329 Ry
     Harris-Foulkes estimate   =     -44.15360549 Ry
     estimated scf accuracy    <       0.44622898 Ry

     iteration #  2     ecut=   150.00 Ry     beta= 0.70
     Davidson diagonalization with overlap
     ethr =  5.58E-03,  avg # of iterations =  3.0

     negative rho (up, down):  1.188E-04 0.000E+00

     total cpu time spent up to now is        6.5 secs

     total energy              =     -43.88353544 Ry
     Harris-Foulkes estimate   =     -44.15259218 Ry
     estimated scf accuracy    <       0.57765004 Ry

     iteration #  3     ecut=   150.00 Ry     beta= 0.70
     Davidson diagonalization with overlap
     ethr =  5.58E-03,  avg # of iterations =  1.0

     negative rho (up, down):  3.884E-04 0.000E+00

     total cpu time spent up to now is        7.6 secs

     total energy              =     -43.90670553 Ry
     Harris-Foulkes estimate   =     -43.94922056 Ry
     estimated scf accuracy    <       0.07225844 Ry

     iteration #  4     ecut=   150.00 Ry     beta= 0.70
     Davidson diagonalization with overlap
     ethr =  9.03E-04,  avg # of iterations =  3.0

     negative rho (up, down):  2.072E-05 0.000E+00

     total cpu time spent up to now is        9.2 secs

     total energy              =     -44.01450365 Ry
     Harris-Foulkes estimate   =     -44.07221621 Ry
     estimated scf accuracy    <       0.19262763 Ry

     iteration #  5     ecut=   150.00 Ry     beta= 0.70
     Davidson diagonalization with overlap
     ethr =  9.03E-04,  avg # of iterations =  1.0

     negative rho (up, down):  2.863E-05 0.000E+00

     total cpu time spent up to now is       10.4 secs

     total energy              =     -44.00446425 Ry
     Harris-Foulkes estimate   =     -44.02065806 Ry
     estimated scf accuracy    <       0.07378466 Ry

     iteration #  6     ecut=   150.00 Ry     beta= 0.70
     Davidson diagonalization with overlap
     ethr =  9.03E-04,  avg # of iterations =  2.0

     negative rho (up, down):  3.244E-05 0.000E+00

     total cpu time spent up to now is       11.7 secs

     total energy              =     -44.01894644 Ry
     Harris-Foulkes estimate   =     -44.01878146 Ry
     estimated scf accuracy    <       0.00495144 Ry

     iteration #  7     ecut=   150.00 Ry     beta= 0.70
     Davidson diagonalization with overlap
     ethr =  6.19E-05,  avg # of iterations = 13.0

     negative rho (up, down):  2.707E-05 0.000E+00

     total cpu time spent up to now is       13.5 secs

     total energy              =     -44.01992093 Ry
     Harris-Foulkes estimate   =     -44.01931817 Ry
     estimated scf accuracy    <       0.00521168 Ry

     iteration #  8     ecut=   150.00 Ry     beta= 0.70
     Davidson diagonalization with overlap
     ethr =  6.19E-05,  avg # of iterations =  1.0

     negative rho (up, down):  1.279E-04 0.000E+00

     total cpu time spent up to now is       14.8 secs

     total energy              =     -44.01726121 Ry
     Harris-Foulkes estimate   =     -44.01994998 Ry
     estimated scf accuracy    <       0.00666779 Ry

     iteration #  9     ecut=   150.00 Ry     beta= 0.70
     Davidson diagonalization with overlap
     ethr =  6.19E-05,  avg # of iterations =  1.0

     negative rho (up, down):  2.100E-04 0.000E+00

     total cpu time spent up to now is       16.1 secs

     total energy              =     -44.01719341 Ry
     Harris-Foulkes estimate   =     -44.01766844 Ry
     estimated scf accuracy    <       0.00130451 Ry

     iteration # 10     ecut=   150.00 Ry     beta= 0.70
     Davidson diagonalization with overlap
     ethr =  1.63E-05,  avg # of iterations =  4.0

     negative rho (up, down):  2.260E-04 0.000E+00

     total cpu time spent up to now is       17.7 secs

     total energy              =     -44.01404104 Ry
     Harris-Foulkes estimate   =     -44.01403616 Ry
     estimated scf accuracy    <       0.00037956 Ry

     iteration # 11     ecut=   150.00 Ry     beta= 0.70
     Davidson diagonalization with overlap
     ethr =  4.74E-06,  avg # of iterations =  1.0

     negative rho (up, down):  2.359E-04 0.000E+00

     total cpu time spent up to now is       19.1 secs

     total energy              =     -44.01400038 Ry
     Harris-Foulkes estimate   =     -44.01405038 Ry
     estimated scf accuracy    <       0.00038531 Ry

     iteration # 12     ecut=   150.00 Ry     beta= 0.70
     Davidson diagonalization with overlap
     ethr =  4.74E-06,  avg # of iterations =  1.0

     negative rho (up, down):  2.864E-04 0.000E+00

     total cpu time spent up to now is       20.4 secs

     total energy              =     -44.01391441 Ry
     Harris-Foulkes estimate   =     -44.01400607 Ry
     estimated scf accuracy    <       0.00026711 Ry

     iteration # 13     ecut=   150.00 Ry     beta= 0.70
     Davidson diagonalization with overlap
     ethr =  3.34E-06,  avg # of iterations =  3.0

     negative rho (up, down):  2.907E-04 0.000E+00

     total cpu time spent up to now is       21.9 secs

     total energy              =     -44.01803653 Ry
     Harris-Foulkes estimate   =     -44.01803774 Ry
     estimated scf accuracy    <       0.00006688 Ry

     iteration # 14     ecut=   150.00 Ry     beta= 0.70
     Davidson diagonalization with overlap
     ethr =  8.36E-07,  avg # of iterations =  3.0

     negative rho (up, down):  2.924E-04 0.000E+00

     total cpu time spent up to now is       23.3 secs

     total energy              =     -44.01806557 Ry
     Harris-Foulkes estimate   =     -44.01806045 Ry
     estimated scf accuracy    <       0.00009670 Ry

     iteration # 15     ecut=   150.00 Ry     beta= 0.70
     Davidson diagonalization with overlap
     ethr =  8.36E-07,  avg # of iterations =  1.0

     negative rho (up, down):  3.399E-04 0.000E+00

     total cpu time spent up to now is       24.8 secs

     total energy              =     -44.01826569 Ry
     Harris-Foulkes estimate   =     -44.01806621 Ry
     estimated scf accuracy    <       0.00010974 Ry

     iteration # 16     ecut=   150.00 Ry     beta= 0.70
     Davidson diagonalization with overlap
     ethr =  8.36E-07,  avg # of iterations =  5.0

     negative rho (up, down):  3.032E-04 0.000E+00

     total cpu time spent up to now is       26.7 secs

     total energy              =     -44.01785979 Ry
     Harris-Foulkes estimate   =     -44.01848518 Ry
     estimated scf accuracy    <       0.00172282 Ry

     iteration # 17     ecut=   150.00 Ry     beta= 0.70
     Davidson diagonalization with overlap
     ethr =  8.36E-07,  avg # of iterations =  4.0

     negative rho (up, down):  2.906E-04 0.000E+00

     total cpu time spent up to now is       28.3 secs

     total energy              =     -44.01801683 Ry
     Harris-Foulkes estimate   =     -44.01805278 Ry
     estimated scf accuracy    <       0.00007793 Ry

     iteration # 18     ecut=   150.00 Ry     beta= 0.70
     Davidson diagonalization with overlap
     ethr =  8.36E-07,  avg # of iterations =  1.0

     negative rho (up, down):  2.864E-04 0.000E+00

     total cpu time spent up to now is       29.4 secs

     total energy              =     -44.01801937 Ry
     Harris-Foulkes estimate   =     -44.01802338 Ry
     estimated scf accuracy    <       0.00001043 Ry

     iteration # 19     ecut=   150.00 Ry     beta= 0.70
     Davidson diagonalization with overlap
     ethr =  1.30E-07,  avg # of iterations =  3.0

     negative rho (up, down):  2.927E-04 0.000E+00

     total cpu time spent up to now is       30.6 secs

     total energy              =     -44.01802773 Ry
     Harris-Foulkes estimate   =     -44.01803597 Ry
     estimated scf accuracy    <       0.00001363 Ry

     iteration # 20     ecut=   150.00 Ry     beta= 0.70
     Davidson diagonalization with overlap
     ethr =  1.30E-07,  avg # of iterations =  3.0

     negative rho (up, down):  2.919E-04 0.000E+00

     total cpu time spent up to now is       31.6 secs

     total energy              =     -44.01803124 Ry
     Harris-Foulkes estimate   =     -44.01803110 Ry
     estimated scf accuracy    <       0.00000021 Ry

     iteration # 21     ecut=   150.00 Ry     beta= 0.70
     Davidson diagonalization with overlap
     ethr =  2.64E-09,  avg # of iterations =  4.0

     negative rho (up, down):  2.909E-04 0.000E+00

     total cpu time spent up to now is       32.8 secs

     total energy              =     -44.01803306 Ry
     Harris-Foulkes estimate   =     -44.01803408 Ry
     estimated scf accuracy    <       0.00000652 Ry

     iteration # 22     ecut=   150.00 Ry     beta= 0.70
     Davidson diagonalization with overlap
     ethr =  2.64E-09,  avg # of iterations =  4.0

     negative rho (up, down):  2.910E-04 0.000E+00

     total cpu time spent up to now is       33.9 secs

     total energy              =     -44.01803336 Ry
     Harris-Foulkes estimate   =     -44.01803316 Ry
     estimated scf accuracy    <       0.00000337 Ry

     iteration # 23     ecut=   150.00 Ry     beta= 0.70
     Davidson diagonalization with overlap
     ethr =  2.64E-09,  avg # of iterations =  1.0

     negative rho (up, down):  2.909E-04 0.000E+00

     total cpu time spent up to now is       34.9 secs

     total energy              =     -44.01803336 Ry
     Harris-Foulkes estimate   =     -44.01803337 Ry
     estimated scf accuracy    <       0.00000384 Ry

     iteration # 24     ecut=   150.00 Ry     beta= 0.70
     Davidson diagonalization with overlap
     ethr =  2.64E-09,  avg # of iterations =  1.0

     negative rho (up, down):  2.900E-04 0.000E+00

     total cpu time spent up to now is       35.9 secs

     total energy              =     -44.01803258 Ry
     Harris-Foulkes estimate   =     -44.01803336 Ry
     estimated scf accuracy    <       0.00000379 Ry

     iteration # 25     ecut=   150.00 Ry     beta= 0.70
     Davidson diagonalization with overlap
     ethr =  2.64E-09,  avg # of iterations =  4.0

     negative rho (up, down):  2.897E-04 0.000E+00

     total cpu time spent up to now is       37.0 secs

     total energy              =     -44.01803246 Ry
     Harris-Foulkes estimate   =     -44.01803271 Ry
     estimated scf accuracy    <       0.00000126 Ry

     iteration # 26     ecut=   150.00 Ry     beta= 0.70
     Davidson diagonalization with overlap
     ethr =  2.64E-09,  avg # of iterations =  1.0

     negative rho (up, down):  2.891E-04 0.000E+00

     total cpu time spent up to now is       38.0 secs

     total energy              =     -44.01803214 Ry
     Harris-Foulkes estimate   =     -44.01803248 Ry
     estimated scf accuracy    <       0.00000074 Ry

     iteration # 27     ecut=   150.00 Ry     beta= 0.70
     Davidson diagonalization with overlap
     ethr =  2.64E-09,  avg # of iterations =  3.0

     negative rho (up, down):  2.892E-04 0.000E+00

     total cpu time spent up to now is       39.1 secs

     total energy              =     -44.01803239 Ry
     Harris-Foulkes estimate   =     -44.01803240 Ry
     estimated scf accuracy    <       0.00000006 Ry

     iteration # 28     ecut=   150.00 Ry     beta= 0.70
     Davidson diagonalization with overlap
     ethr =  7.81E-10,  avg # of iterations =  1.0

     negative rho (up, down):  2.894E-04 0.000E+00

     total cpu time spent up to now is       40.1 secs

     total energy              =     -44.01803237 Ry
     Harris-Foulkes estimate   =     -44.01803239 Ry
     estimated scf accuracy    <       0.00000005 Ry

     iteration # 29     ecut=   150.00 Ry     beta= 0.70
     Davidson diagonalization with overlap
     ethr =  6.17E-10,  avg # of iterations =  1.0

     negative rho (up, down):  2.894E-04 0.000E+00

     total cpu time spent up to now is       41.0 secs

     End of self-consistent calculation

          k = 0.0000 0.0000 0.0000 (248049 PWs)   bands (ev):

   -24.4294 -12.7422  -8.7076  -6.9494  -1.1854   0.1994   0.5026   0.9532

     the Fermi energy is    -5.0523 ev

!    total energy              =     -44.01803237 Ry
     Harris-Foulkes estimate   =     -44.01803238 Ry
     estimated scf accuracy    <          7.1E-09 Ry

     total all-electron energy =      -152.864914 Ry

     The total energy is the sum of the following terms:

     one-electron contribution =     -62.54174943 Ry
     hartree contribution      =      32.99841416 Ry
     xc contribution           =      -8.74099195 Ry
     ewald contribution        =       3.85257249 Ry
     one-center paw contrib.   =      -9.58627764 Ry
     smearing contrib. (-TS)   =       0.00000000 Ry

     convergence has been achieved in  29 iterations

     Writing output data file pwscf.save
 
     init_run     :      2.32s CPU      2.48s WALL (       1 calls)
     electrons    :     32.77s CPU     37.69s WALL (       1 calls)

     Called by init_run:
     wfcinit      :      0.23s CPU      0.25s WALL (       1 calls)
     potinit      :      0.48s CPU      0.51s WALL (       1 calls)

     Called by electrons:
     c_bands      :     13.04s CPU     13.68s WALL (      29 calls)
     sum_band     :      6.90s CPU      7.82s WALL (      29 calls)
     v_of_rho     :      5.94s CPU      6.26s WALL (      30 calls)
     newd         :      2.65s CPU      3.21s WALL (      30 calls)
     PAW_pot      :      0.57s CPU      0.61s WALL (      30 calls)
     mix_rho      :      3.35s CPU      5.58s WALL (      29 calls)

     Called by c_bands:
     init_us_2    :      0.17s CPU      0.17s WALL (      59 calls)
     cegterg      :     12.80s CPU     13.40s WALL (      29 calls)

     Called by sum_band:
     sum_band:bec :      0.00s CPU      0.00s WALL (      29 calls)
     addusdens    :      3.27s CPU      3.97s WALL (      29 calls)

     Called by *egterg:
     h_psi        :     11.86s CPU     12.39s WALL (     111 calls)
     s_psi        :      0.06s CPU      0.06s WALL (     111 calls)
     g_psi        :      0.03s CPU      0.03s WALL (      81 calls)
     cdiaghg      :      0.05s CPU      0.05s WALL (     110 calls)

     Called by h_psi:
     h_psi:pot    :     11.81s CPU     12.33s WALL (     111 calls)
     h_psi:calbec :      0.54s CPU      0.60s WALL (     111 calls)
     vloc_psi     :     11.21s CPU     11.68s WALL (     111 calls)
     add_vuspsi   :      0.05s CPU      0.06s WALL (     111 calls)

     General routines
     calbec       :      0.65s CPU      0.72s WALL (     140 calls)
     fft          :      6.27s CPU      6.67s WALL (     389 calls)
     fftw         :     11.74s CPU     12.30s WALL (    1450 calls)
     davcio       :      0.33s CPU      2.32s WALL (     487 calls)
 
     Parallel routines
     fft_scatt_xy :      2.29s CPU      2.32s WALL (    1839 calls)
     fft_scatt_yz :      6.19s CPU      6.94s WALL (    1839 calls)
 
     PWSCF        :    35.98s CPU        41.51s WALL

 
   This run was terminated on:  14:30:42  18May2018            

=------------------------------------------------------------------------------=
   JOB DONE.
=------------------------------------------------------------------------------=
