
     Program PWSCF v.6.2 (svn rev. 14038) starts on 18May2018 at 14:31:17 

     This program is part of the open-source Quantum ESPRESSO suite
     for quantum simulation of materials; please cite
         "P. Giannozzi et al., J. Phys.:Condens. Matter 21 395502 (2009);
         "P. Giannozzi et al., J. Phys.:Condens. Matter 29 465901 (2017);
          URL http://www.quantum-espresso.org", 
     in publications or presentations arising from this work. More details at
     http://www.quantum-espresso.org/quote

     Parallel version (MPI), running on    28 processors

     MPI processes distributed on     1 nodes
     R & G space division:  proc/nbgrp/npool/nimage =      28
     Reading input from ../ecut2-150/17500.in
Warning: card &IONS ignored
Warning: card     POT_EXTRAPOLATION='SECOND-ORDER' ignored
Warning: card     WFC_EXTRAPOLATION='SECOND-ORDER' ignored
Warning: card     ION_TEMPERATURE = 'ANDERSEN' ignored
Warning: card / ignored

     Current dimensions of program PWSCF are:
     Max number of different atomic species (ntypx) = 10
     Max number of k-points (npk) =  40000
     Max angular momentum in pseudopotentials (lmaxx) =  3
               file H.pbe-kjpaw_psl.1.0.0.UPF: wavefunction(s)  1S renormalized
               file O.pbe-n-kjpaw_psl.1.0.0.UPF: wavefunction(s)  2S 2P renormalized

     Subspace diagonalization in iterative solution of the eigenvalue problem:
     a serial algorithm will be used

 
     Parallelization info
     --------------------
     sticks:   dense  smooth     PW     G-vecs:    dense   smooth      PW
     Min         681     681    170                70897    70897    8858
     Max         682     682    171                70904    70904    8861
     Sum       19089   19089   4765              1985227  1985227  248049
 


     bravais-lattice index     =            1
     lattice parameter (alat)  =      20.0000  a.u.
     unit-cell volume          =    8000.0000 (a.u.)^3
     number of atoms/cell      =            3
     number of atomic types    =            2
     number of electrons       =         8.00
     number of Kohn-Sham states=            8
     kinetic-energy cutoff     =     150.0000  Ry
     charge density cutoff     =     600.0000  Ry
     convergence threshold     =      1.0E-08
     mixing beta               =       0.7000
     number of iterations used =            8  plain     mixing
     Exchange-correlation      = SLA PW PBX PBC ( 1  4  3  4 0 0)

     celldm(1)=  20.000000  celldm(2)=   0.000000  celldm(3)=   0.000000
     celldm(4)=   0.000000  celldm(5)=   0.000000  celldm(6)=   0.000000

     crystal axes: (cart. coord. in units of alat)
               a(1) = (   1.000000   0.000000   0.000000 )  
               a(2) = (   0.000000   1.000000   0.000000 )  
               a(3) = (   0.000000   0.000000   1.000000 )  

     reciprocal axes: (cart. coord. in units 2 pi/alat)
               b(1) = (  1.000000  0.000000  0.000000 )  
               b(2) = (  0.000000  1.000000  0.000000 )  
               b(3) = (  0.000000  0.000000  1.000000 )  


     PseudoPot. # 1 for H  read from file:
     ../pslibrary/pbe/PSEUDOPOTENTIALS/H.pbe-kjpaw_psl.1.0.0.UPF
     MD5 check sum: e77ef4e89cfa2d6a63e4c80bb1a147aa
     Pseudo is Projector augmented-wave, Zval =  1.0
     Generated using "atomic" code by A. Dal Corso v.6.2 svn rev. 14038
     Shape of augmentation charge: PSQ
     Using radial grid of  929 points,  2 beta functions with: 
                l(1) =   0
                l(2) =   0
     Q(r) pseudized with 0 coefficients 


     PseudoPot. # 2 for O  read from file:
     ../pslibrary/pbe/PSEUDOPOTENTIALS/O.pbe-n-kjpaw_psl.1.0.0.UPF
     MD5 check sum: bb09017f9a02654af35f7312a94eda3e
     Pseudo is Projector augmented-wave + core cor, Zval =  6.0
     Generated using "atomic" code by A. Dal Corso v.6.2 svn rev. 14038
     Shape of augmentation charge: PSQ
     Using radial grid of 1095 points,  4 beta functions with: 
                l(1) =   0
                l(2) =   0
                l(3) =   1
                l(4) =   1
     Q(r) pseudized with 0 coefficients 


     atomic species   valence    mass     pseudopotential
        H              1.00     1.01000     H ( 1.00)
        O              6.00    16.00000     O ( 1.00)

     No symmetry found



   Cartesian axes

     site n.     atom                  positions (alat units)
         1           O   tau(   1) = (   0.0020818  -0.0034151  -0.0001502  )
         2           H   tau(   2) = (   0.0238464   0.0985053   0.1224133  )
         3           H   tau(   3) = (  -0.0568252  -0.0444050  -0.0316687  )

     number of k points=     1  Marzari-Vanderbilt smearing, width (Ry)=  0.0250
                       cart. coord. in units 2pi/alat
        k(    1) = (   0.0000000   0.0000000   0.0000000), wk =   2.0000000

     Dense  grid:  1985227 G-vectors     FFT dimensions: ( 160, 160, 160)

     Estimated max dynamical RAM per process >      79.84 MB

     Estimated total dynamical RAM >       2.18 GB

     Initial potential from superposition of free atoms
     Check: negative starting charge=   -0.000133

     starting charge    7.99998, renormalised to    8.00000

     negative rho (up, down):  1.332E-04 0.000E+00
     Starting wfc are    6 randomized atomic wfcs +    2 random wfc
     Checking if some PAW data can be deallocated... 

     total cpu time spent up to now is        3.3 secs

     Self-consistent Calculation

     iteration #  1     ecut=   150.00 Ry     beta= 0.70
     Davidson diagonalization with overlap
     ethr =  1.00E-02,  avg # of iterations =  7.0

     negative rho (up, down):  2.746E-04 0.000E+00

     total cpu time spent up to now is        4.8 secs

     total energy              =     -43.17787684 Ry
     Harris-Foulkes estimate   =     -43.91807379 Ry
     estimated scf accuracy    <       0.97009074 Ry

     iteration #  2     ecut=   150.00 Ry     beta= 0.70
     Davidson diagonalization with overlap
     ethr =  1.00E-02,  avg # of iterations =  4.0

     negative rho (up, down):  6.543E-05 0.000E+00

     total cpu time spent up to now is        5.8 secs

     total energy              =     -43.10536559 Ry
     Harris-Foulkes estimate   =     -44.52340352 Ry
     estimated scf accuracy    <       4.28643128 Ry

     iteration #  3     ecut=   150.00 Ry     beta= 0.70
     Davidson diagonalization with overlap
     ethr =  1.00E-02,  avg # of iterations =  3.0

     negative rho (up, down):  4.646E-05 0.000E+00

     total cpu time spent up to now is        6.8 secs

     total energy              =     -43.51685340 Ry
     Harris-Foulkes estimate   =     -43.53103926 Ry
     estimated scf accuracy    <       0.08719594 Ry

     iteration #  4     ecut=   150.00 Ry     beta= 0.70
     Davidson diagonalization with overlap
     ethr =  1.09E-03,  avg # of iterations =  4.0

     negative rho (up, down):  7.915E-05 0.000E+00

     total cpu time spent up to now is        7.8 secs

     total energy              =     -43.66554197 Ry
     Harris-Foulkes estimate   =     -43.67931503 Ry
     estimated scf accuracy    <       0.05750165 Ry

     iteration #  5     ecut=   150.00 Ry     beta= 0.70
     Davidson diagonalization with overlap
     ethr =  7.19E-04,  avg # of iterations =  1.0

     negative rho (up, down):  2.078E-04 0.000E+00

     total cpu time spent up to now is        8.8 secs

     total energy              =     -43.66482255 Ry
     Harris-Foulkes estimate   =     -43.66807742 Ry
     estimated scf accuracy    <       0.01136978 Ry

     iteration #  6     ecut=   150.00 Ry     beta= 0.70
     Davidson diagonalization with overlap
     ethr =  1.42E-04,  avg # of iterations =  8.0

     negative rho (up, down):  1.801E-04 0.000E+00

     total cpu time spent up to now is        9.9 secs

     total energy              =     -43.66483534 Ry
     Harris-Foulkes estimate   =     -43.66584905 Ry
     estimated scf accuracy    <       0.00483951 Ry

     iteration #  7     ecut=   150.00 Ry     beta= 0.70
     Davidson diagonalization with overlap
     ethr =  6.05E-05,  avg # of iterations =  3.0

     negative rho (up, down):  1.871E-04 0.000E+00

     total cpu time spent up to now is       11.0 secs

     total energy              =     -43.66561832 Ry
     Harris-Foulkes estimate   =     -43.66564055 Ry
     estimated scf accuracy    <       0.00048583 Ry

     iteration #  8     ecut=   150.00 Ry     beta= 0.70
     Davidson diagonalization with overlap
     ethr =  6.07E-06,  avg # of iterations =  8.0

     negative rho (up, down):  2.485E-04 0.000E+00

     total cpu time spent up to now is       12.3 secs

     total energy              =     -43.66593031 Ry
     Harris-Foulkes estimate   =     -43.66595431 Ry
     estimated scf accuracy    <       0.00020803 Ry

     iteration #  9     ecut=   150.00 Ry     beta= 0.70
     Davidson diagonalization with overlap
     ethr =  2.60E-06,  avg # of iterations =  1.0

     negative rho (up, down):  2.555E-04 0.000E+00

     total cpu time spent up to now is       13.4 secs

     total energy              =     -43.66592221 Ry
     Harris-Foulkes estimate   =     -43.66594077 Ry
     estimated scf accuracy    <       0.00011931 Ry

     iteration # 10     ecut=   150.00 Ry     beta= 0.70
     Davidson diagonalization with overlap
     ethr =  1.49E-06,  avg # of iterations =  1.0

     negative rho (up, down):  2.507E-04 0.000E+00

     total cpu time spent up to now is       14.5 secs

     total energy              =     -43.66591690 Ry
     Harris-Foulkes estimate   =     -43.66592396 Ry
     estimated scf accuracy    <       0.00006769 Ry

     iteration # 11     ecut=   150.00 Ry     beta= 0.70
     Davidson diagonalization with overlap
     ethr =  8.46E-07,  avg # of iterations =  1.0

     negative rho (up, down):  2.503E-04 0.000E+00

     total cpu time spent up to now is       15.7 secs

     total energy              =     -43.66591390 Ry
     Harris-Foulkes estimate   =     -43.66591797 Ry
     estimated scf accuracy    <       0.00004422 Ry

     iteration # 12     ecut=   150.00 Ry     beta= 0.70
     Davidson diagonalization with overlap
     ethr =  5.53E-07,  avg # of iterations =  1.0

     negative rho (up, down):  2.628E-04 0.000E+00

     total cpu time spent up to now is       16.9 secs

     total energy              =     -43.66590650 Ry
     Harris-Foulkes estimate   =     -43.66591509 Ry
     estimated scf accuracy    <       0.00002766 Ry

     iteration # 13     ecut=   150.00 Ry     beta= 0.70
     Davidson diagonalization with overlap
     ethr =  3.46E-07,  avg # of iterations =  4.0

     negative rho (up, down):  2.639E-04 0.000E+00

     total cpu time spent up to now is       18.4 secs

     total energy              =     -43.66591357 Ry
     Harris-Foulkes estimate   =     -43.66591363 Ry
     estimated scf accuracy    <       0.00000033 Ry

     iteration # 14     ecut=   150.00 Ry     beta= 0.70
     Davidson diagonalization with overlap
     ethr =  4.08E-09,  avg # of iterations =  4.0

     negative rho (up, down):  2.641E-04 0.000E+00

     total cpu time spent up to now is       19.8 secs

     total energy              =     -43.66591413 Ry
     Harris-Foulkes estimate   =     -43.66591419 Ry
     estimated scf accuracy    <       0.00000039 Ry

     iteration # 15     ecut=   150.00 Ry     beta= 0.70
     Davidson diagonalization with overlap
     ethr =  4.08E-09,  avg # of iterations =  1.0

     negative rho (up, down):  2.651E-04 0.000E+00

     total cpu time spent up to now is       20.9 secs

     total energy              =     -43.66591401 Ry
     Harris-Foulkes estimate   =     -43.66591413 Ry
     estimated scf accuracy    <       0.00000026 Ry

     iteration # 16     ecut=   150.00 Ry     beta= 0.70
     Davidson diagonalization with overlap
     ethr =  3.26E-09,  avg # of iterations =  3.0

     negative rho (up, down):  2.648E-04 0.000E+00

     total cpu time spent up to now is       22.2 secs

     total energy              =     -43.66591408 Ry
     Harris-Foulkes estimate   =     -43.66591410 Ry
     estimated scf accuracy    <       0.00000004 Ry

     iteration # 17     ecut=   150.00 Ry     beta= 0.70
     Davidson diagonalization with overlap
     ethr =  5.46E-10,  avg # of iterations =  3.0

     negative rho (up, down):  2.648E-04 0.000E+00

     total cpu time spent up to now is       23.5 secs

     total energy              =     -43.66591408 Ry
     Harris-Foulkes estimate   =     -43.66591409 Ry
     estimated scf accuracy    <       0.00000002 Ry

     iteration # 18     ecut=   150.00 Ry     beta= 0.70
     Davidson diagonalization with overlap
     ethr =  1.98E-10,  avg # of iterations =  2.0

     negative rho (up, down):  2.648E-04 0.000E+00

     total cpu time spent up to now is       24.5 secs

     End of self-consistent calculation

          k = 0.0000 0.0000 0.0000 (248049 PWs)   bands (ev):

   -24.5978 -11.5916  -7.5821  -6.6168  -5.0822  -0.3143   0.5501   0.8928

     the Fermi energy is    -6.3035 ev

!    total energy              =     -43.66591409 Ry
     Harris-Foulkes estimate   =     -43.66591409 Ry
     estimated scf accuracy    <          7.5E-10 Ry

     total all-electron energy =      -152.512795 Ry

     The total energy is the sum of the following terms:

     one-electron contribution =     -60.15874628 Ry
     hartree contribution      =      31.91844633 Ry
     xc contribution           =      -8.63829863 Ry
     ewald contribution        =       2.79930512 Ry
     one-center paw contrib.   =      -9.59070230 Ry
     smearing contrib. (-TS)   =       0.00408167 Ry

     convergence has been achieved in  18 iterations

     Writing output data file pwscf.save
 
     init_run     :      2.06s CPU      2.17s WALL (       1 calls)
     electrons    :     18.69s CPU     21.37s WALL (       1 calls)

     Called by init_run:
     wfcinit      :      0.22s CPU      0.24s WALL (       1 calls)
     potinit      :      0.44s CPU      0.46s WALL (       1 calls)

     Called by electrons:
     c_bands      :      7.56s CPU      7.72s WALL (      18 calls)
     sum_band     :      4.01s CPU      4.62s WALL (      18 calls)
     v_of_rho     :      3.36s CPU      3.52s WALL (      19 calls)
     newd         :      1.49s CPU      1.84s WALL (      19 calls)
     PAW_pot      :      0.23s CPU      0.25s WALL (      19 calls)
     mix_rho      :      1.95s CPU      3.14s WALL (      18 calls)

     Called by c_bands:
     init_us_2    :      0.11s CPU      0.11s WALL (      37 calls)
     cegterg      :      7.43s CPU      7.55s WALL (      18 calls)

     Called by sum_band:
     sum_band:bec :      0.00s CPU      0.00s WALL (      18 calls)
     addusdens    :      1.96s CPU      2.45s WALL (      18 calls)

     Called by *egterg:
     h_psi        :      7.05s CPU      7.15s WALL (      78 calls)
     s_psi        :      0.04s CPU      0.04s WALL (      78 calls)
     g_psi        :      0.02s CPU      0.02s WALL (      59 calls)
     cdiaghg      :      0.05s CPU      0.05s WALL (      77 calls)

     Called by h_psi:
     h_psi:pot    :      7.02s CPU      7.12s WALL (      78 calls)
     h_psi:calbec :      0.29s CPU      0.31s WALL (      78 calls)
     vloc_psi     :      6.69s CPU      6.78s WALL (      78 calls)
     add_vuspsi   :      0.04s CPU      0.04s WALL (      78 calls)

     General routines
     calbec       :      0.32s CPU      0.34s WALL (      96 calls)
     fft          :      3.39s CPU      3.64s WALL (     246 calls)
     fftw         :      6.95s CPU      7.11s WALL (     896 calls)
     davcio       :      0.18s CPU      1.24s WALL (     267 calls)
 
     Parallel routines
     fft_scatt_xy :      1.44s CPU      1.45s WALL (    1142 calls)
     fft_scatt_yz :      2.97s CPU      3.32s WALL (    1142 calls)
 
     PWSCF        :    21.99s CPU        25.22s WALL

 
   This run was terminated on:  14:31:42  18May2018            

=------------------------------------------------------------------------------=
   JOB DONE.
=------------------------------------------------------------------------------=
