
     Program PWSCF v.6.2 (svn rev. 14038) starts on 18May2018 at 14:34:38 

     This program is part of the open-source Quantum ESPRESSO suite
     for quantum simulation of materials; please cite
         "P. Giannozzi et al., J. Phys.:Condens. Matter 21 395502 (2009);
         "P. Giannozzi et al., J. Phys.:Condens. Matter 29 465901 (2017);
          URL http://www.quantum-espresso.org", 
     in publications or presentations arising from this work. More details at
     http://www.quantum-espresso.org/quote

     Parallel version (MPI), running on    28 processors

     MPI processes distributed on     1 nodes
     R & G space division:  proc/nbgrp/npool/nimage =      28
     Reading input from ../ecut2-150/20500.in
Warning: card &IONS ignored
Warning: card     POT_EXTRAPOLATION='SECOND-ORDER' ignored
Warning: card     WFC_EXTRAPOLATION='SECOND-ORDER' ignored
Warning: card     ION_TEMPERATURE = 'ANDERSEN' ignored
Warning: card / ignored

     Current dimensions of program PWSCF are:
     Max number of different atomic species (ntypx) = 10
     Max number of k-points (npk) =  40000
     Max angular momentum in pseudopotentials (lmaxx) =  3
               file H.pbe-kjpaw_psl.1.0.0.UPF: wavefunction(s)  1S renormalized
               file O.pbe-n-kjpaw_psl.1.0.0.UPF: wavefunction(s)  2S 2P renormalized

     Subspace diagonalization in iterative solution of the eigenvalue problem:
     a serial algorithm will be used

 
     Parallelization info
     --------------------
     sticks:   dense  smooth     PW     G-vecs:    dense   smooth      PW
     Min         681     681    170                70897    70897    8858
     Max         682     682    171                70904    70904    8861
     Sum       19089   19089   4765              1985227  1985227  248049
 


     bravais-lattice index     =            1
     lattice parameter (alat)  =      20.0000  a.u.
     unit-cell volume          =    8000.0000 (a.u.)^3
     number of atoms/cell      =            3
     number of atomic types    =            2
     number of electrons       =         8.00
     number of Kohn-Sham states=            8
     kinetic-energy cutoff     =     150.0000  Ry
     charge density cutoff     =     600.0000  Ry
     convergence threshold     =      1.0E-08
     mixing beta               =       0.7000
     number of iterations used =            8  plain     mixing
     Exchange-correlation      = SLA PW PBX PBC ( 1  4  3  4 0 0)

     celldm(1)=  20.000000  celldm(2)=   0.000000  celldm(3)=   0.000000
     celldm(4)=   0.000000  celldm(5)=   0.000000  celldm(6)=   0.000000

     crystal axes: (cart. coord. in units of alat)
               a(1) = (   1.000000   0.000000   0.000000 )  
               a(2) = (   0.000000   1.000000   0.000000 )  
               a(3) = (   0.000000   0.000000   1.000000 )  

     reciprocal axes: (cart. coord. in units 2 pi/alat)
               b(1) = (  1.000000  0.000000  0.000000 )  
               b(2) = (  0.000000  1.000000  0.000000 )  
               b(3) = (  0.000000  0.000000  1.000000 )  


     PseudoPot. # 1 for H  read from file:
     ../pslibrary/pbe/PSEUDOPOTENTIALS/H.pbe-kjpaw_psl.1.0.0.UPF
     MD5 check sum: e77ef4e89cfa2d6a63e4c80bb1a147aa
     Pseudo is Projector augmented-wave, Zval =  1.0
     Generated using "atomic" code by A. Dal Corso v.6.2 svn rev. 14038
     Shape of augmentation charge: PSQ
     Using radial grid of  929 points,  2 beta functions with: 
                l(1) =   0
                l(2) =   0
     Q(r) pseudized with 0 coefficients 


     PseudoPot. # 2 for O  read from file:
     ../pslibrary/pbe/PSEUDOPOTENTIALS/O.pbe-n-kjpaw_psl.1.0.0.UPF
     MD5 check sum: bb09017f9a02654af35f7312a94eda3e
     Pseudo is Projector augmented-wave + core cor, Zval =  6.0
     Generated using "atomic" code by A. Dal Corso v.6.2 svn rev. 14038
     Shape of augmentation charge: PSQ
     Using radial grid of 1095 points,  4 beta functions with: 
                l(1) =   0
                l(2) =   0
                l(3) =   1
                l(4) =   1
     Q(r) pseudized with 0 coefficients 


     atomic species   valence    mass     pseudopotential
        H              1.00     1.01000     H ( 1.00)
        O              6.00    16.00000     O ( 1.00)

     No symmetry found



   Cartesian axes

     site n.     atom                  positions (alat units)
         1           O   tau(   1) = (  -0.0063193   0.0021133   0.0042397  )
         2           H   tau(   2) = (   0.0827128   0.0440037  -0.0005397  )
         3           H   tau(   3) = (   0.0173953  -0.0774820   0.0217400  )

     number of k points=     1  Marzari-Vanderbilt smearing, width (Ry)=  0.0250
                       cart. coord. in units 2pi/alat
        k(    1) = (   0.0000000   0.0000000   0.0000000), wk =   2.0000000

     Dense  grid:  1985227 G-vectors     FFT dimensions: ( 160, 160, 160)

     Estimated max dynamical RAM per process >      79.84 MB

     Estimated total dynamical RAM >       2.18 GB

     Initial potential from superposition of free atoms
     Check: negative starting charge=   -0.000147

     starting charge    7.99998, renormalised to    8.00000

     negative rho (up, down):  1.471E-04 0.000E+00
     Starting wfc are    6 randomized atomic wfcs +    2 random wfc
     Checking if some PAW data can be deallocated... 

     total cpu time spent up to now is        2.6 secs

     Self-consistent Calculation

     iteration #  1     ecut=   150.00 Ry     beta= 0.70
     Davidson diagonalization with overlap
     ethr =  1.00E-02,  avg # of iterations =  6.0

     negative rho (up, down):  2.823E-04 0.000E+00

     total cpu time spent up to now is        4.0 secs

     total energy              =     -43.81430986 Ry
     Harris-Foulkes estimate   =     -44.17139655 Ry
     estimated scf accuracy    <       0.48262971 Ry

     iteration #  2     ecut=   150.00 Ry     beta= 0.70
     Davidson diagonalization with overlap
     ethr =  6.03E-03,  avg # of iterations =  3.0

     negative rho (up, down):  1.696E-04 0.000E+00

     total cpu time spent up to now is        5.0 secs

     total energy              =     -43.89847462 Ry
     Harris-Foulkes estimate   =     -44.13242735 Ry
     estimated scf accuracy    <       0.47535887 Ry

     iteration #  3     ecut=   150.00 Ry     beta= 0.70
     Davidson diagonalization with overlap
     ethr =  5.94E-03,  avg # of iterations =  1.0

     negative rho (up, down):  2.819E-04 0.000E+00

     total cpu time spent up to now is        5.9 secs

     total energy              =     -43.93478674 Ry
     Harris-Foulkes estimate   =     -43.96185759 Ry
     estimated scf accuracy    <       0.04628859 Ry

     iteration #  4     ecut=   150.00 Ry     beta= 0.70
     Davidson diagonalization with overlap
     ethr =  5.79E-04,  avg # of iterations =  4.0

     negative rho (up, down):  3.957E-05 0.000E+00

     total cpu time spent up to now is        7.1 secs

     total energy              =     -44.01965350 Ry
     Harris-Foulkes estimate   =     -44.05305891 Ry
     estimated scf accuracy    <       0.11678767 Ry

     iteration #  5     ecut=   150.00 Ry     beta= 0.70
     Davidson diagonalization with overlap
     ethr =  5.79E-04,  avg # of iterations =  1.0

     negative rho (up, down):  4.651E-05 0.000E+00

     total cpu time spent up to now is        8.1 secs

     total energy              =     -44.00742253 Ry
     Harris-Foulkes estimate   =     -44.02229413 Ry
     estimated scf accuracy    <       0.05162925 Ry

     iteration #  6     ecut=   150.00 Ry     beta= 0.70
     Davidson diagonalization with overlap
     ethr =  5.79E-04,  avg # of iterations =  3.0

     negative rho (up, down):  5.019E-05 0.000E+00

     total cpu time spent up to now is        9.1 secs

     total energy              =     -44.01918364 Ry
     Harris-Foulkes estimate   =     -44.01923440 Ry
     estimated scf accuracy    <       0.00122761 Ry

     iteration #  7     ecut=   150.00 Ry     beta= 0.70
     Davidson diagonalization with overlap
     ethr =  1.53E-05,  avg # of iterations =  9.0

     negative rho (up, down):  5.666E-05 0.000E+00

     total cpu time spent up to now is       10.4 secs

     total energy              =     -44.01921955 Ry
     Harris-Foulkes estimate   =     -44.01936649 Ry
     estimated scf accuracy    <       0.00099442 Ry

     iteration #  8     ecut=   150.00 Ry     beta= 0.70
     Davidson diagonalization with overlap
     ethr =  1.24E-05,  avg # of iterations =  1.0

     negative rho (up, down):  1.386E-04 0.000E+00

     total cpu time spent up to now is       11.4 secs

     total energy              =     -44.01907326 Ry
     Harris-Foulkes estimate   =     -44.01923284 Ry
     estimated scf accuracy    <       0.00063999 Ry

     iteration #  9     ecut=   150.00 Ry     beta= 0.70
     Davidson diagonalization with overlap
     ethr =  8.00E-06,  avg # of iterations = 11.0

     negative rho (up, down):  2.356E-04 0.000E+00

     total cpu time spent up to now is       12.6 secs

     total energy              =     -44.01514355 Ry
     Harris-Foulkes estimate   =     -44.01511957 Ry
     estimated scf accuracy    <       0.00031649 Ry

     iteration # 10     ecut=   150.00 Ry     beta= 0.70
     Davidson diagonalization with overlap
     ethr =  3.96E-06,  avg # of iterations =  1.0

     negative rho (up, down):  2.802E-04 0.000E+00

     total cpu time spent up to now is       13.7 secs

     total energy              =     -44.01510614 Ry
     Harris-Foulkes estimate   =     -44.01515430 Ry
     estimated scf accuracy    <       0.00039726 Ry

     iteration # 11     ecut=   150.00 Ry     beta= 0.70
     Davidson diagonalization with overlap
     ethr =  3.96E-06,  avg # of iterations =  1.0

     negative rho (up, down):  2.949E-04 0.000E+00

     total cpu time spent up to now is       14.7 secs

     total energy              =     -44.01506431 Ry
     Harris-Foulkes estimate   =     -44.01510977 Ry
     estimated scf accuracy    <       0.00023666 Ry

     iteration # 12     ecut=   150.00 Ry     beta= 0.70
     Davidson diagonalization with overlap
     ethr =  2.96E-06,  avg # of iterations =  1.0

     negative rho (up, down):  3.221E-04 0.000E+00

     total cpu time spent up to now is       15.6 secs

     total energy              =     -44.01504666 Ry
     Harris-Foulkes estimate   =     -44.01506894 Ry
     estimated scf accuracy    <       0.00011116 Ry

     iteration # 13     ecut=   150.00 Ry     beta= 0.70
     Davidson diagonalization with overlap
     ethr =  1.39E-06,  avg # of iterations =  2.0

     negative rho (up, down):  3.166E-04 0.000E+00

     total cpu time spent up to now is       16.7 secs

     total energy              =     -44.01914217 Ry
     Harris-Foulkes estimate   =     -44.01914356 Ry
     estimated scf accuracy    <       0.00004439 Ry

     iteration # 14     ecut=   150.00 Ry     beta= 0.70
     Davidson diagonalization with overlap
     ethr =  5.55E-07,  avg # of iterations =  1.0

     negative rho (up, down):  3.163E-04 0.000E+00

     total cpu time spent up to now is       17.7 secs

     total energy              =     -44.01506220 Ry
     Harris-Foulkes estimate   =     -44.01506605 Ry
     estimated scf accuracy    <       0.00004829 Ry

     iteration # 15     ecut=   150.00 Ry     beta= 0.70
     Davidson diagonalization with overlap
     ethr =  5.55E-07,  avg # of iterations =  1.0

     negative rho (up, down):  2.964E-04 0.000E+00

     total cpu time spent up to now is       18.7 secs

     total energy              =     -44.01913311 Ry
     Harris-Foulkes estimate   =     -44.01914063 Ry
     estimated scf accuracy    <       0.00002454 Ry

     iteration # 16     ecut=   150.00 Ry     beta= 0.70
     Davidson diagonalization with overlap
     ethr =  3.07E-07,  avg # of iterations =  3.0

     negative rho (up, down):  3.068E-04 0.000E+00

     total cpu time spent up to now is       19.9 secs

     total energy              =     -44.01504771 Ry
     Harris-Foulkes estimate   =     -44.01507706 Ry
     estimated scf accuracy    <       0.00006345 Ry

     iteration # 17     ecut=   150.00 Ry     beta= 0.70
     Davidson diagonalization with overlap
     ethr =  3.07E-07,  avg # of iterations =  6.0

     negative rho (up, down):  3.046E-04 0.000E+00

     total cpu time spent up to now is       21.0 secs

     total energy              =     -44.01913691 Ry
     Harris-Foulkes estimate   =     -44.01913669 Ry
     estimated scf accuracy    <       0.00000016 Ry

     iteration # 18     ecut=   150.00 Ry     beta= 0.70
     Davidson diagonalization with overlap
     ethr =  1.99E-09,  avg # of iterations =  4.0

     negative rho (up, down):  3.049E-04 0.000E+00

     total cpu time spent up to now is       22.2 secs

     total energy              =     -44.01505926 Ry
     Harris-Foulkes estimate   =     -44.01505992 Ry
     estimated scf accuracy    <       0.00000251 Ry

     iteration # 19     ecut=   150.00 Ry     beta= 0.70
     Davidson diagonalization with overlap
     ethr =  1.99E-09,  avg # of iterations =  3.0

     negative rho (up, down):  3.056E-04 0.000E+00

     total cpu time spent up to now is       23.3 secs

     total energy              =     -44.01505907 Ry
     Harris-Foulkes estimate   =     -44.01505938 Ry
     estimated scf accuracy    <       0.00000066 Ry

     iteration # 20     ecut=   150.00 Ry     beta= 0.70
     Davidson diagonalization with overlap
     ethr =  1.99E-09,  avg # of iterations =  4.0

     negative rho (up, down):  3.057E-04 0.000E+00

     total cpu time spent up to now is       24.4 secs

     total energy              =     -44.01505918 Ry
     Harris-Foulkes estimate   =     -44.01505919 Ry
     estimated scf accuracy    <       0.00000005 Ry

     iteration # 21     ecut=   150.00 Ry     beta= 0.70
     Davidson diagonalization with overlap
     ethr =  6.46E-10,  avg # of iterations =  1.0

     negative rho (up, down):  3.058E-04 0.000E+00

     total cpu time spent up to now is       25.4 secs

     total energy              =     -44.01913666 Ry
     Harris-Foulkes estimate   =     -44.01913666 Ry
     estimated scf accuracy    <       0.00000006 Ry

     iteration # 22     ecut=   150.00 Ry     beta= 0.70
     Davidson diagonalization with overlap
     ethr =  6.46E-10,  avg # of iterations =  4.0

     negative rho (up, down):  3.055E-04 0.000E+00

     total cpu time spent up to now is       26.5 secs

     total energy              =     -44.01913664 Ry
     Harris-Foulkes estimate   =     -44.01913667 Ry
     estimated scf accuracy    <       0.00000013 Ry

     iteration # 23     ecut=   150.00 Ry     beta= 0.70
     Davidson diagonalization with overlap
     ethr =  6.46E-10,  avg # of iterations =  1.0

     negative rho (up, down):  3.054E-04 0.000E+00

     total cpu time spent up to now is       27.5 secs

     total energy              =     -44.01913662 Ry
     Harris-Foulkes estimate   =     -44.01913664 Ry
     estimated scf accuracy    <       0.00000005 Ry

     iteration # 24     ecut=   150.00 Ry     beta= 0.70
     Davidson diagonalization with overlap
     ethr =  5.81E-10,  avg # of iterations =  3.0

     negative rho (up, down):  3.054E-04 0.000E+00

     total cpu time spent up to now is       28.4 secs

     End of self-consistent calculation

          k = 0.0000 0.0000 0.0000 (248049 PWs)   bands (ev):

   -25.4096 -12.7072  -9.4664  -7.1571  -1.0228   0.2476   0.6667   0.9517

     the Fermi energy is    -6.8438 ev

!    total energy              =     -44.01505917 Ry
     Harris-Foulkes estimate   =     -44.01505917 Ry
     estimated scf accuracy    <          2.5E-09 Ry

     total all-electron energy =      -152.861941 Ry

     The total energy is the sum of the following terms:

     one-electron contribution =     -64.11240646 Ry
     hartree contribution      =      33.72344071 Ry
     xc contribution           =      -8.86407027 Ry
     ewald contribution        =       4.82157983 Ry
     one-center paw contrib.   =      -9.58768045 Ry
     smearing contrib. (-TS)   =       0.00407747 Ry

     convergence has been achieved in  24 iterations

     Writing output data file pwscf.save
 
     init_run     :      1.66s CPU      1.80s WALL (       1 calls)
     electrons    :     22.72s CPU     25.92s WALL (       1 calls)

     Called by init_run:
     wfcinit      :      0.19s CPU      0.24s WALL (       1 calls)
     potinit      :      0.28s CPU      0.30s WALL (       1 calls)

     Called by electrons:
     c_bands      :      9.20s CPU      9.32s WALL (      24 calls)
     sum_band     :      5.26s CPU      5.84s WALL (      24 calls)
     v_of_rho     :      3.99s CPU      4.17s WALL (      25 calls)
     newd         :      1.89s CPU      2.32s WALL (      25 calls)
     PAW_pot      :      0.21s CPU      0.23s WALL (      25 calls)
     mix_rho      :      2.16s CPU      3.91s WALL (      24 calls)

     Called by c_bands:
     init_us_2    :      0.15s CPU      0.16s WALL (      49 calls)
     cegterg      :      9.05s CPU      9.15s WALL (      24 calls)

     Called by sum_band:
     sum_band:bec :      0.00s CPU      0.00s WALL (      24 calls)
     addusdens    :      2.61s CPU      3.12s WALL (      24 calls)

     Called by *egterg:
     h_psi        :      8.59s CPU      8.68s WALL (     100 calls)
     s_psi        :      0.05s CPU      0.05s WALL (     100 calls)
     g_psi        :      0.03s CPU      0.03s WALL (      75 calls)
     cdiaghg      :      0.02s CPU      0.02s WALL (      99 calls)

     Called by h_psi:
     h_psi:pot    :      8.54s CPU      8.63s WALL (     100 calls)
     h_psi:calbec :      0.10s CPU      0.11s WALL (     100 calls)
     vloc_psi     :      8.39s CPU      8.48s WALL (     100 calls)
     add_vuspsi   :      0.04s CPU      0.04s WALL (     100 calls)

     General routines
     calbec       :      0.13s CPU      0.13s WALL (     124 calls)
     fft          :      4.10s CPU      4.34s WALL (     324 calls)
     fftw         :      8.49s CPU      8.55s WALL (    1228 calls)
     davcio       :      0.27s CPU      1.85s WALL (     387 calls)
 
     Parallel routines
     fft_scatt_xy :      1.95s CPU      1.96s WALL (    1552 calls)
     fft_scatt_yz :      2.44s CPU      2.68s WALL (    1552 calls)
 
     PWSCF        :    25.09s CPU        28.85s WALL

 
   This run was terminated on:  14:35: 7  18May2018            

=------------------------------------------------------------------------------=
   JOB DONE.
=------------------------------------------------------------------------------=
