
     Program PWSCF v.6.2 (svn rev. 14038) starts on 18May2018 at 14:17:36 

     This program is part of the open-source Quantum ESPRESSO suite
     for quantum simulation of materials; please cite
         "P. Giannozzi et al., J. Phys.:Condens. Matter 21 395502 (2009);
         "P. Giannozzi et al., J. Phys.:Condens. Matter 29 465901 (2017);
          URL http://www.quantum-espresso.org", 
     in publications or presentations arising from this work. More details at
     http://www.quantum-espresso.org/quote

     Parallel version (MPI), running on    28 processors

     MPI processes distributed on     1 nodes
     R & G space division:  proc/nbgrp/npool/nimage =      28
     Reading input from ../ecut2-150/4000.in
Warning: card &IONS ignored
Warning: card     POT_EXTRAPOLATION='SECOND-ORDER' ignored
Warning: card     WFC_EXTRAPOLATION='SECOND-ORDER' ignored
Warning: card     ION_TEMPERATURE = 'ANDERSEN' ignored
Warning: card / ignored

     Current dimensions of program PWSCF are:
     Max number of different atomic species (ntypx) = 10
     Max number of k-points (npk) =  40000
     Max angular momentum in pseudopotentials (lmaxx) =  3
               file H.pbe-kjpaw_psl.1.0.0.UPF: wavefunction(s)  1S renormalized
               file O.pbe-n-kjpaw_psl.1.0.0.UPF: wavefunction(s)  2S 2P renormalized

     Subspace diagonalization in iterative solution of the eigenvalue problem:
     a serial algorithm will be used

 
     Parallelization info
     --------------------
     sticks:   dense  smooth     PW     G-vecs:    dense   smooth      PW
     Min         681     681    170                70897    70897    8858
     Max         682     682    171                70904    70904    8861
     Sum       19089   19089   4765              1985227  1985227  248049
 


     bravais-lattice index     =            1
     lattice parameter (alat)  =      20.0000  a.u.
     unit-cell volume          =    8000.0000 (a.u.)^3
     number of atoms/cell      =            3
     number of atomic types    =            2
     number of electrons       =         8.00
     number of Kohn-Sham states=            8
     kinetic-energy cutoff     =     150.0000  Ry
     charge density cutoff     =     600.0000  Ry
     convergence threshold     =      1.0E-08
     mixing beta               =       0.7000
     number of iterations used =            8  plain     mixing
     Exchange-correlation      = SLA PW PBX PBC ( 1  4  3  4 0 0)

     celldm(1)=  20.000000  celldm(2)=   0.000000  celldm(3)=   0.000000
     celldm(4)=   0.000000  celldm(5)=   0.000000  celldm(6)=   0.000000

     crystal axes: (cart. coord. in units of alat)
               a(1) = (   1.000000   0.000000   0.000000 )  
               a(2) = (   0.000000   1.000000   0.000000 )  
               a(3) = (   0.000000   0.000000   1.000000 )  

     reciprocal axes: (cart. coord. in units 2 pi/alat)
               b(1) = (  1.000000  0.000000  0.000000 )  
               b(2) = (  0.000000  1.000000  0.000000 )  
               b(3) = (  0.000000  0.000000  1.000000 )  


     PseudoPot. # 1 for H  read from file:
     ../pslibrary/pbe/PSEUDOPOTENTIALS/H.pbe-kjpaw_psl.1.0.0.UPF
     MD5 check sum: e77ef4e89cfa2d6a63e4c80bb1a147aa
     Pseudo is Projector augmented-wave, Zval =  1.0
     Generated using "atomic" code by A. Dal Corso v.6.2 svn rev. 14038
     Shape of augmentation charge: PSQ
     Using radial grid of  929 points,  2 beta functions with: 
                l(1) =   0
                l(2) =   0
     Q(r) pseudized with 0 coefficients 


     PseudoPot. # 2 for O  read from file:
     ../pslibrary/pbe/PSEUDOPOTENTIALS/O.pbe-n-kjpaw_psl.1.0.0.UPF
     MD5 check sum: bb09017f9a02654af35f7312a94eda3e
     Pseudo is Projector augmented-wave + core cor, Zval =  6.0
     Generated using "atomic" code by A. Dal Corso v.6.2 svn rev. 14038
     Shape of augmentation charge: PSQ
     Using radial grid of 1095 points,  4 beta functions with: 
                l(1) =   0
                l(2) =   0
                l(3) =   1
                l(4) =   1
     Q(r) pseudized with 0 coefficients 


     atomic species   valence    mass     pseudopotential
        H              1.00     1.01000     H ( 1.00)
        O              6.00    16.00000     O ( 1.00)

     No symmetry found



   Cartesian axes

     site n.     atom                  positions (alat units)
         1           O   tau(   1) = (  -0.0016941  -0.0018954  -0.0020678  )
         2           H   tau(   2) = (  -0.0105588  -0.0481291   0.0934797  )
         3           H   tau(   3) = (   0.0373965   0.0781554   0.0276420  )

     number of k points=     1  Marzari-Vanderbilt smearing, width (Ry)=  0.0250
                       cart. coord. in units 2pi/alat
        k(    1) = (   0.0000000   0.0000000   0.0000000), wk =   2.0000000

     Dense  grid:  1985227 G-vectors     FFT dimensions: ( 160, 160, 160)

     Estimated max dynamical RAM per process >      79.84 MB

     Estimated total dynamical RAM >       2.18 GB

     Initial potential from superposition of free atoms
     Check: negative starting charge=   -0.000146

     starting charge    7.99998, renormalised to    8.00000

     negative rho (up, down):  1.461E-04 0.000E+00
     Starting wfc are    6 randomized atomic wfcs +    2 random wfc
     Checking if some PAW data can be deallocated... 

     total cpu time spent up to now is        2.8 secs

     Self-consistent Calculation

     iteration #  1     ecut=   150.00 Ry     beta= 0.70
     Davidson diagonalization with overlap
     ethr =  1.00E-02,  avg # of iterations =  6.0

     negative rho (up, down):  2.712E-04 0.000E+00

     total cpu time spent up to now is        4.1 secs

     total energy              =     -43.81663487 Ry
     Harris-Foulkes estimate   =     -44.13392716 Ry
     estimated scf accuracy    <       0.42896746 Ry

     iteration #  2     ecut=   150.00 Ry     beta= 0.70
     Davidson diagonalization with overlap
     ethr =  5.36E-03,  avg # of iterations =  3.0

     negative rho (up, down):  1.536E-04 0.000E+00

     total cpu time spent up to now is        5.1 secs

     total energy              =     -43.86661052 Ry
     Harris-Foulkes estimate   =     -44.14463492 Ry
     estimated scf accuracy    <       0.60818762 Ry

     iteration #  3     ecut=   150.00 Ry     beta= 0.70
     Davidson diagonalization with overlap
     ethr =  5.36E-03,  avg # of iterations =  1.0

     negative rho (up, down):  3.859E-05 0.000E+00

     total cpu time spent up to now is        6.1 secs

     total energy              =     -43.92704281 Ry
     Harris-Foulkes estimate   =     -43.94936029 Ry
     estimated scf accuracy    <       0.04925136 Ry

     iteration #  4     ecut=   150.00 Ry     beta= 0.70
     Davidson diagonalization with overlap
     ethr =  6.16E-04,  avg # of iterations =  3.0

     negative rho (up, down):  5.767E-05 0.000E+00

     total cpu time spent up to now is        7.2 secs

     total energy              =     -44.00906467 Ry
     Harris-Foulkes estimate   =     -44.03009379 Ry
     estimated scf accuracy    <       0.08237916 Ry

     iteration #  5     ecut=   150.00 Ry     beta= 0.70
     Davidson diagonalization with overlap
     ethr =  6.16E-04,  avg # of iterations =  1.0

     negative rho (up, down):  8.269E-05 0.000E+00

     total cpu time spent up to now is        8.2 secs

     total energy              =     -44.00119350 Ry
     Harris-Foulkes estimate   =     -44.01101118 Ry
     estimated scf accuracy    <       0.03604389 Ry

     iteration #  6     ecut=   150.00 Ry     beta= 0.70
     Davidson diagonalization with overlap
     ethr =  4.51E-04,  avg # of iterations =  2.0

     negative rho (up, down):  8.001E-05 0.000E+00

     total cpu time spent up to now is        9.3 secs

     total energy              =     -44.00794253 Ry
     Harris-Foulkes estimate   =     -44.00793973 Ry
     estimated scf accuracy    <       0.00133905 Ry

     iteration #  7     ecut=   150.00 Ry     beta= 0.70
     Davidson diagonalization with overlap
     ethr =  1.67E-05,  avg # of iterations =  8.0

     negative rho (up, down):  7.951E-05 0.000E+00

     total cpu time spent up to now is       10.6 secs

     total energy              =     -44.00814287 Ry
     Harris-Foulkes estimate   =     -44.00811183 Ry
     estimated scf accuracy    <       0.00124059 Ry

     iteration #  8     ecut=   150.00 Ry     beta= 0.70
     Davidson diagonalization with overlap
     ethr =  1.55E-05,  avg # of iterations =  5.0

     negative rho (up, down):  8.393E-05 0.000E+00

     total cpu time spent up to now is       11.7 secs

     total energy              =     -44.00807426 Ry
     Harris-Foulkes estimate   =     -44.00815180 Ry
     estimated scf accuracy    <       0.00128130 Ry

     iteration #  9     ecut=   150.00 Ry     beta= 0.70
     Davidson diagonalization with overlap
     ethr =  1.55E-05,  avg # of iterations = 18.0

     negative rho (up, down):  9.808E-05 0.000E+00

     total cpu time spent up to now is       13.1 secs

     total energy              =     -44.00808095 Ry
     Harris-Foulkes estimate   =     -44.00808097 Ry
     estimated scf accuracy    <       0.00104242 Ry

     iteration # 10     ecut=   150.00 Ry     beta= 0.70
     Davidson diagonalization with overlap
     ethr =  1.30E-05,  avg # of iterations =  1.0

     negative rho (up, down):  1.369E-04 0.000E+00

     total cpu time spent up to now is       14.2 secs

     total energy              =     -44.00799106 Ry
     Harris-Foulkes estimate   =     -44.00810092 Ry
     estimated scf accuracy    <       0.00102762 Ry

     iteration # 11     ecut=   150.00 Ry     beta= 0.70
     Davidson diagonalization with overlap
     ethr =  1.28E-05,  avg # of iterations =  1.0

     negative rho (up, down):  3.953E-04 0.000E+00

     total cpu time spent up to now is       15.2 secs

     total energy              =     -44.00794670 Ry
     Harris-Foulkes estimate   =     -44.00799660 Ry
     estimated scf accuracy    <       0.00062559 Ry

     iteration # 12     ecut=   150.00 Ry     beta= 0.70
     Davidson diagonalization with overlap
     ethr =  7.82E-06,  avg # of iterations =  5.0

     negative rho (up, down):  5.728E-04 0.000E+00

     total cpu time spent up to now is       16.4 secs

     total energy              =     -44.00814266 Ry
     Harris-Foulkes estimate   =     -44.00806404 Ry
     estimated scf accuracy    <       0.00100278 Ry

     iteration # 13     ecut=   150.00 Ry     beta= 0.70
     Davidson diagonalization with overlap
     ethr =  7.82E-06,  avg # of iterations =  2.0

     negative rho (up, down):  5.118E-04 0.000E+00

     total cpu time spent up to now is       17.5 secs

     total energy              =     -44.00817545 Ry
     Harris-Foulkes estimate   =     -44.00818019 Ry
     estimated scf accuracy    <       0.00162607 Ry

     iteration # 14     ecut=   150.00 Ry     beta= 0.70
     Davidson diagonalization with overlap
     ethr =  7.82E-06,  avg # of iterations =  1.0

     negative rho (up, down):  2.872E-04 0.000E+00

     total cpu time spent up to now is       18.5 secs

     total energy              =     -44.00781210 Ry
     Harris-Foulkes estimate   =     -44.00818121 Ry
     estimated scf accuracy    <       0.00160469 Ry

     iteration # 15     ecut=   150.00 Ry     beta= 0.70
     Davidson diagonalization with overlap
     ethr =  7.82E-06,  avg # of iterations =  4.0

     negative rho (up, down):  2.817E-04 0.000E+00

     total cpu time spent up to now is       19.6 secs

     total energy              =     -44.00784183 Ry
     Harris-Foulkes estimate   =     -44.00788736 Ry
     estimated scf accuracy    <       0.00020210 Ry

     iteration # 16     ecut=   150.00 Ry     beta= 0.70
     Davidson diagonalization with overlap
     ethr =  2.53E-06,  avg # of iterations =  2.0

     negative rho (up, down):  2.841E-04 0.000E+00

     total cpu time spent up to now is       20.7 secs

     total energy              =     -44.00785686 Ry
     Harris-Foulkes estimate   =     -44.00785259 Ry
     estimated scf accuracy    <       0.00009796 Ry

     iteration # 17     ecut=   150.00 Ry     beta= 0.70
     Davidson diagonalization with overlap
     ethr =  1.22E-06,  avg # of iterations =  1.0

     negative rho (up, down):  2.837E-04 0.000E+00

     total cpu time spent up to now is       21.8 secs

     total energy              =     -44.00785888 Ry
     Harris-Foulkes estimate   =     -44.00785931 Ry
     estimated scf accuracy    <       0.00010468 Ry

     iteration # 18     ecut=   150.00 Ry     beta= 0.70
     Davidson diagonalization with overlap
     ethr =  1.22E-06,  avg # of iterations =  1.0

     negative rho (up, down):  2.703E-04 0.000E+00

     total cpu time spent up to now is       22.8 secs

     total energy              =     -44.00783598 Ry
     Harris-Foulkes estimate   =     -44.00786173 Ry
     estimated scf accuracy    <       0.00009652 Ry

     iteration # 19     ecut=   150.00 Ry     beta= 0.70
     Davidson diagonalization with overlap
     ethr =  1.21E-06,  avg # of iterations =  2.0

     negative rho (up, down):  2.899E-04 0.000E+00

     total cpu time spent up to now is       23.8 secs

     total energy              =     -44.00784170 Ry
     Harris-Foulkes estimate   =     -44.00784794 Ry
     estimated scf accuracy    <       0.00002852 Ry

     iteration # 20     ecut=   150.00 Ry     beta= 0.70
     Davidson diagonalization with overlap
     ethr =  3.57E-07,  avg # of iterations =  1.0

     negative rho (up, down):  2.952E-04 0.000E+00

     total cpu time spent up to now is       24.8 secs

     total energy              =     -44.00784103 Ry
     Harris-Foulkes estimate   =     -44.00784354 Ry
     estimated scf accuracy    <       0.00000983 Ry

     iteration # 21     ecut=   150.00 Ry     beta= 0.70
     Davidson diagonalization with overlap
     ethr =  1.23E-07,  avg # of iterations =  3.0

     negative rho (up, down):  2.902E-04 0.000E+00

     total cpu time spent up to now is       26.0 secs

     total energy              =     -44.00784301 Ry
     Harris-Foulkes estimate   =     -44.00784351 Ry
     estimated scf accuracy    <       0.00000117 Ry

     iteration # 22     ecut=   150.00 Ry     beta= 0.70
     Davidson diagonalization with overlap
     ethr =  1.46E-08,  avg # of iterations =  1.0

     negative rho (up, down):  2.886E-04 0.000E+00

     total cpu time spent up to now is       27.0 secs

     total energy              =     -44.00784307 Ry
     Harris-Foulkes estimate   =     -44.00784310 Ry
     estimated scf accuracy    <       0.00000034 Ry

     iteration # 23     ecut=   150.00 Ry     beta= 0.70
     Davidson diagonalization with overlap
     ethr =  4.25E-09,  avg # of iterations =  3.0

     negative rho (up, down):  2.884E-04 0.000E+00

     total cpu time spent up to now is       28.2 secs

     total energy              =     -44.00784322 Ry
     Harris-Foulkes estimate   =     -44.00784330 Ry
     estimated scf accuracy    <       0.00000055 Ry

     iteration # 24     ecut=   150.00 Ry     beta= 0.70
     Davidson diagonalization with overlap
     ethr =  4.25E-09,  avg # of iterations =  1.0

     negative rho (up, down):  2.881E-04 0.000E+00

     total cpu time spent up to now is       29.2 secs

     total energy              =     -44.00784317 Ry
     Harris-Foulkes estimate   =     -44.00784323 Ry
     estimated scf accuracy    <       0.00000041 Ry

     iteration # 25     ecut=   150.00 Ry     beta= 0.70
     Davidson diagonalization with overlap
     ethr =  4.25E-09,  avg # of iterations =  1.0

     negative rho (up, down):  2.882E-04 0.000E+00

     total cpu time spent up to now is       30.2 secs

     total energy              =     -44.00784312 Ry
     Harris-Foulkes estimate   =     -44.00784317 Ry
     estimated scf accuracy    <       0.00000025 Ry

     iteration # 26     ecut=   150.00 Ry     beta= 0.70
     Davidson diagonalization with overlap
     ethr =  3.07E-09,  avg # of iterations =  1.0

     negative rho (up, down):  2.882E-04 0.000E+00

     total cpu time spent up to now is       31.2 secs

     total energy              =     -44.00784306 Ry
     Harris-Foulkes estimate   =     -44.00784312 Ry
     estimated scf accuracy    <       0.00000012 Ry

     iteration # 27     ecut=   150.00 Ry     beta= 0.70
     Davidson diagonalization with overlap
     ethr =  1.55E-09,  avg # of iterations =  3.0

     negative rho (up, down):  2.881E-04 0.000E+00

     total cpu time spent up to now is       32.4 secs

     total energy              =     -44.00784310 Ry
     Harris-Foulkes estimate   =     -44.00784311 Ry
     estimated scf accuracy    <       0.00000002 Ry

     iteration # 28     ecut=   150.00 Ry     beta= 0.70
     Davidson diagonalization with overlap
     ethr =  2.20E-10,  avg # of iterations =  1.0

     negative rho (up, down):  2.881E-04 0.000E+00

     total cpu time spent up to now is       33.2 secs

     End of self-consistent calculation

          k = 0.0000 0.0000 0.0000 (248049 PWs)   bands (ev):

   -24.4780 -11.8827  -9.4432  -6.9931  -1.3326   0.1260   0.4745   0.9404

     the Fermi energy is    -5.0741 ev

!    total energy              =     -44.00784310 Ry
     Harris-Foulkes estimate   =     -44.00784310 Ry
     estimated scf accuracy    <          6.6E-09 Ry

     total all-electron energy =      -152.854724 Ry

     The total energy is the sum of the following terms:

     one-electron contribution =     -62.12015238 Ry
     hartree contribution      =      32.76974746 Ry
     xc contribution           =      -8.70656494 Ry
     ewald contribution        =       3.63836314 Ry
     one-center paw contrib.   =      -9.58923638 Ry
     smearing contrib. (-TS)   =       0.00000000 Ry

     convergence has been achieved in  28 iterations

     Writing output data file pwscf.save
 
     init_run     :      1.67s CPU      1.82s WALL (       1 calls)
     electrons    :     26.81s CPU     30.56s WALL (       1 calls)

     Called by init_run:
     wfcinit      :      0.20s CPU      0.26s WALL (       1 calls)
     potinit      :      0.27s CPU      0.30s WALL (       1 calls)

     Called by electrons:
     c_bands      :     10.05s CPU     10.14s WALL (      28 calls)
     sum_band     :      6.11s CPU      6.77s WALL (      28 calls)
     v_of_rho     :      4.67s CPU      4.88s WALL (      29 calls)
     newd         :      2.18s CPU      2.70s WALL (      29 calls)
     PAW_pot      :      0.25s CPU      0.27s WALL (      29 calls)
     mix_rho      :      3.53s CPU      5.62s WALL (      28 calls)

     Called by c_bands:
     init_us_2    :      0.18s CPU      0.18s WALL (      57 calls)
     cegterg      :      9.87s CPU      9.95s WALL (      28 calls)

     Called by sum_band:
     sum_band:bec :      0.00s CPU      0.00s WALL (      28 calls)
     addusdens    :      3.03s CPU      3.62s WALL (      28 calls)

     Called by *egterg:
     h_psi        :      9.38s CPU      9.44s WALL (     111 calls)
     s_psi        :      0.06s CPU      0.06s WALL (     111 calls)
     g_psi        :      0.03s CPU      0.03s WALL (      82 calls)
     cdiaghg      :      0.03s CPU      0.03s WALL (     110 calls)

     Called by h_psi:
     h_psi:pot    :      9.32s CPU      9.39s WALL (     111 calls)
     h_psi:calbec :      0.13s CPU      0.13s WALL (     111 calls)
     vloc_psi     :      9.15s CPU      9.21s WALL (     111 calls)
     add_vuspsi   :      0.05s CPU      0.05s WALL (     111 calls)

     General routines
     calbec       :      0.16s CPU      0.17s WALL (     139 calls)
     fft          :      4.67s CPU      5.02s WALL (     376 calls)
     fftw         :      9.47s CPU      9.54s WALL (    1350 calls)
     davcio       :      0.33s CPU      2.19s WALL (     467 calls)
 
     Parallel routines
     fft_scatt_xy :      2.21s CPU      2.23s WALL (    1726 calls)
     fft_scatt_yz :      2.96s CPU      3.31s WALL (    1726 calls)
 
     PWSCF        :    29.27s CPU        33.63s WALL

 
   This run was terminated on:  14:18:10  18May2018            

=------------------------------------------------------------------------------=
   JOB DONE.
=------------------------------------------------------------------------------=
