
     Program PWSCF v.6.2 (svn rev. 14038) starts on 18May2018 at 14:18:10 

     This program is part of the open-source Quantum ESPRESSO suite
     for quantum simulation of materials; please cite
         "P. Giannozzi et al., J. Phys.:Condens. Matter 21 395502 (2009);
         "P. Giannozzi et al., J. Phys.:Condens. Matter 29 465901 (2017);
          URL http://www.quantum-espresso.org", 
     in publications or presentations arising from this work. More details at
     http://www.quantum-espresso.org/quote

     Parallel version (MPI), running on    28 processors

     MPI processes distributed on     1 nodes
     R & G space division:  proc/nbgrp/npool/nimage =      28
     Reading input from ../ecut2-150/4500.in
Warning: card &IONS ignored
Warning: card     POT_EXTRAPOLATION='SECOND-ORDER' ignored
Warning: card     WFC_EXTRAPOLATION='SECOND-ORDER' ignored
Warning: card     ION_TEMPERATURE = 'ANDERSEN' ignored
Warning: card / ignored

     Current dimensions of program PWSCF are:
     Max number of different atomic species (ntypx) = 10
     Max number of k-points (npk) =  40000
     Max angular momentum in pseudopotentials (lmaxx) =  3
               file H.pbe-kjpaw_psl.1.0.0.UPF: wavefunction(s)  1S renormalized
               file O.pbe-n-kjpaw_psl.1.0.0.UPF: wavefunction(s)  2S 2P renormalized

     Subspace diagonalization in iterative solution of the eigenvalue problem:
     a serial algorithm will be used

 
     Parallelization info
     --------------------
     sticks:   dense  smooth     PW     G-vecs:    dense   smooth      PW
     Min         681     681    170                70897    70897    8858
     Max         682     682    171                70904    70904    8861
     Sum       19089   19089   4765              1985227  1985227  248049
 


     bravais-lattice index     =            1
     lattice parameter (alat)  =      20.0000  a.u.
     unit-cell volume          =    8000.0000 (a.u.)^3
     number of atoms/cell      =            3
     number of atomic types    =            2
     number of electrons       =         8.00
     number of Kohn-Sham states=            8
     kinetic-energy cutoff     =     150.0000  Ry
     charge density cutoff     =     600.0000  Ry
     convergence threshold     =      1.0E-08
     mixing beta               =       0.7000
     number of iterations used =            8  plain     mixing
     Exchange-correlation      = SLA PW PBX PBC ( 1  4  3  4 0 0)

     celldm(1)=  20.000000  celldm(2)=   0.000000  celldm(3)=   0.000000
     celldm(4)=   0.000000  celldm(5)=   0.000000  celldm(6)=   0.000000

     crystal axes: (cart. coord. in units of alat)
               a(1) = (   1.000000   0.000000   0.000000 )  
               a(2) = (   0.000000   1.000000   0.000000 )  
               a(3) = (   0.000000   0.000000   1.000000 )  

     reciprocal axes: (cart. coord. in units 2 pi/alat)
               b(1) = (  1.000000  0.000000  0.000000 )  
               b(2) = (  0.000000  1.000000  0.000000 )  
               b(3) = (  0.000000  0.000000  1.000000 )  


     PseudoPot. # 1 for H  read from file:
     ../pslibrary/pbe/PSEUDOPOTENTIALS/H.pbe-kjpaw_psl.1.0.0.UPF
     MD5 check sum: e77ef4e89cfa2d6a63e4c80bb1a147aa
     Pseudo is Projector augmented-wave, Zval =  1.0
     Generated using "atomic" code by A. Dal Corso v.6.2 svn rev. 14038
     Shape of augmentation charge: PSQ
     Using radial grid of  929 points,  2 beta functions with: 
                l(1) =   0
                l(2) =   0
     Q(r) pseudized with 0 coefficients 


     PseudoPot. # 2 for O  read from file:
     ../pslibrary/pbe/PSEUDOPOTENTIALS/O.pbe-n-kjpaw_psl.1.0.0.UPF
     MD5 check sum: bb09017f9a02654af35f7312a94eda3e
     Pseudo is Projector augmented-wave + core cor, Zval =  6.0
     Generated using "atomic" code by A. Dal Corso v.6.2 svn rev. 14038
     Shape of augmentation charge: PSQ
     Using radial grid of 1095 points,  4 beta functions with: 
                l(1) =   0
                l(2) =   0
                l(3) =   1
                l(4) =   1
     Q(r) pseudized with 0 coefficients 


     atomic species   valence    mass     pseudopotential
        H              1.00     1.01000     H ( 1.00)
        O              6.00    16.00000     O ( 1.00)

     No symmetry found



   Cartesian axes

     site n.     atom                  positions (alat units)
         1           O   tau(   1) = (   0.0076969  -0.0021366  -0.0014557  )
         2           H   tau(   2) = (  -0.1212828  -0.0062313   0.0138048  )
         3           H   tau(   3) = (  -0.0006486   0.0400783   0.0976189  )

     number of k points=     1  Marzari-Vanderbilt smearing, width (Ry)=  0.0250
                       cart. coord. in units 2pi/alat
        k(    1) = (   0.0000000   0.0000000   0.0000000), wk =   2.0000000

     Dense  grid:  1985227 G-vectors     FFT dimensions: ( 160, 160, 160)

     Estimated max dynamical RAM per process >      79.84 MB

     Estimated total dynamical RAM >       2.18 GB

     Initial potential from superposition of free atoms
     Check: negative starting charge=   -0.000144

     starting charge    7.99998, renormalised to    8.00000

     negative rho (up, down):  1.437E-04 0.000E+00
     Starting wfc are    6 randomized atomic wfcs +    2 random wfc
     Checking if some PAW data can be deallocated... 

     total cpu time spent up to now is        2.8 secs

     Self-consistent Calculation

     iteration #  1     ecut=   150.00 Ry     beta= 0.70
     Davidson diagonalization with overlap
     ethr =  1.00E-02,  avg # of iterations =  7.0

     negative rho (up, down):  2.508E-04 0.000E+00

     total cpu time spent up to now is        4.0 secs

     total energy              =     -43.65524706 Ry
     Harris-Foulkes estimate   =     -43.97323505 Ry
     estimated scf accuracy    <       0.42632463 Ry

     iteration #  2     ecut=   150.00 Ry     beta= 0.70
     Davidson diagonalization with overlap
     ethr =  5.33E-03,  avg # of iterations =  3.0

     negative rho (up, down):  1.469E-04 0.000E+00

     total cpu time spent up to now is        5.0 secs

     total energy              =     -43.60657148 Ry
     Harris-Foulkes estimate   =     -44.14956943 Ry
     estimated scf accuracy    <       1.50369554 Ry

     iteration #  3     ecut=   150.00 Ry     beta= 0.70
     Davidson diagonalization with overlap
     ethr =  5.33E-03,  avg # of iterations =  1.0

     negative rho (up, down):  1.318E-05 0.000E+00

     total cpu time spent up to now is        5.9 secs

     total energy              =     -43.76925425 Ry
     Harris-Foulkes estimate   =     -43.78703631 Ry
     estimated scf accuracy    <       0.07835757 Ry

     iteration #  4     ecut=   150.00 Ry     beta= 0.70
     Davidson diagonalization with overlap
     ethr =  9.79E-04,  avg # of iterations =  3.0

     negative rho (up, down):  1.896E-05 0.000E+00

     total cpu time spent up to now is        7.0 secs

     total energy              =     -43.87093916 Ry
     Harris-Foulkes estimate   =     -43.88012584 Ry
     estimated scf accuracy    <       0.04858921 Ry

     iteration #  5     ecut=   150.00 Ry     beta= 0.70
     Davidson diagonalization with overlap
     ethr =  6.07E-04,  avg # of iterations =  1.0

     negative rho (up, down):  3.204E-05 0.000E+00

     total cpu time spent up to now is        7.9 secs

     total energy              =     -43.86911894 Ry
     Harris-Foulkes estimate   =     -43.87200918 Ry
     estimated scf accuracy    <       0.02041233 Ry

     iteration #  6     ecut=   150.00 Ry     beta= 0.70
     Davidson diagonalization with overlap
     ethr =  2.55E-04,  avg # of iterations =  1.0

     negative rho (up, down):  3.494E-05 0.000E+00

     total cpu time spent up to now is        8.9 secs

     total energy              =     -43.86928394 Ry
     Harris-Foulkes estimate   =     -43.86961302 Ry
     estimated scf accuracy    <       0.01076629 Ry

     iteration #  7     ecut=   150.00 Ry     beta= 0.70
     Davidson diagonalization with overlap
     ethr =  1.35E-04,  avg # of iterations =  8.0

     negative rho (up, down):  4.257E-05 0.000E+00

     total cpu time spent up to now is       10.0 secs

     total energy              =     -43.86935504 Ry
     Harris-Foulkes estimate   =     -43.86970812 Ry
     estimated scf accuracy    <       0.00681102 Ry

     iteration #  8     ecut=   150.00 Ry     beta= 0.70
     Davidson diagonalization with overlap
     ethr =  8.51E-05,  avg # of iterations =  1.0

     negative rho (up, down):  5.510E-05 0.000E+00

     total cpu time spent up to now is       11.0 secs

     total energy              =     -43.86943420 Ry
     Harris-Foulkes estimate   =     -43.86949449 Ry
     estimated scf accuracy    <       0.00499485 Ry

     iteration #  9     ecut=   150.00 Ry     beta= 0.70
     Davidson diagonalization with overlap
     ethr =  6.24E-05,  avg # of iterations =  1.0

     negative rho (up, down):  1.794E-04 0.000E+00

     total cpu time spent up to now is       12.0 secs

     total energy              =     -43.86854315 Ry
     Harris-Foulkes estimate   =     -43.86948979 Ry
     estimated scf accuracy    <       0.00440835 Ry

     iteration # 10     ecut=   150.00 Ry     beta= 0.70
     Davidson diagonalization with overlap
     ethr =  5.51E-05,  avg # of iterations =  1.0

     negative rho (up, down):  1.832E-04 0.000E+00

     total cpu time spent up to now is       13.0 secs

     total energy              =     -43.86864886 Ry
     Harris-Foulkes estimate   =     -43.86881111 Ry
     estimated scf accuracy    <       0.00120276 Ry

     iteration # 11     ecut=   150.00 Ry     beta= 0.70
     Davidson diagonalization with overlap
     ethr =  1.50E-05,  avg # of iterations =  2.0

     negative rho (up, down):  1.741E-04 0.000E+00

     total cpu time spent up to now is       14.0 secs

     total energy              =     -43.86873567 Ry
     Harris-Foulkes estimate   =     -43.86874866 Ry
     estimated scf accuracy    <       0.00041738 Ry

     iteration # 12     ecut=   150.00 Ry     beta= 0.70
     Davidson diagonalization with overlap
     ethr =  5.22E-06,  avg # of iterations = 11.0

     negative rho (up, down):  2.479E-04 0.000E+00

     total cpu time spent up to now is       15.4 secs

     total energy              =     -43.86873103 Ry
     Harris-Foulkes estimate   =     -43.86879872 Ry
     estimated scf accuracy    <       0.00018371 Ry

     iteration # 13     ecut=   150.00 Ry     beta= 0.70
     Davidson diagonalization with overlap
     ethr =  2.30E-06,  avg # of iterations =  1.0

     negative rho (up, down):  2.505E-04 0.000E+00

     total cpu time spent up to now is       16.4 secs

     total energy              =     -43.86874669 Ry
     Harris-Foulkes estimate   =     -43.86875060 Ry
     estimated scf accuracy    <       0.00001168 Ry

     iteration # 14     ecut=   150.00 Ry     beta= 0.70
     Davidson diagonalization with overlap
     ethr =  1.46E-07,  avg # of iterations =  3.0

     negative rho (up, down):  2.448E-04 0.000E+00

     total cpu time spent up to now is       17.5 secs

     total energy              =     -43.86878538 Ry
     Harris-Foulkes estimate   =     -43.86877321 Ry
     estimated scf accuracy    <       0.00005010 Ry

     iteration # 15     ecut=   150.00 Ry     beta= 0.70
     Davidson diagonalization with overlap
     ethr =  1.46E-07,  avg # of iterations =  1.0

     negative rho (up, down):  2.502E-04 0.000E+00

     total cpu time spent up to now is       18.5 secs

     total energy              =     -43.86876384 Ry
     Harris-Foulkes estimate   =     -43.86878712 Ry
     estimated scf accuracy    <       0.00010034 Ry

     iteration # 16     ecut=   150.00 Ry     beta= 0.70
     Davidson diagonalization with overlap
     ethr =  1.46E-07,  avg # of iterations =  1.0

     negative rho (up, down):  2.525E-04 0.000E+00

     total cpu time spent up to now is       19.5 secs

     total energy              =     -43.86876122 Ry
     Harris-Foulkes estimate   =     -43.86876688 Ry
     estimated scf accuracy    <       0.00003457 Ry

     iteration # 17     ecut=   150.00 Ry     beta= 0.70
     Davidson diagonalization with overlap
     ethr =  1.46E-07,  avg # of iterations =  1.0

     negative rho (up, down):  2.537E-04 0.000E+00

     total cpu time spent up to now is       20.5 secs

     total energy              =     -43.86876120 Ry
     Harris-Foulkes estimate   =     -43.86876199 Ry
     estimated scf accuracy    <       0.00001618 Ry

     iteration # 18     ecut=   150.00 Ry     beta= 0.70
     Davidson diagonalization with overlap
     ethr =  1.46E-07,  avg # of iterations =  2.0

     negative rho (up, down):  2.545E-04 0.000E+00

     total cpu time spent up to now is       21.6 secs

     total energy              =     -43.86876090 Ry
     Harris-Foulkes estimate   =     -43.86876199 Ry
     estimated scf accuracy    <       0.00001027 Ry

     iteration # 19     ecut=   150.00 Ry     beta= 0.70
     Davidson diagonalization with overlap
     ethr =  1.28E-07,  avg # of iterations =  1.0

     negative rho (up, down):  2.572E-04 0.000E+00

     total cpu time spent up to now is       22.6 secs

     total energy              =     -43.86876004 Ry
     Harris-Foulkes estimate   =     -43.86876111 Ry
     estimated scf accuracy    <       0.00000634 Ry

     iteration # 20     ecut=   150.00 Ry     beta= 0.70
     Davidson diagonalization with overlap
     ethr =  7.92E-08,  avg # of iterations =  1.0

     negative rho (up, down):  2.601E-04 0.000E+00

     total cpu time spent up to now is       23.6 secs

     total energy              =     -43.86875930 Ry
     Harris-Foulkes estimate   =     -43.86876045 Ry
     estimated scf accuracy    <       0.00000251 Ry

     iteration # 21     ecut=   150.00 Ry     beta= 0.70
     Davidson diagonalization with overlap
     ethr =  3.14E-08,  avg # of iterations =  3.0

     negative rho (up, down):  2.602E-04 0.000E+00

     total cpu time spent up to now is       24.6 secs

     total energy              =     -43.86876104 Ry
     Harris-Foulkes estimate   =     -43.86876110 Ry
     estimated scf accuracy    <       0.00000092 Ry

     iteration # 22     ecut=   150.00 Ry     beta= 0.70
     Davidson diagonalization with overlap
     ethr =  1.15E-08,  avg # of iterations =  3.0

     negative rho (up, down):  2.596E-04 0.000E+00

     total cpu time spent up to now is       25.7 secs

     total energy              =     -43.86876109 Ry
     Harris-Foulkes estimate   =     -43.86876119 Ry
     estimated scf accuracy    <       0.00000095 Ry

     iteration # 23     ecut=   150.00 Ry     beta= 0.70
     Davidson diagonalization with overlap
     ethr =  1.15E-08,  avg # of iterations =  1.0

     negative rho (up, down):  2.595E-04 0.000E+00

     total cpu time spent up to now is       26.7 secs

     total energy              =     -43.86876108 Ry
     Harris-Foulkes estimate   =     -43.86876110 Ry
     estimated scf accuracy    <       0.00000060 Ry

     iteration # 24     ecut=   150.00 Ry     beta= 0.70
     Davidson diagonalization with overlap
     ethr =  7.45E-09,  avg # of iterations =  1.0

     negative rho (up, down):  2.591E-04 0.000E+00

     total cpu time spent up to now is       27.6 secs

     total energy              =     -43.86876098 Ry
     Harris-Foulkes estimate   =     -43.86876109 Ry
     estimated scf accuracy    <       0.00000055 Ry

     iteration # 25     ecut=   150.00 Ry     beta= 0.70
     Davidson diagonalization with overlap
     ethr =  6.88E-09,  avg # of iterations =  1.0

     negative rho (up, down):  2.587E-04 0.000E+00

     total cpu time spent up to now is       28.6 secs

     total energy              =     -43.86876088 Ry
     Harris-Foulkes estimate   =     -43.86876099 Ry
     estimated scf accuracy    <       0.00000024 Ry

     iteration # 26     ecut=   150.00 Ry     beta= 0.70
     Davidson diagonalization with overlap
     ethr =  3.04E-09,  avg # of iterations =  3.0

     negative rho (up, down):  2.591E-04 0.000E+00

     total cpu time spent up to now is       29.7 secs

     total energy              =     -43.86876096 Ry
     Harris-Foulkes estimate   =     -43.86876098 Ry
     estimated scf accuracy    <       0.00000006 Ry

     iteration # 27     ecut=   150.00 Ry     beta= 0.70
     Davidson diagonalization with overlap
     ethr =  7.91E-10,  avg # of iterations =  1.0

     negative rho (up, down):  2.592E-04 0.000E+00

     total cpu time spent up to now is       30.5 secs

     End of self-consistent calculation

          k = 0.0000 0.0000 0.0000 (248049 PWs)   bands (ev):

   -23.3237 -10.2312  -9.7658  -6.8278  -2.7418  -0.6000   0.0759   0.8804

     the Fermi energy is    -4.8304 ev

!    total energy              =     -43.86876096 Ry
     Harris-Foulkes estimate   =     -43.86876096 Ry
     estimated scf accuracy    <          5.5E-09 Ry

     total all-electron energy =      -152.715642 Ry

     The total energy is the sum of the following terms:

     one-electron contribution =     -58.69183340 Ry
     hartree contribution      =      31.08863632 Ry
     xc contribution           =      -8.45373116 Ry
     ewald contribution        =       1.78338248 Ry
     one-center paw contrib.   =      -9.59521521 Ry
     smearing contrib. (-TS)   =       0.00000000 Ry

     convergence has been achieved in  27 iterations

     Writing output data file pwscf.save
 
     init_run     :      1.89s CPU      2.06s WALL (       1 calls)
     electrons    :     24.43s CPU     28.00s WALL (       1 calls)

     Called by init_run:
     wfcinit      :      0.19s CPU      0.23s WALL (       1 calls)
     potinit      :      0.48s CPU      0.54s WALL (       1 calls)

     Called by electrons:
     c_bands      :      9.18s CPU      9.25s WALL (      27 calls)
     sum_band     :      5.93s CPU      6.55s WALL (      27 calls)
     v_of_rho     :      4.55s CPU      4.77s WALL (      28 calls)
     newd         :      2.10s CPU      2.60s WALL (      28 calls)
     PAW_pot      :      0.24s CPU      0.26s WALL (      28 calls)
     mix_rho      :      2.52s CPU      4.46s WALL (      27 calls)

     Called by c_bands:
     init_us_2    :      0.17s CPU      0.17s WALL (      55 calls)
     cegterg      :      9.01s CPU      9.07s WALL (      27 calls)

     Called by sum_band:
     sum_band:bec :      0.00s CPU      0.00s WALL (      27 calls)
     addusdens    :      2.97s CPU      3.54s WALL (      27 calls)

     Called by *egterg:
     h_psi        :      8.60s CPU      8.64s WALL (      92 calls)
     s_psi        :      0.05s CPU      0.05s WALL (      92 calls)
     g_psi        :      0.02s CPU      0.02s WALL (      64 calls)
     cdiaghg      :      0.02s CPU      0.02s WALL (      91 calls)

     Called by h_psi:
     h_psi:pot    :      8.55s CPU      8.60s WALL (      92 calls)
     h_psi:calbec :      0.14s CPU      0.15s WALL (      92 calls)
     vloc_psi     :      8.36s CPU      8.40s WALL (      92 calls)
     add_vuspsi   :      0.04s CPU      0.04s WALL (      92 calls)

     General routines
     calbec       :      0.17s CPU      0.18s WALL (     119 calls)
     fft          :      4.63s CPU      4.92s WALL (     363 calls)
     fftw         :      8.70s CPU      8.75s WALL (    1242 calls)
     davcio       :      0.31s CPU      2.09s WALL (     447 calls)
 
     Parallel routines
     fft_scatt_xy :      2.04s CPU      2.05s WALL (    1605 calls)
     fft_scatt_yz :      2.76s CPU      3.04s WALL (    1605 calls)
 
     PWSCF        :    27.20s CPU        31.38s WALL

 
   This run was terminated on:  14:18:41  18May2018            

=------------------------------------------------------------------------------=
   JOB DONE.
=------------------------------------------------------------------------------=
