
     Program PWSCF v.6.2 (svn rev. 14038) starts on 18May2018 at 15: 8: 4 

     This program is part of the open-source Quantum ESPRESSO suite
     for quantum simulation of materials; please cite
         "P. Giannozzi et al., J. Phys.:Condens. Matter 21 395502 (2009);
         "P. Giannozzi et al., J. Phys.:Condens. Matter 29 465901 (2017);
          URL http://www.quantum-espresso.org", 
     in publications or presentations arising from this work. More details at
     http://www.quantum-espresso.org/quote

     Parallel version (MPI), running on    28 processors

     MPI processes distributed on     1 nodes
     R & G space division:  proc/nbgrp/npool/nimage =      28
     Reading input from ../ecut2-300/13000.in
Warning: card &IONS ignored
Warning: card     POT_EXTRAPOLATION='SECOND-ORDER' ignored
Warning: card     WFC_EXTRAPOLATION='SECOND-ORDER' ignored
Warning: card     ION_TEMPERATURE = 'ANDERSEN' ignored
Warning: card / ignored

     Current dimensions of program PWSCF are:
     Max number of different atomic species (ntypx) = 10
     Max number of k-points (npk) =  40000
     Max angular momentum in pseudopotentials (lmaxx) =  3
               file H.pbe-kjpaw_psl.1.0.0.UPF: wavefunction(s)  1S renormalized
               file O.pbe-n-kjpaw_psl.1.0.0.UPF: wavefunction(s)  2S 2P renormalized

     Subspace diagonalization in iterative solution of the eigenvalue problem:
     a serial algorithm will be used

 
     Parallelization info
     --------------------
     sticks:   dense  smooth     PW     G-vecs:    dense   smooth      PW
     Min        1364    1364    341               200576   200576   25051
     Max        1365    1365    342               200579   200579   25054
     Sum       38197   38197   9549              5616169  5616169  701475
 


     bravais-lattice index     =            1
     lattice parameter (alat)  =      20.0000  a.u.
     unit-cell volume          =    8000.0000 (a.u.)^3
     number of atoms/cell      =            3
     number of atomic types    =            2
     number of electrons       =         8.00
     number of Kohn-Sham states=            8
     kinetic-energy cutoff     =     300.0000  Ry
     charge density cutoff     =    1200.0000  Ry
     convergence threshold     =      1.0E-08
     mixing beta               =       0.7000
     number of iterations used =            8  plain     mixing
     Exchange-correlation      = SLA PW PBX PBC ( 1  4  3  4 0 0)

     celldm(1)=  20.000000  celldm(2)=   0.000000  celldm(3)=   0.000000
     celldm(4)=   0.000000  celldm(5)=   0.000000  celldm(6)=   0.000000

     crystal axes: (cart. coord. in units of alat)
               a(1) = (   1.000000   0.000000   0.000000 )  
               a(2) = (   0.000000   1.000000   0.000000 )  
               a(3) = (   0.000000   0.000000   1.000000 )  

     reciprocal axes: (cart. coord. in units 2 pi/alat)
               b(1) = (  1.000000  0.000000  0.000000 )  
               b(2) = (  0.000000  1.000000  0.000000 )  
               b(3) = (  0.000000  0.000000  1.000000 )  


     PseudoPot. # 1 for H  read from file:
     ../pslibrary/pbe/PSEUDOPOTENTIALS/H.pbe-kjpaw_psl.1.0.0.UPF
     MD5 check sum: e77ef4e89cfa2d6a63e4c80bb1a147aa
     Pseudo is Projector augmented-wave, Zval =  1.0
     Generated using "atomic" code by A. Dal Corso v.6.2 svn rev. 14038
     Shape of augmentation charge: PSQ
     Using radial grid of  929 points,  2 beta functions with: 
                l(1) =   0
                l(2) =   0
     Q(r) pseudized with 0 coefficients 


     PseudoPot. # 2 for O  read from file:
     ../pslibrary/pbe/PSEUDOPOTENTIALS/O.pbe-n-kjpaw_psl.1.0.0.UPF
     MD5 check sum: bb09017f9a02654af35f7312a94eda3e
     Pseudo is Projector augmented-wave + core cor, Zval =  6.0
     Generated using "atomic" code by A. Dal Corso v.6.2 svn rev. 14038
     Shape of augmentation charge: PSQ
     Using radial grid of 1095 points,  4 beta functions with: 
                l(1) =   0
                l(2) =   0
                l(3) =   1
                l(4) =   1
     Q(r) pseudized with 0 coefficients 


     atomic species   valence    mass     pseudopotential
        H              1.00     1.01000     H ( 1.00)
        O              6.00    16.00000     O ( 1.00)

     No symmetry found



   Cartesian axes

     site n.     atom                  positions (alat units)
         1           O   tau(   1) = (   0.0060535   0.0021101   0.0046109  )
         2           H   tau(   2) = (  -0.0062565  -0.0808981  -0.0131401  )
         3           H   tau(   3) = (  -0.0896404   0.0474709   0.0284593  )

     number of k points=     1  Marzari-Vanderbilt smearing, width (Ry)=  0.0250
                       cart. coord. in units 2pi/alat
        k(    1) = (   0.0000000   0.0000000   0.0000000), wk =   2.0000000

     Dense  grid:  5616169 G-vectors     FFT dimensions: ( 225, 225, 225)

     Estimated max dynamical RAM per process >     222.26 MB

     Estimated total dynamical RAM >       6.08 GB

     Initial potential from superposition of free atoms

     starting charge    7.99998, renormalised to    8.00000

     negative rho (up, down):  3.578E-05 0.000E+00
     Starting wfc are    6 randomized atomic wfcs +    2 random wfc
     Checking if some PAW data can be deallocated... 

     total cpu time spent up to now is        6.8 secs

     Self-consistent Calculation

     iteration #  1     ecut=   300.00 Ry     beta= 0.70
     Davidson diagonalization with overlap
     ethr =  1.00E-02,  avg # of iterations =  6.0

     negative rho (up, down):  1.308E-05 0.000E+00

     total cpu time spent up to now is       11.3 secs

     total energy              =     -43.77583191 Ry
     Harris-Foulkes estimate   =     -44.13748348 Ry
     estimated scf accuracy    <       0.48679516 Ry

     iteration #  2     ecut=   300.00 Ry     beta= 0.70
     Davidson diagonalization with overlap
     ethr =  6.08E-03,  avg # of iterations =  3.0

     total cpu time spent up to now is       15.0 secs

     total energy              =     -43.83823992 Ry
     Harris-Foulkes estimate   =     -44.13776697 Ry
     estimated scf accuracy    <       0.64907993 Ry

     iteration #  3     ecut=   300.00 Ry     beta= 0.70
     Davidson diagonalization with overlap
     ethr =  6.08E-03,  avg # of iterations =  1.0

     total cpu time spent up to now is       18.6 secs

     total energy              =     -43.90682402 Ry
     Harris-Foulkes estimate   =     -43.92854909 Ry
     estimated scf accuracy    <       0.04771467 Ry

     iteration #  4     ecut=   300.00 Ry     beta= 0.70
     Davidson diagonalization with overlap
     ethr =  5.96E-04,  avg # of iterations =  3.0

     total cpu time spent up to now is       22.9 secs

     total energy              =     -43.99310232 Ry
     Harris-Foulkes estimate   =     -44.01240849 Ry
     estimated scf accuracy    <       0.07871999 Ry

     iteration #  5     ecut=   300.00 Ry     beta= 0.70
     Davidson diagonalization with overlap
     ethr =  5.96E-04,  avg # of iterations =  1.0

     total cpu time spent up to now is       26.3 secs

     total energy              =     -43.98271865 Ry
     Harris-Foulkes estimate   =     -43.99452441 Ry
     estimated scf accuracy    <       0.03842969 Ry

     iteration #  6     ecut=   300.00 Ry     beta= 0.70
     Davidson diagonalization with overlap
     ethr =  4.80E-04,  avg # of iterations =  3.0

     total cpu time spent up to now is       30.0 secs

     total energy              =     -43.98869278 Ry
     Harris-Foulkes estimate   =     -43.98901487 Ry
     estimated scf accuracy    <       0.00192673 Ry

     iteration #  7     ecut=   300.00 Ry     beta= 0.70
     Davidson diagonalization with overlap
     ethr =  2.41E-05,  avg # of iterations =  5.0

     total cpu time spent up to now is       34.4 secs

     total energy              =     -43.99012515 Ry
     Harris-Foulkes estimate   =     -43.99014359 Ry
     estimated scf accuracy    <       0.00038135 Ry

     iteration #  8     ecut=   300.00 Ry     beta= 0.70
     Davidson diagonalization with overlap
     ethr =  4.77E-06,  avg # of iterations =  3.0

     total cpu time spent up to now is       38.1 secs

     total energy              =     -43.99003665 Ry
     Harris-Foulkes estimate   =     -43.99013280 Ry
     estimated scf accuracy    <       0.00029679 Ry

     iteration #  9     ecut=   300.00 Ry     beta= 0.70
     Davidson diagonalization with overlap
     ethr =  3.71E-06,  avg # of iterations =  9.0

     negative rho (up, down):  4.244E-06 0.000E+00

     total cpu time spent up to now is       42.4 secs

     total energy              =     -43.98599063 Ry
     Harris-Foulkes estimate   =     -43.98599806 Ry
     estimated scf accuracy    <       0.00003626 Ry

     iteration # 10     ecut=   300.00 Ry     beta= 0.70
     Davidson diagonalization with overlap
     ethr =  4.53E-07,  avg # of iterations =  4.0

     negative rho (up, down):  2.353E-06 0.000E+00

     total cpu time spent up to now is       46.8 secs

     total energy              =     -43.99009447 Ry
     Harris-Foulkes estimate   =     -43.99009792 Ry
     estimated scf accuracy    <       0.00003309 Ry

     iteration # 11     ecut=   300.00 Ry     beta= 0.70
     Davidson diagonalization with overlap
     ethr =  4.14E-07,  avg # of iterations =  1.0

     negative rho (up, down):  1.694E-06 0.000E+00

     total cpu time spent up to now is       50.6 secs

     total energy              =     -43.99008871 Ry
     Harris-Foulkes estimate   =     -43.99009469 Ry
     estimated scf accuracy    <       0.00002503 Ry

     iteration # 12     ecut=   300.00 Ry     beta= 0.70
     Davidson diagonalization with overlap
     ethr =  3.13E-07,  avg # of iterations =  7.0

     negative rho (up, down):  1.871E-05 0.000E+00

     total cpu time spent up to now is       54.7 secs

     total energy              =     -43.99012944 Ry
     Harris-Foulkes estimate   =     -43.99009903 Ry
     estimated scf accuracy    <       0.00003322 Ry

     iteration # 13     ecut=   300.00 Ry     beta= 0.70
     Davidson diagonalization with overlap
     ethr =  3.13E-07,  avg # of iterations =  3.0

     negative rho (up, down):  1.134E-05 0.000E+00

     total cpu time spent up to now is       58.9 secs

     total energy              =     -43.99009289 Ry
     Harris-Foulkes estimate   =     -43.99014691 Ry
     estimated scf accuracy    <       0.00021140 Ry

     iteration # 14     ecut=   300.00 Ry     beta= 0.70
     Davidson diagonalization with overlap
     ethr =  3.13E-07,  avg # of iterations =  3.0

     negative rho (up, down):  8.695E-06 0.000E+00

     total cpu time spent up to now is       62.6 secs

     total energy              =     -43.99008315 Ry
     Harris-Foulkes estimate   =     -43.99009949 Ry
     estimated scf accuracy    <       0.00007725 Ry

     iteration # 15     ecut=   300.00 Ry     beta= 0.70
     Davidson diagonalization with overlap
     ethr =  3.13E-07,  avg # of iterations =  3.0

     negative rho (up, down):  4.718E-06 0.000E+00

     total cpu time spent up to now is       66.5 secs

     total energy              =     -43.99008238 Ry
     Harris-Foulkes estimate   =     -43.99009296 Ry
     estimated scf accuracy    <       0.00001880 Ry

     iteration # 16     ecut=   300.00 Ry     beta= 0.70
     Davidson diagonalization with overlap
     ethr =  2.35E-07,  avg # of iterations =  3.0

     negative rho (up, down):  7.854E-06 0.000E+00

     total cpu time spent up to now is       70.5 secs

     total energy              =     -43.99008591 Ry
     Harris-Foulkes estimate   =     -43.99009530 Ry
     estimated scf accuracy    <       0.00002371 Ry

     iteration # 17     ecut=   300.00 Ry     beta= 0.70
     Davidson diagonalization with overlap
     ethr =  2.35E-07,  avg # of iterations =  1.0

     negative rho (up, down):  5.983E-06 0.000E+00

     total cpu time spent up to now is       74.1 secs

     total energy              =     -43.99008601 Ry
     Harris-Foulkes estimate   =     -43.99008755 Ry
     estimated scf accuracy    <       0.00000494 Ry

     iteration # 18     ecut=   300.00 Ry     beta= 0.70
     Davidson diagonalization with overlap
     ethr =  6.17E-08,  avg # of iterations =  2.0

     negative rho (up, down):  5.616E-06 0.000E+00

     total cpu time spent up to now is       77.9 secs

     total energy              =     -43.99008867 Ry
     Harris-Foulkes estimate   =     -43.99008866 Ry
     estimated scf accuracy    <       0.00000008 Ry

     iteration # 19     ecut=   300.00 Ry     beta= 0.70
     Davidson diagonalization with overlap
     ethr =  1.03E-09,  avg # of iterations =  3.0

     negative rho (up, down):  6.055E-06 0.000E+00

     total cpu time spent up to now is       82.0 secs

     total energy              =     -43.99008885 Ry
     Harris-Foulkes estimate   =     -43.99008877 Ry
     estimated scf accuracy    <       0.00000009 Ry

     iteration # 20     ecut=   300.00 Ry     beta= 0.70
     Davidson diagonalization with overlap
     ethr =  1.03E-09,  avg # of iterations =  4.0

     negative rho (up, down):  6.018E-06 0.000E+00

     total cpu time spent up to now is       86.1 secs

     total energy              =     -43.99008886 Ry
     Harris-Foulkes estimate   =     -43.99008890 Ry
     estimated scf accuracy    <       0.00000056 Ry

     iteration # 21     ecut=   300.00 Ry     beta= 0.70
     Davidson diagonalization with overlap
     ethr =  1.03E-09,  avg # of iterations =  1.0

     negative rho (up, down):  6.317E-06 0.000E+00

     total cpu time spent up to now is       89.9 secs

     total energy              =     -43.99008881 Ry
     Harris-Foulkes estimate   =     -43.99008886 Ry
     estimated scf accuracy    <       0.00000043 Ry

     iteration # 22     ecut=   300.00 Ry     beta= 0.70
     Davidson diagonalization with overlap
     ethr =  1.03E-09,  avg # of iterations =  2.0

     negative rho (up, down):  6.487E-06 0.000E+00

     total cpu time spent up to now is       93.6 secs

     total energy              =     -43.99008878 Ry
     Harris-Foulkes estimate   =     -43.99008881 Ry
     estimated scf accuracy    <       0.00000025 Ry

     iteration # 23     ecut=   300.00 Ry     beta= 0.70
     Davidson diagonalization with overlap
     ethr =  1.03E-09,  avg # of iterations =  1.0

     negative rho (up, down):  7.039E-06 0.000E+00

     total cpu time spent up to now is       97.2 secs

     total energy              =     -43.99008868 Ry
     Harris-Foulkes estimate   =     -43.99008878 Ry
     estimated scf accuracy    <       0.00000016 Ry

     iteration # 24     ecut=   300.00 Ry     beta= 0.70
     Davidson diagonalization with overlap
     ethr =  1.03E-09,  avg # of iterations =  3.0

     negative rho (up, down):  7.007E-06 0.000E+00

     total cpu time spent up to now is      101.5 secs

     total energy              =     -43.99008878 Ry
     Harris-Foulkes estimate   =     -43.99008880 Ry
     estimated scf accuracy    <       0.00000015 Ry

     iteration # 25     ecut=   300.00 Ry     beta= 0.70
     Davidson diagonalization with overlap
     ethr =  1.03E-09,  avg # of iterations =  1.0

     negative rho (up, down):  6.728E-06 0.000E+00

     total cpu time spent up to now is      105.2 secs

     total energy              =     -43.99008872 Ry
     Harris-Foulkes estimate   =     -43.99008878 Ry
     estimated scf accuracy    <       0.00000011 Ry

     iteration # 26     ecut=   300.00 Ry     beta= 0.70
     Davidson diagonalization with overlap
     ethr =  1.03E-09,  avg # of iterations =  5.0

     negative rho (up, down):  6.714E-06 0.000E+00

     total cpu time spent up to now is      109.2 secs

     total energy              =     -43.99008877 Ry
     Harris-Foulkes estimate   =     -43.99008877 Ry
     estimated scf accuracy    <       0.00000004 Ry

     iteration # 27     ecut=   300.00 Ry     beta= 0.70
     Davidson diagonalization with overlap
     ethr =  4.73E-10,  avg # of iterations =  1.0

     negative rho (up, down):  6.587E-06 0.000E+00

     total cpu time spent up to now is      112.8 secs

     total energy              =     -43.99008875 Ry
     Harris-Foulkes estimate   =     -43.99008877 Ry
     estimated scf accuracy    <       0.00000002 Ry

     iteration # 28     ecut=   300.00 Ry     beta= 0.70
     Davidson diagonalization with overlap
     ethr =  2.77E-10,  avg # of iterations =  3.0

     negative rho (up, down):  6.608E-06 0.000E+00

     total cpu time spent up to now is      116.9 secs

     total energy              =     -43.99008876 Ry
     Harris-Foulkes estimate   =     -43.99008877 Ry
     estimated scf accuracy    <       0.00000002 Ry

     iteration # 29     ecut=   300.00 Ry     beta= 0.70
     Davidson diagonalization with overlap
     ethr =  2.37E-10,  avg # of iterations =  1.0

     negative rho (up, down):  6.577E-06 0.000E+00

     total cpu time spent up to now is      119.9 secs

     End of self-consistent calculation

          k = 0.0000 0.0000 0.0000 (701475 PWs)   bands (ev):

   -24.7906 -12.6385  -8.8919  -6.9969  -1.3336   0.1810   0.6334   1.0105

     the Fermi energy is    -5.0997 ev

!    total energy              =     -43.99008876 Ry
     Harris-Foulkes estimate   =     -43.99008876 Ry
     estimated scf accuracy    <          2.4E-09 Ry

     total all-electron energy =      -152.836970 Ry

     The total energy is the sum of the following terms:

     one-electron contribution =     -62.88992489 Ry
     hartree contribution      =      33.15873079 Ry
     xc contribution           =      -8.77451554 Ry
     ewald contribution        =       4.10292727 Ry
     one-center paw contrib.   =      -9.58730638 Ry
     smearing contrib. (-TS)   =       0.00000000 Ry

     convergence has been achieved in  29 iterations

     Writing output data file pwscf.save
 
     init_run     :      5.68s CPU      5.98s WALL (       1 calls)
     electrons    :    102.25s CPU    113.70s WALL (       1 calls)

     Called by init_run:
     wfcinit      :      0.58s CPU      0.65s WALL (       1 calls)
     potinit      :      0.85s CPU      0.90s WALL (       1 calls)

     Called by electrons:
     c_bands      :     40.33s CPU     40.73s WALL (      29 calls)
     sum_band     :     25.84s CPU     27.98s WALL (      29 calls)
     v_of_rho     :     16.89s CPU     17.51s WALL (      30 calls)
     newd         :      8.28s CPU     10.27s WALL (      30 calls)
     PAW_pot      :      0.24s CPU      0.26s WALL (      30 calls)
     mix_rho      :     10.82s CPU     16.66s WALL (      29 calls)

     Called by c_bands:
     init_us_2    :      0.55s CPU      0.58s WALL (      59 calls)
     cegterg      :     39.76s CPU     40.01s WALL (      29 calls)

     Called by sum_band:
     sum_band:bec :      0.00s CPU      0.00s WALL (      29 calls)
     addusdens    :     13.92s CPU     15.88s WALL (      29 calls)

     Called by *egterg:
     h_psi        :     38.03s CPU     38.25s WALL (     116 calls)
     s_psi        :      0.26s CPU      0.26s WALL (     116 calls)
     g_psi        :      0.09s CPU      0.09s WALL (      86 calls)
     cdiaghg      :      0.03s CPU      0.03s WALL (     115 calls)

     Called by h_psi:
     h_psi:pot    :     37.77s CPU     37.99s WALL (     116 calls)
     h_psi:calbec :      0.47s CPU      0.50s WALL (     116 calls)
     vloc_psi     :     37.06s CPU     37.24s WALL (     116 calls)
     add_vuspsi   :      0.24s CPU      0.25s WALL (     116 calls)

     General routines
     calbec       :      0.52s CPU      0.55s WALL (     145 calls)
     fft          :     20.62s CPU     21.70s WALL (     389 calls)
     fftw         :     40.04s CPU     40.24s WALL (    1446 calls)
     davcio       :      0.88s CPU      6.19s WALL (     487 calls)
 
     Parallel routines
     fft_scatt_xy :     13.84s CPU     13.88s WALL (    1835 calls)
     fft_scatt_yz :     15.52s CPU     16.63s WALL (    1835 calls)
 
     PWSCF        :  1m48.95s CPU     2m 2.03s WALL

 
   This run was terminated on:  15:10: 6  18May2018            

=------------------------------------------------------------------------------=
   JOB DONE.
=------------------------------------------------------------------------------=
