
     Program PWSCF v.6.2 (svn rev. 14038) starts on 18May2018 at 14:28:57 

     This program is part of the open-source Quantum ESPRESSO suite
     for quantum simulation of materials; please cite
         "P. Giannozzi et al., J. Phys.:Condens. Matter 21 395502 (2009);
         "P. Giannozzi et al., J. Phys.:Condens. Matter 29 465901 (2017);
          URL http://www.quantum-espresso.org", 
     in publications or presentations arising from this work. More details at
     http://www.quantum-espresso.org/quote

     Parallel version (MPI), running on    28 processors

     MPI processes distributed on     1 nodes
     R & G space division:  proc/nbgrp/npool/nimage =      28
     Reading input from ../ecut2-300/1500.in
Warning: card &IONS ignored
Warning: card     POT_EXTRAPOLATION='SECOND-ORDER' ignored
Warning: card     WFC_EXTRAPOLATION='SECOND-ORDER' ignored
Warning: card     ION_TEMPERATURE = 'ANDERSEN' ignored
Warning: card / ignored

     Current dimensions of program PWSCF are:
     Max number of different atomic species (ntypx) = 10
     Max number of k-points (npk) =  40000
     Max angular momentum in pseudopotentials (lmaxx) =  3
               file H.pbe-kjpaw_psl.1.0.0.UPF: wavefunction(s)  1S renormalized
               file O.pbe-n-kjpaw_psl.1.0.0.UPF: wavefunction(s)  2S 2P renormalized

     Subspace diagonalization in iterative solution of the eigenvalue problem:
     a serial algorithm will be used

 
     Parallelization info
     --------------------
     sticks:   dense  smooth     PW     G-vecs:    dense   smooth      PW
     Min        1364    1364    341               200576   200576   25051
     Max        1365    1365    342               200579   200579   25054
     Sum       38197   38197   9549              5616169  5616169  701475
 


     bravais-lattice index     =            1
     lattice parameter (alat)  =      20.0000  a.u.
     unit-cell volume          =    8000.0000 (a.u.)^3
     number of atoms/cell      =            3
     number of atomic types    =            2
     number of electrons       =         8.00
     number of Kohn-Sham states=            8
     kinetic-energy cutoff     =     300.0000  Ry
     charge density cutoff     =    1200.0000  Ry
     convergence threshold     =      1.0E-08
     mixing beta               =       0.7000
     number of iterations used =            8  plain     mixing
     Exchange-correlation      = SLA PW PBX PBC ( 1  4  3  4 0 0)

     celldm(1)=  20.000000  celldm(2)=   0.000000  celldm(3)=   0.000000
     celldm(4)=   0.000000  celldm(5)=   0.000000  celldm(6)=   0.000000

     crystal axes: (cart. coord. in units of alat)
               a(1) = (   1.000000   0.000000   0.000000 )  
               a(2) = (   0.000000   1.000000   0.000000 )  
               a(3) = (   0.000000   0.000000   1.000000 )  

     reciprocal axes: (cart. coord. in units 2 pi/alat)
               b(1) = (  1.000000  0.000000  0.000000 )  
               b(2) = (  0.000000  1.000000  0.000000 )  
               b(3) = (  0.000000  0.000000  1.000000 )  


     PseudoPot. # 1 for H  read from file:
     ../pslibrary/pbe/PSEUDOPOTENTIALS/H.pbe-kjpaw_psl.1.0.0.UPF
     MD5 check sum: e77ef4e89cfa2d6a63e4c80bb1a147aa
     Pseudo is Projector augmented-wave, Zval =  1.0
     Generated using "atomic" code by A. Dal Corso v.6.2 svn rev. 14038
     Shape of augmentation charge: PSQ
     Using radial grid of  929 points,  2 beta functions with: 
                l(1) =   0
                l(2) =   0
     Q(r) pseudized with 0 coefficients 


     PseudoPot. # 2 for O  read from file:
     ../pslibrary/pbe/PSEUDOPOTENTIALS/O.pbe-n-kjpaw_psl.1.0.0.UPF
     MD5 check sum: bb09017f9a02654af35f7312a94eda3e
     Pseudo is Projector augmented-wave + core cor, Zval =  6.0
     Generated using "atomic" code by A. Dal Corso v.6.2 svn rev. 14038
     Shape of augmentation charge: PSQ
     Using radial grid of 1095 points,  4 beta functions with: 
                l(1) =   0
                l(2) =   0
                l(3) =   1
                l(4) =   1
     Q(r) pseudized with 0 coefficients 


     atomic species   valence    mass     pseudopotential
        H              1.00     1.01000     H ( 1.00)
        O              6.00    16.00000     O ( 1.00)

     No symmetry found



   Cartesian axes

     site n.     atom                  positions (alat units)
         1           O   tau(   1) = (   0.0009662  -0.0034870   0.0073677  )
         2           H   tau(   2) = (  -0.0508194  -0.0285106  -0.0545074  )
         3           H   tau(   3) = (   0.0355134   0.0837497   0.0261563  )

     number of k points=     1  Marzari-Vanderbilt smearing, width (Ry)=  0.0250
                       cart. coord. in units 2pi/alat
        k(    1) = (   0.0000000   0.0000000   0.0000000), wk =   2.0000000

     Dense  grid:  5616169 G-vectors     FFT dimensions: ( 225, 225, 225)

     Estimated max dynamical RAM per process >     222.26 MB

     Estimated total dynamical RAM >       6.08 GB

     Initial potential from superposition of free atoms

     starting charge    7.99998, renormalised to    8.00000

     negative rho (up, down):  3.572E-05 0.000E+00
     Starting wfc are    6 randomized atomic wfcs +    2 random wfc
     Checking if some PAW data can be deallocated... 

     total cpu time spent up to now is        6.8 secs

     Self-consistent Calculation

     iteration #  1     ecut=   300.00 Ry     beta= 0.70
     Davidson diagonalization with overlap
     ethr =  1.00E-02,  avg # of iterations =  6.0

     negative rho (up, down):  1.283E-05 0.000E+00

     total cpu time spent up to now is       11.5 secs

     total energy              =     -43.78306896 Ry
     Harris-Foulkes estimate   =     -44.17015008 Ry
     estimated scf accuracy    <       0.52074472 Ry

     iteration #  2     ecut=   300.00 Ry     beta= 0.70
     Davidson diagonalization with overlap
     ethr =  6.51E-03,  avg # of iterations =  3.0

     negative rho (up, down):  2.783E-06 0.000E+00

     total cpu time spent up to now is       15.4 secs

     total energy              =     -43.87062946 Ry
     Harris-Foulkes estimate   =     -44.14628001 Ry
     estimated scf accuracy    <       0.57684245 Ry

     iteration #  3     ecut=   300.00 Ry     beta= 0.70
     Davidson diagonalization with overlap
     ethr =  6.51E-03,  avg # of iterations =  1.0

     negative rho (up, down):  7.722E-04 0.000E+00

     total cpu time spent up to now is       18.8 secs

     total energy              =     -43.87780928 Ry
     Harris-Foulkes estimate   =     -43.92860243 Ry
     estimated scf accuracy    <       0.07698071 Ry

     iteration #  4     ecut=   300.00 Ry     beta= 0.70
     Davidson diagonalization with overlap
     ethr =  9.62E-04,  avg # of iterations =  4.0

     total cpu time spent up to now is       23.2 secs

     total energy              =     -43.99176923 Ry
     Harris-Foulkes estimate   =     -44.08230771 Ry
     estimated scf accuracy    <       0.27084450 Ry

     iteration #  5     ecut=   300.00 Ry     beta= 0.70
     Davidson diagonalization with overlap
     ethr =  9.62E-04,  avg # of iterations =  1.0

     total cpu time spent up to now is       27.1 secs

     total energy              =     -43.99318505 Ry
     Harris-Foulkes estimate   =     -44.00029587 Ry
     estimated scf accuracy    <       0.09960398 Ry

     iteration #  6     ecut=   300.00 Ry     beta= 0.70
     Davidson diagonalization with overlap
     ethr =  9.62E-04,  avg # of iterations =  4.0

     total cpu time spent up to now is       30.9 secs

     total energy              =     -44.00456013 Ry
     Harris-Foulkes estimate   =     -44.00466383 Ry
     estimated scf accuracy    <       0.03779839 Ry

     iteration #  7     ecut=   300.00 Ry     beta= 0.70
     Davidson diagonalization with overlap
     ethr =  4.72E-04,  avg # of iterations =  1.0

     total cpu time spent up to now is       34.5 secs

     total energy              =     -44.00620579 Ry
     Harris-Foulkes estimate   =     -44.00550794 Ry
     estimated scf accuracy    <       0.03469255 Ry

     iteration #  8     ecut=   300.00 Ry     beta= 0.70
     Davidson diagonalization with overlap
     ethr =  4.34E-04,  avg # of iterations =  1.0

     total cpu time spent up to now is       38.1 secs

     total energy              =     -44.00480752 Ry
     Harris-Foulkes estimate   =     -44.00683150 Ry
     estimated scf accuracy    <       0.03477110 Ry

     iteration #  9     ecut=   300.00 Ry     beta= 0.70
     Davidson diagonalization with overlap
     ethr =  4.34E-04,  avg # of iterations =  1.0

     negative rho (up, down):  2.535E-04 0.000E+00

     total cpu time spent up to now is       41.8 secs

     total energy              =     -44.01012335 Ry
     Harris-Foulkes estimate   =     -44.00540455 Ry
     estimated scf accuracy    <       0.02858223 Ry

     iteration # 10     ecut=   300.00 Ry     beta= 0.70
     Davidson diagonalization with overlap
     ethr =  3.57E-04,  avg # of iterations =  1.0

     negative rho (up, down):  1.983E-03 0.000E+00

     total cpu time spent up to now is       45.5 secs

     total energy              =     -44.01045262 Ry
     Harris-Foulkes estimate   =     -44.01048190 Ry
     estimated scf accuracy    <       0.03841413 Ry

     iteration # 11     ecut=   300.00 Ry     beta= 0.70
     Davidson diagonalization with overlap
     ethr =  3.57E-04,  avg # of iterations =  1.0

     negative rho (up, down):  1.960E-03 0.000E+00

     total cpu time spent up to now is       49.2 secs

     total energy              =     -44.01062944 Ry
     Harris-Foulkes estimate   =     -44.01075553 Ry
     estimated scf accuracy    <       0.03910586 Ry

     iteration # 12     ecut=   300.00 Ry     beta= 0.70
     Davidson diagonalization with overlap
     ethr =  3.57E-04,  avg # of iterations =  1.0

     negative rho (up, down):  1.975E-03 0.000E+00

     total cpu time spent up to now is       52.9 secs

     total energy              =     -44.01012591 Ry
     Harris-Foulkes estimate   =     -44.01078289 Ry
     estimated scf accuracy    <       0.03894709 Ry

     iteration # 13     ecut=   300.00 Ry     beta= 0.70
     Davidson diagonalization with overlap
     ethr =  3.57E-04,  avg # of iterations =  1.0

     negative rho (up, down):  1.857E-03 0.000E+00

     total cpu time spent up to now is       56.6 secs

     total energy              =     -44.00852556 Ry
     Harris-Foulkes estimate   =     -44.01029407 Ry
     estimated scf accuracy    <       0.03594268 Ry

     iteration # 14     ecut=   300.00 Ry     beta= 0.70
     Davidson diagonalization with overlap
     ethr =  3.57E-04,  avg # of iterations =  1.0

     negative rho (up, down):  1.681E-06 0.000E+00

     total cpu time spent up to now is       60.3 secs

     total energy              =     -43.98728956 Ry
     Harris-Foulkes estimate   =     -44.00865851 Ry
     estimated scf accuracy    <       0.03198882 Ry

     iteration # 15     ecut=   300.00 Ry     beta= 0.70
     Davidson diagonalization with overlap
     ethr =  3.57E-04,  avg # of iterations =  3.0

     negative rho (up, down):  2.642E-06 0.000E+00

     total cpu time spent up to now is       64.6 secs

     total energy              =     -43.99717953 Ry
     Harris-Foulkes estimate   =     -44.00253704 Ry
     estimated scf accuracy    <       0.01885930 Ry

     iteration # 16     ecut=   300.00 Ry     beta= 0.70
     Davidson diagonalization with overlap
     ethr =  2.36E-04,  avg # of iterations =  1.0

     negative rho (up, down):  1.144E-07 0.000E+00

     total cpu time spent up to now is       68.4 secs

     total energy              =     -43.99442927 Ry
     Harris-Foulkes estimate   =     -43.99759829 Ry
     estimated scf accuracy    <       0.00855347 Ry

     iteration # 17     ecut=   300.00 Ry     beta= 0.70
     Davidson diagonalization with overlap
     ethr =  1.07E-04,  avg # of iterations =  3.0

     negative rho (up, down):  2.794E-06 0.000E+00

     total cpu time spent up to now is       72.5 secs

     total energy              =     -44.00140694 Ry
     Harris-Foulkes estimate   =     -44.00146251 Ry
     estimated scf accuracy    <       0.00018730 Ry

     iteration # 18     ecut=   300.00 Ry     beta= 0.70
     Davidson diagonalization with overlap
     ethr =  2.34E-06,  avg # of iterations = 10.0

     negative rho (up, down):  3.021E-06 0.000E+00

     total cpu time spent up to now is       77.5 secs

     total energy              =     -44.00141563 Ry
     Harris-Foulkes estimate   =     -44.00142357 Ry
     estimated scf accuracy    <       0.00007176 Ry

     iteration # 19     ecut=   300.00 Ry     beta= 0.70
     Davidson diagonalization with overlap
     ethr =  8.97E-07,  avg # of iterations =  2.0

     negative rho (up, down):  1.305E-05 0.000E+00

     total cpu time spent up to now is       81.3 secs

     total energy              =     -44.00142519 Ry
     Harris-Foulkes estimate   =     -44.00142469 Ry
     estimated scf accuracy    <       0.00005200 Ry

     iteration # 20     ecut=   300.00 Ry     beta= 0.70
     Davidson diagonalization with overlap
     ethr =  6.50E-07,  avg # of iterations =  1.0

     negative rho (up, down):  4.589E-06 0.000E+00

     total cpu time spent up to now is       85.0 secs

     total energy              =     -44.00141611 Ry
     Harris-Foulkes estimate   =     -44.00143119 Ry
     estimated scf accuracy    <       0.00007640 Ry

     iteration # 21     ecut=   300.00 Ry     beta= 0.70
     Davidson diagonalization with overlap
     ethr =  6.50E-07,  avg # of iterations =  2.0

     negative rho (up, down):  1.975E-05 0.000E+00

     total cpu time spent up to now is       88.9 secs

     total energy              =     -44.00142742 Ry
     Harris-Foulkes estimate   =     -44.00142878 Ry
     estimated scf accuracy    <       0.00005666 Ry

     iteration # 22     ecut=   300.00 Ry     beta= 0.70
     Davidson diagonalization with overlap
     ethr =  6.50E-07,  avg # of iterations =  1.0

     negative rho (up, down):  8.222E-05 0.000E+00

     total cpu time spent up to now is       92.6 secs

     total energy              =     -44.00154702 Ry
     Harris-Foulkes estimate   =     -44.00142890 Ry
     estimated scf accuracy    <       0.00005694 Ry

     iteration # 23     ecut=   300.00 Ry     beta= 0.70
     Davidson diagonalization with overlap
     ethr =  6.50E-07,  avg # of iterations = 12.0

     negative rho (up, down):  8.623E-06 0.000E+00

     total cpu time spent up to now is       97.7 secs

     total energy              =     -44.00131742 Ry
     Harris-Foulkes estimate   =     -44.00167584 Ry
     estimated scf accuracy    <       0.00093694 Ry

     iteration # 24     ecut=   300.00 Ry     beta= 0.70
     Davidson diagonalization with overlap
     ethr =  6.50E-07,  avg # of iterations =  4.0

     negative rho (up, down):  6.858E-06 0.000E+00

     total cpu time spent up to now is      102.1 secs

     total energy              =     -44.00140748 Ry
     Harris-Foulkes estimate   =     -44.00142600 Ry
     estimated scf accuracy    <       0.00003997 Ry

     iteration # 25     ecut=   300.00 Ry     beta= 0.70
     Davidson diagonalization with overlap
     ethr =  5.00E-07,  avg # of iterations =  1.0

     negative rho (up, down):  6.075E-06 0.000E+00

     total cpu time spent up to now is      105.9 secs

     total energy              =     -44.00140609 Ry
     Harris-Foulkes estimate   =     -44.00141037 Ry
     estimated scf accuracy    <       0.00000621 Ry

     iteration # 26     ecut=   300.00 Ry     beta= 0.70
     Davidson diagonalization with overlap
     ethr =  7.76E-08,  avg # of iterations =  4.0

     negative rho (up, down):  6.478E-06 0.000E+00

     total cpu time spent up to now is      110.3 secs

     total energy              =     -44.00141451 Ry
     Harris-Foulkes estimate   =     -44.00142122 Ry
     estimated scf accuracy    <       0.00002211 Ry

     iteration # 27     ecut=   300.00 Ry     beta= 0.70
     Davidson diagonalization with overlap
     ethr =  7.76E-08,  avg # of iterations =  1.0

     negative rho (up, down):  7.130E-06 0.000E+00

     total cpu time spent up to now is      114.0 secs

     total energy              =     -44.00140922 Ry
     Harris-Foulkes estimate   =     -44.00141507 Ry
     estimated scf accuracy    <       0.00000913 Ry

     iteration # 28     ecut=   300.00 Ry     beta= 0.70
     Davidson diagonalization with overlap
     ethr =  7.76E-08,  avg # of iterations =  3.0

     negative rho (up, down):  6.542E-06 0.000E+00

     total cpu time spent up to now is      118.1 secs

     total energy              =     -44.00141463 Ry
     Harris-Foulkes estimate   =     -44.00141728 Ry
     estimated scf accuracy    <       0.00000806 Ry

     iteration # 29     ecut=   300.00 Ry     beta= 0.70
     Davidson diagonalization with overlap
     ethr =  7.76E-08,  avg # of iterations =  1.0

     negative rho (up, down):  6.320E-06 0.000E+00

     total cpu time spent up to now is      121.8 secs

     total energy              =     -44.00141370 Ry
     Harris-Foulkes estimate   =     -44.00141488 Ry
     estimated scf accuracy    <       0.00000297 Ry

     iteration # 30     ecut=   300.00 Ry     beta= 0.70
     Davidson diagonalization with overlap
     ethr =  3.71E-08,  avg # of iterations =  3.0

     negative rho (up, down):  6.304E-06 0.000E+00

     total cpu time spent up to now is      126.0 secs

     total energy              =     -44.00141514 Ry
     Harris-Foulkes estimate   =     -44.00141510 Ry
     estimated scf accuracy    <       0.00000024 Ry

     iteration # 31     ecut=   300.00 Ry     beta= 0.70
     Davidson diagonalization with overlap
     ethr =  2.97E-09,  avg # of iterations =  1.0

     negative rho (up, down):  6.346E-06 0.000E+00

     total cpu time spent up to now is      129.8 secs

     total energy              =     -44.00141503 Ry
     Harris-Foulkes estimate   =     -44.00141514 Ry
     estimated scf accuracy    <       0.00000030 Ry

     iteration # 32     ecut=   300.00 Ry     beta= 0.70
     Davidson diagonalization with overlap
     ethr =  2.97E-09,  avg # of iterations =  1.0

     negative rho (up, down):  6.373E-06 0.000E+00

     total cpu time spent up to now is      133.5 secs

     total energy              =     -44.00141501 Ry
     Harris-Foulkes estimate   =     -44.00141504 Ry
     estimated scf accuracy    <       0.00000011 Ry

     iteration # 33     ecut=   300.00 Ry     beta= 0.70
     Davidson diagonalization with overlap
     ethr =  1.39E-09,  avg # of iterations =  4.0

     negative rho (up, down):  6.372E-06 0.000E+00

     total cpu time spent up to now is      136.9 secs

     End of self-consistent calculation

          k = 0.0000 0.0000 0.0000 (701475 PWs)   bands (ev):

   -25.0372 -14.1481  -8.0752  -7.0463  -0.9169   0.3952   0.6727   1.0368

     the Fermi energy is    -5.1416 ev

!    total energy              =     -44.00141504 Ry
     Harris-Foulkes estimate   =     -44.00141504 Ry
     estimated scf accuracy    <          3.2E-09 Ry

     total all-electron energy =      -152.848296 Ry

     The total energy is the sum of the following terms:

     one-electron contribution =     -64.35283016 Ry
     hartree contribution      =      33.88594388 Ry
     xc contribution           =      -8.88528214 Ry
     ewald contribution        =       4.93280134 Ry
     one-center paw contrib.   =      -9.58204795 Ry
     smearing contrib. (-TS)   =       0.00000000 Ry

     convergence has been achieved in  33 iterations

     Writing output data file pwscf.save
 
     init_run     :      5.73s CPU      6.02s WALL (       1 calls)
     electrons    :    117.66s CPU    130.74s WALL (       1 calls)

     Called by init_run:
     wfcinit      :      0.58s CPU      0.65s WALL (       1 calls)
     potinit      :      0.86s CPU      0.90s WALL (       1 calls)

     Called by electrons:
     c_bands      :     44.15s CPU     44.54s WALL (      33 calls)
     sum_band     :     29.35s CPU     31.71s WALL (      33 calls)
     v_of_rho     :     19.62s CPU     20.34s WALL (      34 calls)
     newd         :      9.54s CPU     11.68s WALL (      34 calls)
     PAW_pot      :      0.31s CPU      0.34s WALL (      34 calls)
     mix_rho      :     14.65s CPU     21.50s WALL (      33 calls)

     Called by c_bands:
     init_us_2    :      0.64s CPU      0.68s WALL (      67 calls)
     cegterg      :     43.48s CPU     43.72s WALL (      33 calls)

     Called by sum_band:
     sum_band:bec :      0.00s CPU      0.00s WALL (      33 calls)
     addusdens    :     15.76s CPU     17.91s WALL (      33 calls)

     Called by *egterg:
     h_psi        :     41.52s CPU     41.74s WALL (     119 calls)
     s_psi        :      0.28s CPU      0.28s WALL (     119 calls)
     g_psi        :      0.10s CPU      0.10s WALL (      85 calls)
     cdiaghg      :      0.03s CPU      0.03s WALL (     118 calls)

     Called by h_psi:
     h_psi:pot    :     41.25s CPU     41.46s WALL (     119 calls)
     h_psi:calbec :      0.52s CPU      0.54s WALL (     119 calls)
     vloc_psi     :     40.47s CPU     40.65s WALL (     119 calls)
     add_vuspsi   :      0.26s CPU      0.26s WALL (     119 calls)

     General routines
     calbec       :      0.59s CPU      0.62s WALL (     152 calls)
     fft          :     23.70s CPU     24.93s WALL (     441 calls)
     fftw         :     43.98s CPU     44.18s WALL (    1594 calls)
     davcio       :      1.06s CPU      7.12s WALL (     567 calls)
 
     Parallel routines
     fft_scatt_xy :     15.38s CPU     15.41s WALL (    2035 calls)
     fft_scatt_yz :     17.87s CPU     19.13s WALL (    2035 calls)
 
     PWSCF        :  2m 4.56s CPU     2m19.09s WALL

 
   This run was terminated on:  14:31:16  18May2018            

=------------------------------------------------------------------------------=
   JOB DONE.
=------------------------------------------------------------------------------=
