
     Program PWSCF v.6.2 (svn rev. 14038) starts on 18May2018 at 15:18:56 

     This program is part of the open-source Quantum ESPRESSO suite
     for quantum simulation of materials; please cite
         "P. Giannozzi et al., J. Phys.:Condens. Matter 21 395502 (2009);
         "P. Giannozzi et al., J. Phys.:Condens. Matter 29 465901 (2017);
          URL http://www.quantum-espresso.org", 
     in publications or presentations arising from this work. More details at
     http://www.quantum-espresso.org/quote

     Parallel version (MPI), running on    28 processors

     MPI processes distributed on     1 nodes
     R & G space division:  proc/nbgrp/npool/nimage =      28
     Reading input from ../ecut2-300/16000.in
Warning: card &IONS ignored
Warning: card     POT_EXTRAPOLATION='SECOND-ORDER' ignored
Warning: card     WFC_EXTRAPOLATION='SECOND-ORDER' ignored
Warning: card     ION_TEMPERATURE = 'ANDERSEN' ignored
Warning: card / ignored

     Current dimensions of program PWSCF are:
     Max number of different atomic species (ntypx) = 10
     Max number of k-points (npk) =  40000
     Max angular momentum in pseudopotentials (lmaxx) =  3
               file H.pbe-kjpaw_psl.1.0.0.UPF: wavefunction(s)  1S renormalized
               file O.pbe-n-kjpaw_psl.1.0.0.UPF: wavefunction(s)  2S 2P renormalized

     Subspace diagonalization in iterative solution of the eigenvalue problem:
     a serial algorithm will be used

 
     Parallelization info
     --------------------
     sticks:   dense  smooth     PW     G-vecs:    dense   smooth      PW
     Min        1364    1364    341               200576   200576   25051
     Max        1365    1365    342               200579   200579   25054
     Sum       38197   38197   9549              5616169  5616169  701475
 


     bravais-lattice index     =            1
     lattice parameter (alat)  =      20.0000  a.u.
     unit-cell volume          =    8000.0000 (a.u.)^3
     number of atoms/cell      =            3
     number of atomic types    =            2
     number of electrons       =         8.00
     number of Kohn-Sham states=            8
     kinetic-energy cutoff     =     300.0000  Ry
     charge density cutoff     =    1200.0000  Ry
     convergence threshold     =      1.0E-08
     mixing beta               =       0.7000
     number of iterations used =            8  plain     mixing
     Exchange-correlation      = SLA PW PBX PBC ( 1  4  3  4 0 0)

     celldm(1)=  20.000000  celldm(2)=   0.000000  celldm(3)=   0.000000
     celldm(4)=   0.000000  celldm(5)=   0.000000  celldm(6)=   0.000000

     crystal axes: (cart. coord. in units of alat)
               a(1) = (   1.000000   0.000000   0.000000 )  
               a(2) = (   0.000000   1.000000   0.000000 )  
               a(3) = (   0.000000   0.000000   1.000000 )  

     reciprocal axes: (cart. coord. in units 2 pi/alat)
               b(1) = (  1.000000  0.000000  0.000000 )  
               b(2) = (  0.000000  1.000000  0.000000 )  
               b(3) = (  0.000000  0.000000  1.000000 )  


     PseudoPot. # 1 for H  read from file:
     ../pslibrary/pbe/PSEUDOPOTENTIALS/H.pbe-kjpaw_psl.1.0.0.UPF
     MD5 check sum: e77ef4e89cfa2d6a63e4c80bb1a147aa
     Pseudo is Projector augmented-wave, Zval =  1.0
     Generated using "atomic" code by A. Dal Corso v.6.2 svn rev. 14038
     Shape of augmentation charge: PSQ
     Using radial grid of  929 points,  2 beta functions with: 
                l(1) =   0
                l(2) =   0
     Q(r) pseudized with 0 coefficients 


     PseudoPot. # 2 for O  read from file:
     ../pslibrary/pbe/PSEUDOPOTENTIALS/O.pbe-n-kjpaw_psl.1.0.0.UPF
     MD5 check sum: bb09017f9a02654af35f7312a94eda3e
     Pseudo is Projector augmented-wave + core cor, Zval =  6.0
     Generated using "atomic" code by A. Dal Corso v.6.2 svn rev. 14038
     Shape of augmentation charge: PSQ
     Using radial grid of 1095 points,  4 beta functions with: 
                l(1) =   0
                l(2) =   0
                l(3) =   1
                l(4) =   1
     Q(r) pseudized with 0 coefficients 


     atomic species   valence    mass     pseudopotential
        H              1.00     1.01000     H ( 1.00)
        O              6.00    16.00000     O ( 1.00)

     No symmetry found



   Cartesian axes

     site n.     atom                  positions (alat units)
         1           O   tau(   1) = (  -0.0040208  -0.0097288   0.0055931  )
         2           H   tau(   2) = (  -0.0252565   0.1165225   0.0567062  )
         3           H   tau(   3) = (   0.0889514   0.0375970  -0.0569466  )

     number of k points=     1  Marzari-Vanderbilt smearing, width (Ry)=  0.0250
                       cart. coord. in units 2pi/alat
        k(    1) = (   0.0000000   0.0000000   0.0000000), wk =   2.0000000

     Dense  grid:  5616169 G-vectors     FFT dimensions: ( 225, 225, 225)

     Estimated max dynamical RAM per process >     222.26 MB

     Estimated total dynamical RAM >       6.08 GB

     Initial potential from superposition of free atoms

     starting charge    7.99998, renormalised to    8.00000

     negative rho (up, down):  3.408E-05 0.000E+00
     Starting wfc are    6 randomized atomic wfcs +    2 random wfc
     Checking if some PAW data can be deallocated... 

     total cpu time spent up to now is        6.7 secs

     Self-consistent Calculation

     iteration #  1     ecut=   300.00 Ry     beta= 0.70
     Davidson diagonalization with overlap
     ethr =  1.00E-02,  avg # of iterations =  7.0

     negative rho (up, down):  7.795E-06 0.000E+00

     total cpu time spent up to now is       11.1 secs

     total energy              =     -43.55265134 Ry
     Harris-Foulkes estimate   =     -43.88360096 Ry
     estimated scf accuracy    <       0.44203308 Ry

     iteration #  2     ecut=   300.00 Ry     beta= 0.70
     Davidson diagonalization with overlap
     ethr =  5.53E-03,  avg # of iterations =  3.0

     negative rho (up, down):  8.442E-08 0.000E+00

     total cpu time spent up to now is       14.8 secs

     total energy              =     -43.45787403 Ry
     Harris-Foulkes estimate   =     -44.15954156 Ry
     estimated scf accuracy    <       2.13048510 Ry

     iteration #  3     ecut=   300.00 Ry     beta= 0.70
     Davidson diagonalization with overlap
     ethr =  5.53E-03,  avg # of iterations =  3.0

     total cpu time spent up to now is       18.2 secs

     total energy              =     -43.70955801 Ry
     Harris-Foulkes estimate   =     -43.71997334 Ry
     estimated scf accuracy    <       0.03913755 Ry

     iteration #  4     ecut=   300.00 Ry     beta= 0.70
     Davidson diagonalization with overlap
     ethr =  4.89E-04,  avg # of iterations =  4.0

     total cpu time spent up to now is       22.2 secs

     total energy              =     -43.78456352 Ry
     Harris-Foulkes estimate   =     -43.79265301 Ry
     estimated scf accuracy    <       0.04097359 Ry

     iteration #  5     ecut=   300.00 Ry     beta= 0.70
     Davidson diagonalization with overlap
     ethr =  4.89E-04,  avg # of iterations =  1.0

     total cpu time spent up to now is       25.6 secs

     total energy              =     -43.78368867 Ry
     Harris-Foulkes estimate   =     -43.78575692 Ry
     estimated scf accuracy    <       0.01433919 Ry

     iteration #  6     ecut=   300.00 Ry     beta= 0.70
     Davidson diagonalization with overlap
     ethr =  1.79E-04,  avg # of iterations =  1.0

     total cpu time spent up to now is       29.0 secs

     total energy              =     -43.78352258 Ry
     Harris-Foulkes estimate   =     -43.78412534 Ry
     estimated scf accuracy    <       0.00686423 Ry

     iteration #  7     ecut=   300.00 Ry     beta= 0.70
     Davidson diagonalization with overlap
     ethr =  8.58E-05,  avg # of iterations =  1.0

     negative rho (up, down):  2.448E-08 0.000E+00

     total cpu time spent up to now is       32.5 secs

     total energy              =     -43.78246561 Ry
     Harris-Foulkes estimate   =     -43.78368178 Ry
     estimated scf accuracy    <       0.00434770 Ry

     iteration #  8     ecut=   300.00 Ry     beta= 0.70
     Davidson diagonalization with overlap
     ethr =  5.43E-05,  avg # of iterations =  8.0

     negative rho (up, down):  1.022E-08 0.000E+00

     total cpu time spent up to now is       36.7 secs

     total energy              =     -43.78782267 Ry
     Harris-Foulkes estimate   =     -43.78783324 Ry
     estimated scf accuracy    <       0.00003855 Ry

     iteration #  9     ecut=   300.00 Ry     beta= 0.70
     Davidson diagonalization with overlap
     ethr =  4.82E-07,  avg # of iterations =  6.0

     negative rho (up, down):  1.791E-07 0.000E+00

     total cpu time spent up to now is       41.5 secs

     total energy              =     -43.78786046 Ry
     Harris-Foulkes estimate   =     -43.78788629 Ry
     estimated scf accuracy    <       0.00010925 Ry

     iteration # 10     ecut=   300.00 Ry     beta= 0.70
     Davidson diagonalization with overlap
     ethr =  4.82E-07,  avg # of iterations =  2.0

     negative rho (up, down):  6.435E-07 0.000E+00

     total cpu time spent up to now is       45.1 secs

     total energy              =     -43.78787222 Ry
     Harris-Foulkes estimate   =     -43.78786822 Ry
     estimated scf accuracy    <       0.00000934 Ry

     iteration # 11     ecut=   300.00 Ry     beta= 0.70
     Davidson diagonalization with overlap
     ethr =  1.17E-07,  avg # of iterations =  7.0

     negative rho (up, down):  1.042E-05 0.000E+00

     total cpu time spent up to now is       49.1 secs

     total energy              =     -43.78786856 Ry
     Harris-Foulkes estimate   =     -43.78787319 Ry
     estimated scf accuracy    <       0.00002356 Ry

     iteration # 12     ecut=   300.00 Ry     beta= 0.70
     Davidson diagonalization with overlap
     ethr =  1.17E-07,  avg # of iterations =  2.0

     negative rho (up, down):  7.331E-06 0.000E+00

     total cpu time spent up to now is       52.8 secs

     total energy              =     -43.78786905 Ry
     Harris-Foulkes estimate   =     -43.78786946 Ry
     estimated scf accuracy    <       0.00000658 Ry

     iteration # 13     ecut=   300.00 Ry     beta= 0.70
     Davidson diagonalization with overlap
     ethr =  8.22E-08,  avg # of iterations =  1.0

     negative rho (up, down):  6.834E-06 0.000E+00

     total cpu time spent up to now is       56.4 secs

     total energy              =     -43.78786866 Ry
     Harris-Foulkes estimate   =     -43.78786925 Ry
     estimated scf accuracy    <       0.00000485 Ry

     iteration # 14     ecut=   300.00 Ry     beta= 0.70
     Davidson diagonalization with overlap
     ethr =  6.06E-08,  avg # of iterations =  1.0

     negative rho (up, down):  6.484E-06 0.000E+00

     total cpu time spent up to now is       60.0 secs

     total energy              =     -43.78786864 Ry
     Harris-Foulkes estimate   =     -43.78786883 Ry
     estimated scf accuracy    <       0.00000257 Ry

     iteration # 15     ecut=   300.00 Ry     beta= 0.70
     Davidson diagonalization with overlap
     ethr =  3.22E-08,  avg # of iterations =  1.0

     negative rho (up, down):  5.914E-06 0.000E+00

     total cpu time spent up to now is       63.7 secs

     total energy              =     -43.78786822 Ry
     Harris-Foulkes estimate   =     -43.78786881 Ry
     estimated scf accuracy    <       0.00000132 Ry

     iteration # 16     ecut=   300.00 Ry     beta= 0.70
     Davidson diagonalization with overlap
     ethr =  1.65E-08,  avg # of iterations =  3.0

     negative rho (up, down):  6.366E-06 0.000E+00

     total cpu time spent up to now is       67.6 secs

     total energy              =     -43.78786879 Ry
     Harris-Foulkes estimate   =     -43.78786889 Ry
     estimated scf accuracy    <       0.00000049 Ry

     iteration # 17     ecut=   300.00 Ry     beta= 0.70
     Davidson diagonalization with overlap
     ethr =  6.14E-09,  avg # of iterations =  1.0

     negative rho (up, down):  6.538E-06 0.000E+00

     total cpu time spent up to now is       71.2 secs

     total energy              =     -43.78786875 Ry
     Harris-Foulkes estimate   =     -43.78786880 Ry
     estimated scf accuracy    <       0.00000017 Ry

     iteration # 18     ecut=   300.00 Ry     beta= 0.70
     Davidson diagonalization with overlap
     ethr =  2.15E-09,  avg # of iterations =  3.0

     negative rho (up, down):  6.100E-06 0.000E+00

     total cpu time spent up to now is       75.1 secs

     total energy              =     -43.78786880 Ry
     Harris-Foulkes estimate   =     -43.78786880 Ry
     estimated scf accuracy    <       0.00000003 Ry

     iteration # 19     ecut=   300.00 Ry     beta= 0.70
     Davidson diagonalization with overlap
     ethr =  4.19E-10,  avg # of iterations =  1.0

     negative rho (up, down):  6.044E-06 0.000E+00

     total cpu time spent up to now is       78.7 secs

     total energy              =     -43.78786880 Ry
     Harris-Foulkes estimate   =     -43.78786880 Ry
     estimated scf accuracy    <       0.00000001 Ry

     iteration # 20     ecut=   300.00 Ry     beta= 0.70
     Davidson diagonalization with overlap
     ethr =  1.51E-10,  avg # of iterations =  1.0

     negative rho (up, down):  6.085E-06 0.000E+00

     total cpu time spent up to now is       81.7 secs

     End of self-consistent calculation

          k = 0.0000 0.0000 0.0000 (701475 PWs)   bands (ev):

   -22.6665  -9.8389  -9.3743  -6.6838  -3.1875  -1.5208   0.0701   0.9282

     the Fermi energy is    -4.6304 ev

!    total energy              =     -43.78786880 Ry
     Harris-Foulkes estimate   =     -43.78786880 Ry
     estimated scf accuracy    <          8.6E-09 Ry

     total all-electron energy =      -152.634750 Ry

     The total energy is the sum of the following terms:

     one-electron contribution =     -56.90226441 Ry
     hartree contribution      =      30.23303086 Ry
     xc contribution           =      -8.33418446 Ry
     ewald contribution        =       0.81244550 Ry
     one-center paw contrib.   =      -9.59689628 Ry
     smearing contrib. (-TS)   =      -0.00000000 Ry

     convergence has been achieved in  20 iterations

     Writing output data file pwscf.save
 
     init_run     :      5.65s CPU      5.98s WALL (       1 calls)
     electrons    :     67.95s CPU     75.39s WALL (       1 calls)

     Called by init_run:
     wfcinit      :      0.51s CPU      0.61s WALL (       1 calls)
     potinit      :      0.85s CPU      0.90s WALL (       1 calls)

     Called by electrons:
     c_bands      :     26.42s CPU     26.69s WALL (      20 calls)
     sum_band     :     17.73s CPU     19.17s WALL (      20 calls)
     v_of_rho     :     11.89s CPU     12.35s WALL (      21 calls)
     newd         :      5.85s CPU      7.16s WALL (      21 calls)
     PAW_pot      :      0.19s CPU      0.21s WALL (      21 calls)
     mix_rho      :      6.20s CPU      9.81s WALL (      20 calls)

     Called by c_bands:
     init_us_2    :      0.39s CPU      0.41s WALL (      41 calls)
     cegterg      :     26.02s CPU     26.19s WALL (      20 calls)

     Called by sum_band:
     sum_band:bec :      0.00s CPU      0.00s WALL (      20 calls)
     addusdens    :      9.53s CPU     10.84s WALL (      20 calls)

     Called by *egterg:
     h_psi        :     24.94s CPU     25.08s WALL (      78 calls)
     s_psi        :      0.17s CPU      0.17s WALL (      78 calls)
     g_psi        :      0.06s CPU      0.06s WALL (      57 calls)
     cdiaghg      :      0.02s CPU      0.02s WALL (      77 calls)

     Called by h_psi:
     h_psi:pot    :     24.78s CPU     24.92s WALL (      78 calls)
     h_psi:calbec :      0.32s CPU      0.34s WALL (      78 calls)
     vloc_psi     :     24.29s CPU     24.41s WALL (      78 calls)
     add_vuspsi   :      0.16s CPU      0.16s WALL (      78 calls)

     General routines
     calbec       :      0.36s CPU      0.37s WALL (      98 calls)
     fft          :     14.27s CPU     15.03s WALL (     272 calls)
     fftw         :     26.48s CPU     26.60s WALL (     958 calls)
     davcio       :      0.55s CPU      3.83s WALL (     307 calls)
 
     Parallel routines
     fft_scatt_xy :      9.29s CPU      9.31s WALL (    1230 calls)
     fft_scatt_yz :     10.65s CPU     11.41s WALL (    1230 calls)
 
     PWSCF        :  1m14.44s CPU     1m22.88s WALL

 
   This run was terminated on:  15:20:19  18May2018            

=------------------------------------------------------------------------------=
   JOB DONE.
=------------------------------------------------------------------------------=
