
     Program PWSCF v.6.2 (svn rev. 14038) starts on 18May2018 at 15:41:26 

     This program is part of the open-source Quantum ESPRESSO suite
     for quantum simulation of materials; please cite
         "P. Giannozzi et al., J. Phys.:Condens. Matter 21 395502 (2009);
         "P. Giannozzi et al., J. Phys.:Condens. Matter 29 465901 (2017);
          URL http://www.quantum-espresso.org", 
     in publications or presentations arising from this work. More details at
     http://www.quantum-espresso.org/quote

     Parallel version (MPI), running on    28 processors

     MPI processes distributed on     1 nodes
     R & G space division:  proc/nbgrp/npool/nimage =      28
     Reading input from ../ecut2-300/23000.in
Warning: card &IONS ignored
Warning: card     POT_EXTRAPOLATION='SECOND-ORDER' ignored
Warning: card     WFC_EXTRAPOLATION='SECOND-ORDER' ignored
Warning: card     ION_TEMPERATURE = 'ANDERSEN' ignored
Warning: card / ignored

     Current dimensions of program PWSCF are:
     Max number of different atomic species (ntypx) = 10
     Max number of k-points (npk) =  40000
     Max angular momentum in pseudopotentials (lmaxx) =  3
               file H.pbe-kjpaw_psl.1.0.0.UPF: wavefunction(s)  1S renormalized
               file O.pbe-n-kjpaw_psl.1.0.0.UPF: wavefunction(s)  2S 2P renormalized

     Subspace diagonalization in iterative solution of the eigenvalue problem:
     a serial algorithm will be used

 
     Parallelization info
     --------------------
     sticks:   dense  smooth     PW     G-vecs:    dense   smooth      PW
     Min        1364    1364    341               200576   200576   25051
     Max        1365    1365    342               200579   200579   25054
     Sum       38197   38197   9549              5616169  5616169  701475
 


     bravais-lattice index     =            1
     lattice parameter (alat)  =      20.0000  a.u.
     unit-cell volume          =    8000.0000 (a.u.)^3
     number of atoms/cell      =            3
     number of atomic types    =            2
     number of electrons       =         8.00
     number of Kohn-Sham states=            8
     kinetic-energy cutoff     =     300.0000  Ry
     charge density cutoff     =    1200.0000  Ry
     convergence threshold     =      1.0E-08
     mixing beta               =       0.7000
     number of iterations used =            8  plain     mixing
     Exchange-correlation      = SLA PW PBX PBC ( 1  4  3  4 0 0)

     celldm(1)=  20.000000  celldm(2)=   0.000000  celldm(3)=   0.000000
     celldm(4)=   0.000000  celldm(5)=   0.000000  celldm(6)=   0.000000

     crystal axes: (cart. coord. in units of alat)
               a(1) = (   1.000000   0.000000   0.000000 )  
               a(2) = (   0.000000   1.000000   0.000000 )  
               a(3) = (   0.000000   0.000000   1.000000 )  

     reciprocal axes: (cart. coord. in units 2 pi/alat)
               b(1) = (  1.000000  0.000000  0.000000 )  
               b(2) = (  0.000000  1.000000  0.000000 )  
               b(3) = (  0.000000  0.000000  1.000000 )  


     PseudoPot. # 1 for H  read from file:
     ../pslibrary/pbe/PSEUDOPOTENTIALS/H.pbe-kjpaw_psl.1.0.0.UPF
     MD5 check sum: e77ef4e89cfa2d6a63e4c80bb1a147aa
     Pseudo is Projector augmented-wave, Zval =  1.0
     Generated using "atomic" code by A. Dal Corso v.6.2 svn rev. 14038
     Shape of augmentation charge: PSQ
     Using radial grid of  929 points,  2 beta functions with: 
                l(1) =   0
                l(2) =   0
     Q(r) pseudized with 0 coefficients 


     PseudoPot. # 2 for O  read from file:
     ../pslibrary/pbe/PSEUDOPOTENTIALS/O.pbe-n-kjpaw_psl.1.0.0.UPF
     MD5 check sum: bb09017f9a02654af35f7312a94eda3e
     Pseudo is Projector augmented-wave + core cor, Zval =  6.0
     Generated using "atomic" code by A. Dal Corso v.6.2 svn rev. 14038
     Shape of augmentation charge: PSQ
     Using radial grid of 1095 points,  4 beta functions with: 
                l(1) =   0
                l(2) =   0
                l(3) =   1
                l(4) =   1
     Q(r) pseudized with 0 coefficients 


     atomic species   valence    mass     pseudopotential
        H              1.00     1.01000     H ( 1.00)
        O              6.00    16.00000     O ( 1.00)

     No symmetry found



   Cartesian axes

     site n.     atom                  positions (alat units)
         1           O   tau(   1) = (  -0.0020193   0.0058929  -0.0010672  )
         2           H   tau(   2) = (   0.0706862  -0.0380379   0.0083874  )
         3           H   tau(   3) = (  -0.0386985  -0.0553160   0.0968826  )

     number of k points=     1  Marzari-Vanderbilt smearing, width (Ry)=  0.0250
                       cart. coord. in units 2pi/alat
        k(    1) = (   0.0000000   0.0000000   0.0000000), wk =   2.0000000

     Dense  grid:  5616169 G-vectors     FFT dimensions: ( 225, 225, 225)

     Estimated max dynamical RAM per process >     222.26 MB

     Estimated total dynamical RAM >       6.08 GB

     Initial potential from superposition of free atoms

     starting charge    7.99998, renormalised to    8.00000

     negative rho (up, down):  3.622E-05 0.000E+00
     Starting wfc are    6 randomized atomic wfcs +    2 random wfc
     Checking if some PAW data can be deallocated... 

     total cpu time spent up to now is        7.6 secs

     Self-consistent Calculation

     iteration #  1     ecut=   300.00 Ry     beta= 0.70
     Davidson diagonalization with overlap
     ethr =  1.00E-02,  avg # of iterations =  6.0

     negative rho (up, down):  1.194E-05 0.000E+00

     total cpu time spent up to now is       12.1 secs

     total energy              =     -43.69489809 Ry
     Harris-Foulkes estimate   =     -44.06959236 Ry
     estimated scf accuracy    <       0.50129320 Ry

     iteration #  2     ecut=   300.00 Ry     beta= 0.70
     Davidson diagonalization with overlap
     ethr =  6.27E-03,  avg # of iterations =  3.0

     negative rho (up, down):  1.122E-07 0.000E+00

     total cpu time spent up to now is       15.8 secs

     total energy              =     -43.71843341 Ry
     Harris-Foulkes estimate   =     -44.14784630 Ry
     estimated scf accuracy    <       1.03555380 Ry

     iteration #  3     ecut=   300.00 Ry     beta= 0.70
     Davidson diagonalization with overlap
     ethr =  6.27E-03,  avg # of iterations =  1.0

     total cpu time spent up to now is       19.2 secs

     total energy              =     -43.83941981 Ry
     Harris-Foulkes estimate   =     -43.85663230 Ry
     estimated scf accuracy    <       0.05844362 Ry

     iteration #  4     ecut=   300.00 Ry     beta= 0.70
     Davidson diagonalization with overlap
     ethr =  7.31E-04,  avg # of iterations =  3.0

     total cpu time spent up to now is       23.1 secs

     total energy              =     -43.92914953 Ry
     Harris-Foulkes estimate   =     -43.94184723 Ry
     estimated scf accuracy    <       0.04907493 Ry

     iteration #  5     ecut=   300.00 Ry     beta= 0.70
     Davidson diagonalization with overlap
     ethr =  6.13E-04,  avg # of iterations =  1.0

     total cpu time spent up to now is       26.6 secs

     total energy              =     -43.92705520 Ry
     Harris-Foulkes estimate   =     -43.93057599 Ry
     estimated scf accuracy    <       0.01831460 Ry

     iteration #  6     ecut=   300.00 Ry     beta= 0.70
     Davidson diagonalization with overlap
     ethr =  2.29E-04,  avg # of iterations =  4.0

     total cpu time spent up to now is       30.4 secs

     total energy              =     -43.92935163 Ry
     Harris-Foulkes estimate   =     -43.92932421 Ry
     estimated scf accuracy    <       0.00298646 Ry

     iteration #  7     ecut=   300.00 Ry     beta= 0.70
     Davidson diagonalization with overlap
     ethr =  3.73E-05,  avg # of iterations =  6.0

     total cpu time spent up to now is       34.6 secs

     total energy              =     -43.92947252 Ry
     Harris-Foulkes estimate   =     -43.92952325 Ry
     estimated scf accuracy    <       0.00274272 Ry

     iteration #  8     ecut=   300.00 Ry     beta= 0.70
     Davidson diagonalization with overlap
     ethr =  3.43E-05,  avg # of iterations =  1.0

     negative rho (up, down):  2.071E-08 0.000E+00

     total cpu time spent up to now is       38.1 secs

     total energy              =     -43.92948470 Ry
     Harris-Foulkes estimate   =     -43.92949272 Ry
     estimated scf accuracy    <       0.00241827 Ry

     iteration #  9     ecut=   300.00 Ry     beta= 0.70
     Davidson diagonalization with overlap
     ethr =  3.02E-05,  avg # of iterations =  1.0

     negative rho (up, down):  3.376E-05 0.000E+00

     total cpu time spent up to now is       41.8 secs

     total energy              =     -43.92971960 Ry
     Harris-Foulkes estimate   =     -43.92949522 Ry
     estimated scf accuracy    <       0.00227518 Ry

     iteration # 10     ecut=   300.00 Ry     beta= 0.70
     Davidson diagonalization with overlap
     ethr =  2.84E-05,  avg # of iterations =  2.0

     negative rho (up, down):  4.059E-05 0.000E+00

     total cpu time spent up to now is       45.5 secs

     total energy              =     -43.92977189 Ry
     Harris-Foulkes estimate   =     -43.92978944 Ry
     estimated scf accuracy    <       0.00282622 Ry

     iteration # 11     ecut=   300.00 Ry     beta= 0.70
     Davidson diagonalization with overlap
     ethr =  2.84E-05,  avg # of iterations =  1.0

     negative rho (up, down):  1.332E-04 0.000E+00

     total cpu time spent up to now is       49.1 secs

     total energy              =     -43.93017631 Ry
     Harris-Foulkes estimate   =     -43.92977979 Ry
     estimated scf accuracy    <       0.00274087 Ry

     iteration # 12     ecut=   300.00 Ry     beta= 0.70
     Davidson diagonalization with overlap
     ethr =  2.84E-05,  avg # of iterations =  1.0

     negative rho (up, down):  3.863E-04 0.000E+00

     total cpu time spent up to now is       52.8 secs

     total energy              =     -43.93139802 Ry
     Harris-Foulkes estimate   =     -43.93020143 Ry
     estimated scf accuracy    <       0.00388367 Ry

     iteration # 13     ecut=   300.00 Ry     beta= 0.70
     Davidson diagonalization with overlap
     ethr =  2.84E-05,  avg # of iterations =  1.0

     negative rho (up, down):  3.515E-04 0.000E+00

     total cpu time spent up to now is       56.4 secs

     total energy              =     -43.93121008 Ry
     Harris-Foulkes estimate   =     -43.93150319 Ry
     estimated scf accuracy    <       0.00751091 Ry

     iteration # 14     ecut=   300.00 Ry     beta= 0.70
     Davidson diagonalization with overlap
     ethr =  2.84E-05,  avg # of iterations =  1.0

     negative rho (up, down):  3.943E-04 0.000E+00

     total cpu time spent up to now is       60.0 secs

     total energy              =     -43.93164401 Ry
     Harris-Foulkes estimate   =     -43.93122910 Ry
     estimated scf accuracy    <       0.00678181 Ry

     iteration # 15     ecut=   300.00 Ry     beta= 0.70
     Davidson diagonalization with overlap
     ethr =  2.84E-05,  avg # of iterations =  1.0

     negative rho (up, down):  9.467E-06 0.000E+00

     total cpu time spent up to now is       63.6 secs

     total energy              =     -43.92817460 Ry
     Harris-Foulkes estimate   =     -43.93165825 Ry
     estimated scf accuracy    <       0.00798430 Ry

     iteration # 16     ecut=   300.00 Ry     beta= 0.70
     Davidson diagonalization with overlap
     ethr =  2.84E-05,  avg # of iterations =  3.0

     negative rho (up, down):  8.204E-06 0.000E+00

     total cpu time spent up to now is       67.6 secs

     total energy              =     -43.92895278 Ry
     Harris-Foulkes estimate   =     -43.92900810 Ry
     estimated scf accuracy    <       0.00017467 Ry

     iteration # 17     ecut=   300.00 Ry     beta= 0.70
     Davidson diagonalization with overlap
     ethr =  2.18E-06,  avg # of iterations = 17.0

     negative rho (up, down):  1.342E-05 0.000E+00

     total cpu time spent up to now is       72.8 secs

     total energy              =     -43.92896423 Ry
     Harris-Foulkes estimate   =     -43.92896854 Ry
     estimated scf accuracy    <       0.00003324 Ry

     iteration # 18     ecut=   300.00 Ry     beta= 0.70
     Davidson diagonalization with overlap
     ethr =  4.15E-07,  avg # of iterations = 18.0

     negative rho (up, down):  9.635E-06 0.000E+00

     total cpu time spent up to now is       77.7 secs

     total energy              =     -43.92896343 Ry
     Harris-Foulkes estimate   =     -43.92896583 Ry
     estimated scf accuracy    <       0.00001657 Ry

     iteration # 19     ecut=   300.00 Ry     beta= 0.70
     Davidson diagonalization with overlap
     ethr =  2.07E-07,  avg # of iterations =  1.0

     negative rho (up, down):  8.933E-06 0.000E+00

     total cpu time spent up to now is       81.3 secs

     total energy              =     -43.92896200 Ry
     Harris-Foulkes estimate   =     -43.92896402 Ry
     estimated scf accuracy    <       0.00000671 Ry

     iteration # 20     ecut=   300.00 Ry     beta= 0.70
     Davidson diagonalization with overlap
     ethr =  8.38E-08,  avg # of iterations =  1.0

     negative rho (up, down):  8.232E-06 0.000E+00

     total cpu time spent up to now is       85.0 secs

     total energy              =     -43.92896226 Ry
     Harris-Foulkes estimate   =     -43.92896246 Ry
     estimated scf accuracy    <       0.00000120 Ry

     iteration # 21     ecut=   300.00 Ry     beta= 0.70
     Davidson diagonalization with overlap
     ethr =  1.50E-08,  avg # of iterations =  3.0

     negative rho (up, down):  7.708E-06 0.000E+00

     total cpu time spent up to now is       89.0 secs

     total energy              =     -43.92896287 Ry
     Harris-Foulkes estimate   =     -43.92896287 Ry
     estimated scf accuracy    <       0.00000026 Ry

     iteration # 22     ecut=   300.00 Ry     beta= 0.70
     Davidson diagonalization with overlap
     ethr =  3.30E-09,  avg # of iterations =  1.0

     negative rho (up, down):  6.677E-06 0.000E+00

     total cpu time spent up to now is       92.6 secs

     total energy              =     -43.92896287 Ry
     Harris-Foulkes estimate   =     -43.92896288 Ry
     estimated scf accuracy    <       0.00000018 Ry

     iteration # 23     ecut=   300.00 Ry     beta= 0.70
     Davidson diagonalization with overlap
     ethr =  2.31E-09,  avg # of iterations =  3.0

     negative rho (up, down):  6.897E-06 0.000E+00

     total cpu time spent up to now is       96.5 secs

     total energy              =     -43.92896285 Ry
     Harris-Foulkes estimate   =     -43.92896293 Ry
     estimated scf accuracy    <       0.00000024 Ry

     iteration # 24     ecut=   300.00 Ry     beta= 0.70
     Davidson diagonalization with overlap
     ethr =  2.31E-09,  avg # of iterations =  1.0

     negative rho (up, down):  6.859E-06 0.000E+00

     total cpu time spent up to now is      100.1 secs

     total energy              =     -43.92896285 Ry
     Harris-Foulkes estimate   =     -43.92896286 Ry
     estimated scf accuracy    <       0.00000005 Ry

     iteration # 25     ecut=   300.00 Ry     beta= 0.70
     Davidson diagonalization with overlap
     ethr =  6.70E-10,  avg # of iterations =  3.0

     negative rho (up, down):  6.789E-06 0.000E+00

     total cpu time spent up to now is      103.5 secs

     End of self-consistent calculation

          k = 0.0000 0.0000 0.0000 (701475 PWs)   bands (ev):

   -24.8657 -11.1846  -9.9209  -7.0450  -2.1543  -0.0166   0.6147   0.9720

     the Fermi energy is    -5.1473 ev

!    total energy              =     -43.92896287 Ry
     Harris-Foulkes estimate   =     -43.92896287 Ry
     estimated scf accuracy    <          1.7E-09 Ry

     total all-electron energy =      -152.775844 Ry

     The total energy is the sum of the following terms:

     one-electron contribution =     -61.90948756 Ry
     hartree contribution      =      32.64555967 Ry
     xc contribution           =      -8.70184024 Ry
     ewald contribution        =       3.62874009 Ry
     one-center paw contrib.   =      -9.59193483 Ry
     smearing contrib. (-TS)   =       0.00000000 Ry

     convergence has been achieved in  25 iterations

     Writing output data file pwscf.save
 
     init_run     :      5.90s CPU      6.22s WALL (       1 calls)
     electrons    :     86.73s CPU     96.33s WALL (       1 calls)

     Called by init_run:
     wfcinit      :      0.58s CPU      0.67s WALL (       1 calls)
     potinit      :      0.85s CPU      0.90s WALL (       1 calls)

     Called by electrons:
     c_bands      :     33.92s CPU     34.26s WALL (      25 calls)
     sum_band     :     22.11s CPU     23.97s WALL (      25 calls)
     v_of_rho     :     14.68s CPU     15.24s WALL (      26 calls)
     newd         :      7.23s CPU      8.91s WALL (      26 calls)
     PAW_pot      :      0.21s CPU      0.23s WALL (      26 calls)
     mix_rho      :      8.79s CPU     13.63s WALL (      25 calls)

     Called by c_bands:
     init_us_2    :      0.48s CPU      0.52s WALL (      51 calls)
     cegterg      :     33.42s CPU     33.64s WALL (      25 calls)

     Called by sum_band:
     sum_band:bec :      0.00s CPU      0.00s WALL (      25 calls)
     addusdens    :     11.89s CPU     13.59s WALL (      25 calls)

     Called by *egterg:
     h_psi        :     31.86s CPU     32.03s WALL (     110 calls)
     s_psi        :      0.24s CPU      0.24s WALL (     110 calls)
     g_psi        :      0.07s CPU      0.07s WALL (      84 calls)
     cdiaghg      :      0.03s CPU      0.03s WALL (     109 calls)

     Called by h_psi:
     h_psi:pot    :     31.65s CPU     31.83s WALL (     110 calls)
     h_psi:calbec :      0.43s CPU      0.45s WALL (     110 calls)
     vloc_psi     :     30.99s CPU     31.15s WALL (     110 calls)
     add_vuspsi   :      0.22s CPU      0.22s WALL (     110 calls)

     General routines
     calbec       :      0.48s CPU      0.50s WALL (     135 calls)
     fft          :     17.92s CPU     18.90s WALL (     337 calls)
     fftw         :     33.65s CPU     33.81s WALL (    1222 calls)
     davcio       :      0.75s CPU      5.12s WALL (     407 calls)
 
     Parallel routines
     fft_scatt_xy :     11.88s CPU     11.91s WALL (    1559 calls)
     fft_scatt_yz :     13.22s CPU     14.20s WALL (    1559 calls)
 
     PWSCF        :  1m34.05s CPU     1m44.83s WALL

 
   This run was terminated on:  15:43:11  18May2018            

=------------------------------------------------------------------------------=
   JOB DONE.
=------------------------------------------------------------------------------=
