
     Program PWSCF v.6.2 (svn rev. 14038) starts on 18May2018 at 14:37:19 

     This program is part of the open-source Quantum ESPRESSO suite
     for quantum simulation of materials; please cite
         "P. Giannozzi et al., J. Phys.:Condens. Matter 21 395502 (2009);
         "P. Giannozzi et al., J. Phys.:Condens. Matter 29 465901 (2017);
          URL http://www.quantum-espresso.org", 
     in publications or presentations arising from this work. More details at
     http://www.quantum-espresso.org/quote

     Parallel version (MPI), running on    28 processors

     MPI processes distributed on     1 nodes
     R & G space division:  proc/nbgrp/npool/nimage =      28
     Reading input from ../ecut2-300/4000.in
Warning: card &IONS ignored
Warning: card     POT_EXTRAPOLATION='SECOND-ORDER' ignored
Warning: card     WFC_EXTRAPOLATION='SECOND-ORDER' ignored
Warning: card     ION_TEMPERATURE = 'ANDERSEN' ignored
Warning: card / ignored

     Current dimensions of program PWSCF are:
     Max number of different atomic species (ntypx) = 10
     Max number of k-points (npk) =  40000
     Max angular momentum in pseudopotentials (lmaxx) =  3
               file H.pbe-kjpaw_psl.1.0.0.UPF: wavefunction(s)  1S renormalized
               file O.pbe-n-kjpaw_psl.1.0.0.UPF: wavefunction(s)  2S 2P renormalized

     Subspace diagonalization in iterative solution of the eigenvalue problem:
     a serial algorithm will be used

 
     Parallelization info
     --------------------
     sticks:   dense  smooth     PW     G-vecs:    dense   smooth      PW
     Min        1364    1364    341               200576   200576   25051
     Max        1365    1365    342               200579   200579   25054
     Sum       38197   38197   9549              5616169  5616169  701475
 


     bravais-lattice index     =            1
     lattice parameter (alat)  =      20.0000  a.u.
     unit-cell volume          =    8000.0000 (a.u.)^3
     number of atoms/cell      =            3
     number of atomic types    =            2
     number of electrons       =         8.00
     number of Kohn-Sham states=            8
     kinetic-energy cutoff     =     300.0000  Ry
     charge density cutoff     =    1200.0000  Ry
     convergence threshold     =      1.0E-08
     mixing beta               =       0.7000
     number of iterations used =            8  plain     mixing
     Exchange-correlation      = SLA PW PBX PBC ( 1  4  3  4 0 0)

     celldm(1)=  20.000000  celldm(2)=   0.000000  celldm(3)=   0.000000
     celldm(4)=   0.000000  celldm(5)=   0.000000  celldm(6)=   0.000000

     crystal axes: (cart. coord. in units of alat)
               a(1) = (   1.000000   0.000000   0.000000 )  
               a(2) = (   0.000000   1.000000   0.000000 )  
               a(3) = (   0.000000   0.000000   1.000000 )  

     reciprocal axes: (cart. coord. in units 2 pi/alat)
               b(1) = (  1.000000  0.000000  0.000000 )  
               b(2) = (  0.000000  1.000000  0.000000 )  
               b(3) = (  0.000000  0.000000  1.000000 )  


     PseudoPot. # 1 for H  read from file:
     ../pslibrary/pbe/PSEUDOPOTENTIALS/H.pbe-kjpaw_psl.1.0.0.UPF
     MD5 check sum: e77ef4e89cfa2d6a63e4c80bb1a147aa
     Pseudo is Projector augmented-wave, Zval =  1.0
     Generated using "atomic" code by A. Dal Corso v.6.2 svn rev. 14038
     Shape of augmentation charge: PSQ
     Using radial grid of  929 points,  2 beta functions with: 
                l(1) =   0
                l(2) =   0
     Q(r) pseudized with 0 coefficients 


     PseudoPot. # 2 for O  read from file:
     ../pslibrary/pbe/PSEUDOPOTENTIALS/O.pbe-n-kjpaw_psl.1.0.0.UPF
     MD5 check sum: bb09017f9a02654af35f7312a94eda3e
     Pseudo is Projector augmented-wave + core cor, Zval =  6.0
     Generated using "atomic" code by A. Dal Corso v.6.2 svn rev. 14038
     Shape of augmentation charge: PSQ
     Using radial grid of 1095 points,  4 beta functions with: 
                l(1) =   0
                l(2) =   0
                l(3) =   1
                l(4) =   1
     Q(r) pseudized with 0 coefficients 


     atomic species   valence    mass     pseudopotential
        H              1.00     1.01000     H ( 1.00)
        O              6.00    16.00000     O ( 1.00)

     No symmetry found



   Cartesian axes

     site n.     atom                  positions (alat units)
         1           O   tau(   1) = (  -0.0016941  -0.0018954  -0.0020678  )
         2           H   tau(   2) = (  -0.0105588  -0.0481291   0.0934797  )
         3           H   tau(   3) = (   0.0373965   0.0781554   0.0276420  )

     number of k points=     1  Marzari-Vanderbilt smearing, width (Ry)=  0.0250
                       cart. coord. in units 2pi/alat
        k(    1) = (   0.0000000   0.0000000   0.0000000), wk =   2.0000000

     Dense  grid:  5616169 G-vectors     FFT dimensions: ( 225, 225, 225)

     Estimated max dynamical RAM per process >     222.26 MB

     Estimated total dynamical RAM >       6.08 GB

     Initial potential from superposition of free atoms

     starting charge    7.99998, renormalised to    8.00000

     negative rho (up, down):  3.590E-05 0.000E+00
     Starting wfc are    6 randomized atomic wfcs +    2 random wfc
     Checking if some PAW data can be deallocated... 

     total cpu time spent up to now is        6.7 secs

     Self-consistent Calculation

     iteration #  1     ecut=   300.00 Ry     beta= 0.70
     Davidson diagonalization with overlap
     ethr =  1.00E-02,  avg # of iterations =  6.0

     negative rho (up, down):  1.281E-05 0.000E+00

     total cpu time spent up to now is       11.3 secs

     total energy              =     -43.81715591 Ry
     Harris-Foulkes estimate   =     -44.13397412 Ry
     estimated scf accuracy    <       0.42833993 Ry

     iteration #  2     ecut=   300.00 Ry     beta= 0.70
     Davidson diagonalization with overlap
     ethr =  5.35E-03,  avg # of iterations =  3.0

     negative rho (up, down):  1.044E-06 0.000E+00

     total cpu time spent up to now is       15.3 secs

     total energy              =     -43.86723439 Ry
     Harris-Foulkes estimate   =     -44.14451050 Ry
     estimated scf accuracy    <       0.60669008 Ry

     iteration #  3     ecut=   300.00 Ry     beta= 0.70
     Davidson diagonalization with overlap
     ethr =  5.35E-03,  avg # of iterations =  1.0

     negative rho (up, down):  3.736E-07 0.000E+00

     total cpu time spent up to now is       18.8 secs

     total energy              =     -43.92718475 Ry
     Harris-Foulkes estimate   =     -43.94984721 Ry
     estimated scf accuracy    <       0.04917561 Ry

     iteration #  4     ecut=   300.00 Ry     beta= 0.70
     Davidson diagonalization with overlap
     ethr =  6.15E-04,  avg # of iterations =  3.0

     total cpu time spent up to now is       23.1 secs

     total energy              =     -44.00912584 Ry
     Harris-Foulkes estimate   =     -44.03084851 Ry
     estimated scf accuracy    <       0.08505799 Ry

     iteration #  5     ecut=   300.00 Ry     beta= 0.70
     Davidson diagonalization with overlap
     ethr =  6.15E-04,  avg # of iterations =  1.0

     total cpu time spent up to now is       26.6 secs

     total energy              =     -44.00074708 Ry
     Harris-Foulkes estimate   =     -44.01101598 Ry
     estimated scf accuracy    <       0.03818950 Ry

     iteration #  6     ecut=   300.00 Ry     beta= 0.70
     Davidson diagonalization with overlap
     ethr =  4.77E-04,  avg # of iterations =  2.0

     total cpu time spent up to now is       30.3 secs

     total energy              =     -44.00793335 Ry
     Harris-Foulkes estimate   =     -44.00793649 Ry
     estimated scf accuracy    <       0.00146856 Ry

     iteration #  7     ecut=   300.00 Ry     beta= 0.70
     Davidson diagonalization with overlap
     ethr =  1.84E-05,  avg # of iterations =  9.0

     total cpu time spent up to now is       35.1 secs

     total energy              =     -44.00812765 Ry
     Harris-Foulkes estimate   =     -44.00814427 Ry
     estimated scf accuracy    <       0.00131733 Ry

     iteration #  8     ecut=   300.00 Ry     beta= 0.70
     Davidson diagonalization with overlap
     ethr =  1.65E-05,  avg # of iterations =  1.0

     total cpu time spent up to now is       38.7 secs

     total energy              =     -44.00810819 Ry
     Harris-Foulkes estimate   =     -44.00813959 Ry
     estimated scf accuracy    <       0.00118247 Ry

     iteration #  9     ecut=   300.00 Ry     beta= 0.70
     Davidson diagonalization with overlap
     ethr =  1.48E-05,  avg # of iterations =  1.0

     negative rho (up, down):  1.168E-05 0.000E+00

     total cpu time spent up to now is       42.4 secs

     total energy              =     -44.00854680 Ry
     Harris-Foulkes estimate   =     -44.00811130 Ry
     estimated scf accuracy    <       0.00108756 Ry

     iteration # 10     ecut=   300.00 Ry     beta= 0.70
     Davidson diagonalization with overlap
     ethr =  1.36E-05,  avg # of iterations =  4.0

     negative rho (up, down):  1.715E-05 0.000E+00

     total cpu time spent up to now is       46.5 secs

     total energy              =     -44.00875140 Ry
     Harris-Foulkes estimate   =     -44.00876250 Ry
     estimated scf accuracy    <       0.00334328 Ry

     iteration # 11     ecut=   300.00 Ry     beta= 0.70
     Davidson diagonalization with overlap
     ethr =  1.36E-05,  avg # of iterations =  1.0

     negative rho (up, down):  1.659E-05 0.000E+00

     total cpu time spent up to now is       50.1 secs

     total energy              =     -44.00852178 Ry
     Harris-Foulkes estimate   =     -44.00875529 Ry
     estimated scf accuracy    <       0.00330607 Ry

     iteration # 12     ecut=   300.00 Ry     beta= 0.70
     Davidson diagonalization with overlap
     ethr =  1.36E-05,  avg # of iterations =  1.0

     negative rho (up, down):  1.059E-05 0.000E+00

     total cpu time spent up to now is       53.8 secs

     total energy              =     -44.00784300 Ry
     Harris-Foulkes estimate   =     -44.00853688 Ry
     estimated scf accuracy    <       0.00251080 Ry

     iteration # 13     ecut=   300.00 Ry     beta= 0.70
     Davidson diagonalization with overlap
     ethr =  1.36E-05,  avg # of iterations =  2.0

     negative rho (up, down):  9.566E-06 0.000E+00

     total cpu time spent up to now is       58.0 secs

     total energy              =     -44.00789504 Ry
     Harris-Foulkes estimate   =     -44.00796654 Ry
     estimated scf accuracy    <       0.00065698 Ry

     iteration # 14     ecut=   300.00 Ry     beta= 0.70
     Davidson diagonalization with overlap
     ethr =  8.21E-06,  avg # of iterations =  1.0

     negative rho (up, down):  1.065E-05 0.000E+00

     total cpu time spent up to now is       61.6 secs

     total energy              =     -44.00799320 Ry
     Harris-Foulkes estimate   =     -44.00791585 Ry
     estimated scf accuracy    <       0.00049866 Ry

     iteration # 15     ecut=   300.00 Ry     beta= 0.70
     Davidson diagonalization with overlap
     ethr =  6.23E-06,  avg # of iterations =  1.0

     negative rho (up, down):  1.800E-06 0.000E+00

     total cpu time spent up to now is       65.3 secs

     total energy              =     -44.00774610 Ry
     Harris-Foulkes estimate   =     -44.00800770 Ry
     estimated scf accuracy    <       0.00058406 Ry

     iteration # 16     ecut=   300.00 Ry     beta= 0.70
     Davidson diagonalization with overlap
     ethr =  6.23E-06,  avg # of iterations =  3.0

     negative rho (up, down):  7.627E-06 0.000E+00

     total cpu time spent up to now is       69.4 secs

     total energy              =     -44.00786170 Ry
     Harris-Foulkes estimate   =     -44.00788016 Ry
     estimated scf accuracy    <       0.00006661 Ry

     iteration # 17     ecut=   300.00 Ry     beta= 0.70
     Davidson diagonalization with overlap
     ethr =  8.33E-07,  avg # of iterations =  3.0

     negative rho (up, down):  6.122E-06 0.000E+00

     total cpu time spent up to now is       73.3 secs

     total energy              =     -44.00787270 Ry
     Harris-Foulkes estimate   =     -44.00787581 Ry
     estimated scf accuracy    <       0.00001212 Ry

     iteration # 18     ecut=   300.00 Ry     beta= 0.70
     Davidson diagonalization with overlap
     ethr =  1.52E-07,  avg # of iterations =  3.0

     negative rho (up, down):  3.735E-06 0.000E+00

     total cpu time spent up to now is       77.1 secs

     total energy              =     -44.00787670 Ry
     Harris-Foulkes estimate   =     -44.00787894 Ry
     estimated scf accuracy    <       0.00000871 Ry

     iteration # 19     ecut=   300.00 Ry     beta= 0.70
     Davidson diagonalization with overlap
     ethr =  1.09E-07,  avg # of iterations =  2.0

     negative rho (up, down):  6.518E-06 0.000E+00

     total cpu time spent up to now is       80.9 secs

     total energy              =     -44.00787752 Ry
     Harris-Foulkes estimate   =     -44.00787764 Ry
     estimated scf accuracy    <       0.00000340 Ry

     iteration # 20     ecut=   300.00 Ry     beta= 0.70
     Davidson diagonalization with overlap
     ethr =  4.25E-08,  avg # of iterations =  1.0

     negative rho (up, down):  7.998E-06 0.000E+00

     total cpu time spent up to now is       84.5 secs

     total energy              =     -44.00787703 Ry
     Harris-Foulkes estimate   =     -44.00787769 Ry
     estimated scf accuracy    <       0.00000331 Ry

     iteration # 21     ecut=   300.00 Ry     beta= 0.70
     Davidson diagonalization with overlap
     ethr =  4.14E-08,  avg # of iterations =  1.0

     negative rho (up, down):  6.500E-06 0.000E+00

     total cpu time spent up to now is       88.1 secs

     total energy              =     -44.00787668 Ry
     Harris-Foulkes estimate   =     -44.00787719 Ry
     estimated scf accuracy    <       0.00000179 Ry

     iteration # 22     ecut=   300.00 Ry     beta= 0.70
     Davidson diagonalization with overlap
     ethr =  2.24E-08,  avg # of iterations =  2.0

     negative rho (up, down):  6.682E-06 0.000E+00

     total cpu time spent up to now is       91.9 secs

     total energy              =     -44.00787670 Ry
     Harris-Foulkes estimate   =     -44.00787684 Ry
     estimated scf accuracy    <       0.00000041 Ry

     iteration # 23     ecut=   300.00 Ry     beta= 0.70
     Davidson diagonalization with overlap
     ethr =  5.07E-09,  avg # of iterations =  3.0

     negative rho (up, down):  6.720E-06 0.000E+00

     total cpu time spent up to now is       95.9 secs

     total energy              =     -44.00787687 Ry
     Harris-Foulkes estimate   =     -44.00787687 Ry
     estimated scf accuracy    <       0.00000005 Ry

     iteration # 24     ecut=   300.00 Ry     beta= 0.70
     Davidson diagonalization with overlap
     ethr =  5.90E-10,  avg # of iterations =  4.0

     negative rho (up, down):  6.807E-06 0.000E+00

     total cpu time spent up to now is      100.3 secs

     total energy              =     -44.00787688 Ry
     Harris-Foulkes estimate   =     -44.00787689 Ry
     estimated scf accuracy    <       0.00000004 Ry

     iteration # 25     ecut=   300.00 Ry     beta= 0.70
     Davidson diagonalization with overlap
     ethr =  5.15E-10,  avg # of iterations =  1.0

     negative rho (up, down):  6.780E-06 0.000E+00

     total cpu time spent up to now is      103.3 secs

     End of self-consistent calculation

          k = 0.0000 0.0000 0.0000 (701475 PWs)   bands (ev):

   -24.4779 -11.8826  -9.4431  -6.9930  -1.3239   0.2267   0.5187   1.0530

     the Fermi energy is    -4.9896 ev

!    total energy              =     -44.00787688 Ry
     Harris-Foulkes estimate   =     -44.00787688 Ry
     estimated scf accuracy    <          7.4E-09 Ry

     total all-electron energy =      -152.854758 Ry

     The total energy is the sum of the following terms:

     one-electron contribution =     -62.11941537 Ry
     hartree contribution      =      32.76880313 Ry
     xc contribution           =      -8.70640544 Ry
     ewald contribution        =       3.63836314 Ry
     one-center paw contrib.   =      -9.58922233 Ry
     smearing contrib. (-TS)   =       0.00000000 Ry

     convergence has been achieved in  25 iterations

     Writing output data file pwscf.save
 
     init_run     :      5.67s CPU      5.98s WALL (       1 calls)
     electrons    :     86.46s CPU     97.13s WALL (       1 calls)

     Called by init_run:
     wfcinit      :      0.55s CPU      0.66s WALL (       1 calls)
     potinit      :      0.85s CPU      0.90s WALL (       1 calls)

     Called by electrons:
     c_bands      :     33.35s CPU     33.68s WALL (      25 calls)
     sum_band     :     21.70s CPU     24.31s WALL (      25 calls)
     v_of_rho     :     14.81s CPU     15.34s WALL (      26 calls)
     newd         :      7.32s CPU      8.98s WALL (      26 calls)
     PAW_pot      :      0.26s CPU      0.28s WALL (      26 calls)
     mix_rho      :      9.23s CPU     14.38s WALL (      25 calls)

     Called by c_bands:
     init_us_2    :      0.48s CPU      0.51s WALL (      51 calls)
     cegterg      :     32.85s CPU     33.06s WALL (      25 calls)

     Called by sum_band:
     sum_band:bec :      0.00s CPU      0.00s WALL (      25 calls)
     addusdens    :     11.49s CPU     13.68s WALL (      25 calls)

     Called by *egterg:
     h_psi        :     31.51s CPU     31.69s WALL (      86 calls)
     s_psi        :      0.20s CPU      0.20s WALL (      86 calls)
     g_psi        :      0.07s CPU      0.07s WALL (      60 calls)
     cdiaghg      :      0.02s CPU      0.03s WALL (      85 calls)

     Called by h_psi:
     h_psi:pot    :     31.31s CPU     31.49s WALL (      86 calls)
     h_psi:calbec :      0.39s CPU      0.40s WALL (      86 calls)
     vloc_psi     :     30.73s CPU     30.89s WALL (      86 calls)
     add_vuspsi   :      0.19s CPU      0.19s WALL (      86 calls)

     General routines
     calbec       :      0.43s CPU      0.46s WALL (     111 calls)
     fft          :     17.89s CPU     18.84s WALL (     337 calls)
     fftw         :     33.48s CPU     33.88s WALL (    1192 calls)
     davcio       :      0.76s CPU      5.38s WALL (     407 calls)
 
     Parallel routines
     fft_scatt_xy :     11.57s CPU     11.72s WALL (    1529 calls)
     fft_scatt_yz :     13.88s CPU     14.93s WALL (    1529 calls)
 
     PWSCF        :  1m33.05s CPU     1m45.31s WALL

 
   This run was terminated on:  14:39: 4  18May2018            

=------------------------------------------------------------------------------=
   JOB DONE.
=------------------------------------------------------------------------------=
