
     Program PWSCF v.6.2 (svn rev. 14038) starts on 18May2018 at 14:42: 7 

     This program is part of the open-source Quantum ESPRESSO suite
     for quantum simulation of materials; please cite
         "P. Giannozzi et al., J. Phys.:Condens. Matter 21 395502 (2009);
         "P. Giannozzi et al., J. Phys.:Condens. Matter 29 465901 (2017);
          URL http://www.quantum-espresso.org", 
     in publications or presentations arising from this work. More details at
     http://www.quantum-espresso.org/quote

     Parallel version (MPI), running on    28 processors

     MPI processes distributed on     1 nodes
     R & G space division:  proc/nbgrp/npool/nimage =      28
     Reading input from ../ecut2-300/5500.in
Warning: card &IONS ignored
Warning: card     POT_EXTRAPOLATION='SECOND-ORDER' ignored
Warning: card     WFC_EXTRAPOLATION='SECOND-ORDER' ignored
Warning: card     ION_TEMPERATURE = 'ANDERSEN' ignored
Warning: card / ignored

     Current dimensions of program PWSCF are:
     Max number of different atomic species (ntypx) = 10
     Max number of k-points (npk) =  40000
     Max angular momentum in pseudopotentials (lmaxx) =  3
               file H.pbe-kjpaw_psl.1.0.0.UPF: wavefunction(s)  1S renormalized
               file O.pbe-n-kjpaw_psl.1.0.0.UPF: wavefunction(s)  2S 2P renormalized

     Subspace diagonalization in iterative solution of the eigenvalue problem:
     a serial algorithm will be used

 
     Parallelization info
     --------------------
     sticks:   dense  smooth     PW     G-vecs:    dense   smooth      PW
     Min        1364    1364    341               200576   200576   25051
     Max        1365    1365    342               200579   200579   25054
     Sum       38197   38197   9549              5616169  5616169  701475
 


     bravais-lattice index     =            1
     lattice parameter (alat)  =      20.0000  a.u.
     unit-cell volume          =    8000.0000 (a.u.)^3
     number of atoms/cell      =            3
     number of atomic types    =            2
     number of electrons       =         8.00
     number of Kohn-Sham states=            8
     kinetic-energy cutoff     =     300.0000  Ry
     charge density cutoff     =    1200.0000  Ry
     convergence threshold     =      1.0E-08
     mixing beta               =       0.7000
     number of iterations used =            8  plain     mixing
     Exchange-correlation      = SLA PW PBX PBC ( 1  4  3  4 0 0)

     celldm(1)=  20.000000  celldm(2)=   0.000000  celldm(3)=   0.000000
     celldm(4)=   0.000000  celldm(5)=   0.000000  celldm(6)=   0.000000

     crystal axes: (cart. coord. in units of alat)
               a(1) = (   1.000000   0.000000   0.000000 )  
               a(2) = (   0.000000   1.000000   0.000000 )  
               a(3) = (   0.000000   0.000000   1.000000 )  

     reciprocal axes: (cart. coord. in units 2 pi/alat)
               b(1) = (  1.000000  0.000000  0.000000 )  
               b(2) = (  0.000000  1.000000  0.000000 )  
               b(3) = (  0.000000  0.000000  1.000000 )  


     PseudoPot. # 1 for H  read from file:
     ../pslibrary/pbe/PSEUDOPOTENTIALS/H.pbe-kjpaw_psl.1.0.0.UPF
     MD5 check sum: e77ef4e89cfa2d6a63e4c80bb1a147aa
     Pseudo is Projector augmented-wave, Zval =  1.0
     Generated using "atomic" code by A. Dal Corso v.6.2 svn rev. 14038
     Shape of augmentation charge: PSQ
     Using radial grid of  929 points,  2 beta functions with: 
                l(1) =   0
                l(2) =   0
     Q(r) pseudized with 0 coefficients 


     PseudoPot. # 2 for O  read from file:
     ../pslibrary/pbe/PSEUDOPOTENTIALS/O.pbe-n-kjpaw_psl.1.0.0.UPF
     MD5 check sum: bb09017f9a02654af35f7312a94eda3e
     Pseudo is Projector augmented-wave + core cor, Zval =  6.0
     Generated using "atomic" code by A. Dal Corso v.6.2 svn rev. 14038
     Shape of augmentation charge: PSQ
     Using radial grid of 1095 points,  4 beta functions with: 
                l(1) =   0
                l(2) =   0
                l(3) =   1
                l(4) =   1
     Q(r) pseudized with 0 coefficients 


     atomic species   valence    mass     pseudopotential
        H              1.00     1.01000     H ( 1.00)
        O              6.00    16.00000     O ( 1.00)

     No symmetry found



   Cartesian axes

     site n.     atom                  positions (alat units)
         1           O   tau(   1) = (   0.0025643   0.0006510   0.0125866  )
         2           H   tau(   2) = (   0.0351142  -0.0521297  -0.1032954  )
         3           H   tau(   3) = (  -0.0757367   0.0418167  -0.0077318  )

     number of k points=     1  Marzari-Vanderbilt smearing, width (Ry)=  0.0250
                       cart. coord. in units 2pi/alat
        k(    1) = (   0.0000000   0.0000000   0.0000000), wk =   2.0000000

     Dense  grid:  5616169 G-vectors     FFT dimensions: ( 225, 225, 225)

     Estimated max dynamical RAM per process >     222.26 MB

     Estimated total dynamical RAM >       6.08 GB

     Initial potential from superposition of free atoms

     starting charge    7.99998, renormalised to    8.00000

     negative rho (up, down):  3.502E-05 0.000E+00
     Starting wfc are    6 randomized atomic wfcs +    2 random wfc
     Checking if some PAW data can be deallocated... 

     total cpu time spent up to now is        6.8 secs

     Self-consistent Calculation

     iteration #  1     ecut=   300.00 Ry     beta= 0.70
     Davidson diagonalization with overlap
     ethr =  1.00E-02,  avg # of iterations =  6.0

     negative rho (up, down):  1.042E-05 0.000E+00

     total cpu time spent up to now is       11.2 secs

     total energy              =     -43.65176416 Ry
     Harris-Foulkes estimate   =     -44.03798807 Ry
     estimated scf accuracy    <       0.51507745 Ry

     iteration #  2     ecut=   300.00 Ry     beta= 0.70
     Davidson diagonalization with overlap
     ethr =  6.44E-03,  avg # of iterations =  3.0

     negative rho (up, down):  1.522E-07 0.000E+00

     total cpu time spent up to now is       15.3 secs

     total energy              =     -43.63583265 Ry
     Harris-Foulkes estimate   =     -44.18075150 Ry
     estimated scf accuracy    <       1.42216069 Ry

     iteration #  3     ecut=   300.00 Ry     beta= 0.70
     Davidson diagonalization with overlap
     ethr =  6.44E-03,  avg # of iterations =  1.0

     total cpu time spent up to now is       18.7 secs

     total energy              =     -43.79998872 Ry
     Harris-Foulkes estimate   =     -43.81699251 Ry
     estimated scf accuracy    <       0.07300492 Ry

     iteration #  4     ecut=   300.00 Ry     beta= 0.70
     Davidson diagonalization with overlap
     ethr =  9.13E-04,  avg # of iterations =  3.0

     total cpu time spent up to now is       22.6 secs

     total energy              =     -43.90178551 Ry
     Harris-Foulkes estimate   =     -43.91256810 Ry
     estimated scf accuracy    <       0.04193303 Ry

     iteration #  5     ecut=   300.00 Ry     beta= 0.70
     Davidson diagonalization with overlap
     ethr =  5.24E-04,  avg # of iterations =  1.0

     total cpu time spent up to now is       26.1 secs

     total energy              =     -43.90140796 Ry
     Harris-Foulkes estimate   =     -43.90324621 Ry
     estimated scf accuracy    <       0.01321525 Ry

     iteration #  6     ecut=   300.00 Ry     beta= 0.70
     Davidson diagonalization with overlap
     ethr =  1.65E-04,  avg # of iterations =  4.0

     total cpu time spent up to now is       30.0 secs

     total energy              =     -43.90178220 Ry
     Harris-Foulkes estimate   =     -43.90209140 Ry
     estimated scf accuracy    <       0.00682487 Ry

     iteration #  7     ecut=   300.00 Ry     beta= 0.70
     Davidson diagonalization with overlap
     ethr =  8.53E-05,  avg # of iterations =  4.0

     total cpu time spent up to now is       33.8 secs

     total energy              =     -43.90197516 Ry
     Harris-Foulkes estimate   =     -43.90205388 Ry
     estimated scf accuracy    <       0.00459827 Ry

     iteration #  8     ecut=   300.00 Ry     beta= 0.70
     Davidson diagonalization with overlap
     ethr =  5.75E-05,  avg # of iterations =  3.0

     total cpu time spent up to now is       37.6 secs

     total energy              =     -43.90238519 Ry
     Harris-Foulkes estimate   =     -43.90243493 Ry
     estimated scf accuracy    <       0.00267888 Ry

     iteration #  9     ecut=   300.00 Ry     beta= 0.70
     Davidson diagonalization with overlap
     ethr =  3.35E-05,  avg # of iterations =  1.0

     negative rho (up, down):  4.613E-07 0.000E+00

     total cpu time spent up to now is       41.3 secs

     total energy              =     -43.90230377 Ry
     Harris-Foulkes estimate   =     -43.90241453 Ry
     estimated scf accuracy    <       0.00231121 Ry

     iteration # 10     ecut=   300.00 Ry     beta= 0.70
     Davidson diagonalization with overlap
     ethr =  2.89E-05,  avg # of iterations =  1.0

     negative rho (up, down):  3.179E-05 0.000E+00

     total cpu time spent up to now is       44.9 secs

     total energy              =     -43.90214969 Ry
     Harris-Foulkes estimate   =     -43.90231870 Ry
     estimated scf accuracy    <       0.00194515 Ry

     iteration # 11     ecut=   300.00 Ry     beta= 0.70
     Davidson diagonalization with overlap
     ethr =  2.43E-05,  avg # of iterations =  1.0

     negative rho (up, down):  3.413E-05 0.000E+00

     total cpu time spent up to now is       48.5 secs

     total energy              =     -43.90205084 Ry
     Harris-Foulkes estimate   =     -43.90216580 Ry
     estimated scf accuracy    <       0.00139873 Ry

     iteration # 12     ecut=   300.00 Ry     beta= 0.70
     Davidson diagonalization with overlap
     ethr =  1.75E-05,  avg # of iterations =  7.0

     negative rho (up, down):  4.073E-05 0.000E+00

     total cpu time spent up to now is       52.7 secs

     total energy              =     -43.90206844 Ry
     Harris-Foulkes estimate   =     -43.90208987 Ry
     estimated scf accuracy    <       0.00084893 Ry

     iteration # 13     ecut=   300.00 Ry     beta= 0.70
     Davidson diagonalization with overlap
     ethr =  1.06E-05,  avg # of iterations =  1.0

     negative rho (up, down):  4.062E-05 0.000E+00

     total cpu time spent up to now is       57.1 secs

     total energy              =     -43.90206831 Ry
     Harris-Foulkes estimate   =     -43.90207327 Ry
     estimated scf accuracy    <       0.00074600 Ry

     iteration # 14     ecut=   300.00 Ry     beta= 0.70
     Davidson diagonalization with overlap
     ethr =  9.33E-06,  avg # of iterations =  1.0

     negative rho (up, down):  4.097E-05 0.000E+00

     total cpu time spent up to now is       60.7 secs

     total energy              =     -43.90207816 Ry
     Harris-Foulkes estimate   =     -43.90207157 Ry
     estimated scf accuracy    <       0.00073203 Ry

     iteration # 15     ecut=   300.00 Ry     beta= 0.70
     Davidson diagonalization with overlap
     ethr =  9.15E-06,  avg # of iterations =  1.0

     negative rho (up, down):  4.733E-05 0.000E+00

     total cpu time spent up to now is       64.4 secs

     total energy              =     -43.90218214 Ry
     Harris-Foulkes estimate   =     -43.90208192 Ry
     estimated scf accuracy    <       0.00070745 Ry

     iteration # 16     ecut=   300.00 Ry     beta= 0.70
     Davidson diagonalization with overlap
     ethr =  8.84E-06,  avg # of iterations =  1.0

     negative rho (up, down):  1.816E-05 0.000E+00

     total cpu time spent up to now is       68.0 secs

     total energy              =     -43.90173283 Ry
     Harris-Foulkes estimate   =     -43.90218738 Ry
     estimated scf accuracy    <       0.00098077 Ry

     iteration # 17     ecut=   300.00 Ry     beta= 0.70
     Davidson diagonalization with overlap
     ethr =  8.84E-06,  avg # of iterations =  1.0

     negative rho (up, down):  9.219E-06 0.000E+00

     total cpu time spent up to now is       71.7 secs

     total energy              =     -43.90183516 Ry
     Harris-Foulkes estimate   =     -43.90184152 Ry
     estimated scf accuracy    <       0.00003627 Ry

     iteration # 18     ecut=   300.00 Ry     beta= 0.70
     Davidson diagonalization with overlap
     c_bands:  1 eigenvalues not converged
     ethr =  4.53E-07,  avg # of iterations = 20.0

     negative rho (up, down):  5.657E-06 0.000E+00

     total cpu time spent up to now is       77.4 secs

     total energy              =     -43.90195186 Ry
     Harris-Foulkes estimate   =     -43.90196024 Ry
     estimated scf accuracy    <       0.00008099 Ry

     iteration # 19     ecut=   300.00 Ry     beta= 0.70
     Davidson diagonalization with overlap
     ethr =  4.53E-07,  avg # of iterations = 16.0

     negative rho (up, down):  4.683E-06 0.000E+00

     total cpu time spent up to now is       82.2 secs

     total energy              =     -43.90194789 Ry
     Harris-Foulkes estimate   =     -43.90195238 Ry
     estimated scf accuracy    <       0.00005624 Ry

     iteration # 20     ecut=   300.00 Ry     beta= 0.70
     Davidson diagonalization with overlap
     ethr =  4.53E-07,  avg # of iterations =  1.0

     negative rho (up, down):  7.894E-06 0.000E+00

     total cpu time spent up to now is       85.9 secs

     total energy              =     -43.90194605 Ry
     Harris-Foulkes estimate   =     -43.90194839 Ry
     estimated scf accuracy    <       0.00004005 Ry

     iteration # 21     ecut=   300.00 Ry     beta= 0.70
     Davidson diagonalization with overlap
     ethr =  4.53E-07,  avg # of iterations =  1.0

     negative rho (up, down):  8.007E-06 0.000E+00

     total cpu time spent up to now is       89.6 secs

     total energy              =     -43.90194013 Ry
     Harris-Foulkes estimate   =     -43.90194622 Ry
     estimated scf accuracy    <       0.00003182 Ry

     iteration # 22     ecut=   300.00 Ry     beta= 0.70
     Davidson diagonalization with overlap
     ethr =  3.98E-07,  avg # of iterations =  1.0

     negative rho (up, down):  6.804E-06 0.000E+00

     total cpu time spent up to now is       93.2 secs

     total energy              =     -43.90194471 Ry
     Harris-Foulkes estimate   =     -43.90194130 Ry
     estimated scf accuracy    <       0.00001305 Ry

     iteration # 23     ecut=   300.00 Ry     beta= 0.70
     Davidson diagonalization with overlap
     ethr =  1.63E-07,  avg # of iterations =  1.0

     negative rho (up, down):  6.498E-06 0.000E+00

     total cpu time spent up to now is       97.2 secs

     total energy              =     -43.90194327 Ry
     Harris-Foulkes estimate   =     -43.90194523 Ry
     estimated scf accuracy    <       0.00002402 Ry

     iteration # 24     ecut=   300.00 Ry     beta= 0.70
     Davidson diagonalization with overlap
     ethr =  1.63E-07,  avg # of iterations =  1.0

     negative rho (up, down):  5.792E-06 0.000E+00

     total cpu time spent up to now is      100.9 secs

     total energy              =     -43.90194106 Ry
     Harris-Foulkes estimate   =     -43.90194339 Ry
     estimated scf accuracy    <       0.00001826 Ry

     iteration # 25     ecut=   300.00 Ry     beta= 0.70
     Davidson diagonalization with overlap
     ethr =  1.63E-07,  avg # of iterations =  1.0

     negative rho (up, down):  5.982E-06 0.000E+00

     total cpu time spent up to now is      104.7 secs

     total energy              =     -43.90194048 Ry
     Harris-Foulkes estimate   =     -43.90194129 Ry
     estimated scf accuracy    <       0.00001109 Ry

     iteration # 26     ecut=   300.00 Ry     beta= 0.70
     Davidson diagonalization with overlap
     ethr =  1.39E-07,  avg # of iterations =  1.0

     negative rho (up, down):  7.161E-06 0.000E+00

     total cpu time spent up to now is      108.3 secs

     total energy              =     -43.90193699 Ry
     Harris-Foulkes estimate   =     -43.90194063 Ry
     estimated scf accuracy    <       0.00000868 Ry

     iteration # 27     ecut=   300.00 Ry     beta= 0.70
     Davidson diagonalization with overlap
     ethr =  1.08E-07,  avg # of iterations =  1.0

     negative rho (up, down):  7.222E-06 0.000E+00

     total cpu time spent up to now is      112.0 secs

     total energy              =     -43.90193736 Ry
     Harris-Foulkes estimate   =     -43.90193778 Ry
     estimated scf accuracy    <       0.00000120 Ry

     iteration # 28     ecut=   300.00 Ry     beta= 0.70
     Davidson diagonalization with overlap
     ethr =  1.50E-08,  avg # of iterations =  3.0

     negative rho (up, down):  6.441E-06 0.000E+00

     total cpu time spent up to now is      116.1 secs

     total energy              =     -43.90193918 Ry
     Harris-Foulkes estimate   =     -43.90194013 Ry
     estimated scf accuracy    <       0.00000216 Ry

     iteration # 29     ecut=   300.00 Ry     beta= 0.70
     Davidson diagonalization with overlap
     ethr =  1.50E-08,  avg # of iterations =  1.0

     negative rho (up, down):  6.292E-06 0.000E+00

     total cpu time spent up to now is      119.8 secs

     total energy              =     -43.90193922 Ry
     Harris-Foulkes estimate   =     -43.90193930 Ry
     estimated scf accuracy    <       0.00000033 Ry

     iteration # 30     ecut=   300.00 Ry     beta= 0.70
     Davidson diagonalization with overlap
     ethr =  4.14E-09,  avg # of iterations =  3.0

     negative rho (up, down):  6.351E-06 0.000E+00

     total cpu time spent up to now is      124.0 secs

     total energy              =     -43.90193950 Ry
     Harris-Foulkes estimate   =     -43.90193952 Ry
     estimated scf accuracy    <       0.00000005 Ry

     iteration # 31     ecut=   300.00 Ry     beta= 0.70
     Davidson diagonalization with overlap
     ethr =  6.12E-10,  avg # of iterations =  1.0

     negative rho (up, down):  6.352E-06 0.000E+00

     total cpu time spent up to now is      127.6 secs

     total energy              =     -43.90193950 Ry
     Harris-Foulkes estimate   =     -43.90193950 Ry
     estimated scf accuracy    <       0.00000002 Ry

     iteration # 32     ecut=   300.00 Ry     beta= 0.70
     Davidson diagonalization with overlap
     ethr =  2.47E-10,  avg # of iterations =  2.0

     negative rho (up, down):  6.371E-06 0.000E+00

     total cpu time spent up to now is      130.7 secs

     End of self-consistent calculation

          k = 0.0000 0.0000 0.0000 (701475 PWs)   bands (ev):

   -24.0454 -11.3328  -9.0261  -6.8406  -2.7436  -0.1725   0.5062   0.9774

     the Fermi energy is    -4.9382 ev

!    total energy              =     -43.90193950 Ry
     Harris-Foulkes estimate   =     -43.90193950 Ry
     estimated scf accuracy    <          7.5E-09 Ry

     total all-electron energy =      -152.748821 Ry

     The total energy is the sum of the following terms:

     one-electron contribution =     -60.35311938 Ry
     hartree contribution      =      31.92656259 Ry
     xc contribution           =      -8.59341454 Ry
     ewald contribution        =       2.70945129 Ry
     one-center paw contrib.   =      -9.59141945 Ry
     smearing contrib. (-TS)   =       0.00000000 Ry

     convergence has been achieved in  32 iterations

     Writing output data file pwscf.save
 
     init_run     :      5.70s CPU      6.01s WALL (       1 calls)
     electrons    :    110.63s CPU    124.56s WALL (       1 calls)

     Called by init_run:
     wfcinit      :      0.57s CPU      0.62s WALL (       1 calls)
     potinit      :      0.85s CPU      0.90s WALL (       1 calls)

     Called by electrons:
     c_bands      :     41.46s CPU     42.42s WALL (      32 calls)
     sum_band     :     28.14s CPU     31.12s WALL (      32 calls)
     v_of_rho     :     18.76s CPU     19.43s WALL (      33 calls)
     newd         :      9.22s CPU     11.47s WALL (      33 calls)
     PAW_pot      :      0.31s CPU      0.34s WALL (      33 calls)
     mix_rho      :     12.77s CPU     19.26s WALL (      32 calls)

     Called by c_bands:
     init_us_2    :      0.59s CPU      0.65s WALL (      65 calls)
     cegterg      :     40.82s CPU     41.63s WALL (      32 calls)

     Called by sum_band:
     sum_band:bec :      0.00s CPU      0.00s WALL (      32 calls)
     addusdens    :     15.04s CPU     17.52s WALL (      32 calls)

     Called by *egterg:
     h_psi        :     38.93s CPU     39.66s WALL (     127 calls)
     s_psi        :      0.27s CPU      0.28s WALL (     127 calls)
     g_psi        :      0.09s CPU      0.09s WALL (      94 calls)
     cdiaghg      :      0.03s CPU      0.03s WALL (     126 calls)

     Called by h_psi:
     h_psi:pot    :     38.67s CPU     39.40s WALL (     127 calls)
     h_psi:calbec :      0.53s CPU      0.57s WALL (     127 calls)
     vloc_psi     :     37.87s CPU     38.57s WALL (     127 calls)
     add_vuspsi   :      0.26s CPU      0.26s WALL (     127 calls)

     General routines
     calbec       :      0.59s CPU      0.65s WALL (     159 calls)
     fft          :     22.81s CPU     23.99s WALL (     428 calls)
     fftw         :     41.58s CPU     42.48s WALL (    1510 calls)
     davcio       :      1.01s CPU      6.77s WALL (     547 calls)
 
     Parallel routines
     fft_scatt_xy :     14.67s CPU     14.95s WALL (    1938 calls)
     fft_scatt_yz :     17.08s CPU     18.43s WALL (    1938 calls)
 
     PWSCF        :  1m57.45s CPU     2m12.74s WALL

 
   This run was terminated on:  14:44:20  18May2018            

=------------------------------------------------------------------------------=
   JOB DONE.
=------------------------------------------------------------------------------=
