
     Program PWSCF v.6.2 (svn rev. 14038) starts on 12May2018 at  5:21:27 

     This program is part of the open-source Quantum ESPRESSO suite
     for quantum simulation of materials; please cite
         "P. Giannozzi et al., J. Phys.:Condens. Matter 21 395502 (2009);
         "P. Giannozzi et al., J. Phys.:Condens. Matter 29 465901 (2017);
          URL http://www.quantum-espresso.org", 
     in publications or presentations arising from this work. More details at
     http://www.quantum-espresso.org/quote

     Parallel version (MPI), running on    28 processors

     MPI processes distributed on     1 nodes
     R & G space division:  proc/nbgrp/npool/nimage =      28
     Reading input from ../ecut60/1000.in
Warning: card &IONS ignored
Warning: card     POT_EXTRAPOLATION='SECOND-ORDER' ignored
Warning: card     WFC_EXTRAPOLATION='SECOND-ORDER' ignored
Warning: card     ION_TEMPERATURE = 'ANDERSEN' ignored
Warning: card / ignored

     Current dimensions of program PWSCF are:
     Max number of different atomic species (ntypx) = 10
     Max number of k-points (npk) =  40000
     Max angular momentum in pseudopotentials (lmaxx) =  3

     Subspace diagonalization in iterative solution of the eigenvalue problem:
     a serial algorithm will be used

 
     Parallelization info
     --------------------
     sticks:   dense  smooth     PW     G-vecs:    dense   smooth      PW
     Min         273     273     67                17945    17945    2235
     Max         274     274     68                17950    17950    2240
     Sum        7645    7645   1901               502479   502479   62669
 


     bravais-lattice index     =            1
     lattice parameter (alat)  =      20.0000  a.u.
     unit-cell volume          =    8000.0000 (a.u.)^3
     number of atoms/cell      =            3
     number of atomic types    =            2
     number of electrons       =         8.00
     number of Kohn-Sham states=            8
     kinetic-energy cutoff     =      60.0000  Ry
     charge density cutoff     =     240.0000  Ry
     convergence threshold     =      1.0E-08
     mixing beta               =       0.7000
     number of iterations used =            8  plain     mixing
     Exchange-correlation      = PBE ( 1  4  3  4 0 0)

     celldm(1)=  20.000000  celldm(2)=   0.000000  celldm(3)=   0.000000
     celldm(4)=   0.000000  celldm(5)=   0.000000  celldm(6)=   0.000000

     crystal axes: (cart. coord. in units of alat)
               a(1) = (   1.000000   0.000000   0.000000 )  
               a(2) = (   0.000000   1.000000   0.000000 )  
               a(3) = (   0.000000   0.000000   1.000000 )  

     reciprocal axes: (cart. coord. in units 2 pi/alat)
               b(1) = (  1.000000  0.000000  0.000000 )  
               b(2) = (  0.000000  1.000000  0.000000 )  
               b(3) = (  0.000000  0.000000  1.000000 )  


     PseudoPot. # 1 for H  read from file:
     ../pslibrary/pbe/PSEUDOPOTENTIALS/H.pbe-rrkjus_psl.1.0.0.UPF
     MD5 check sum: b2b1ff84b4ceabe23335d1bf25025923
     Pseudo is Ultrasoft, Zval =  1.0
     Generated using "atomic" code by A. Dal Corso v.6.2 svn rev. 14038
     Using radial grid of  929 points,  2 beta functions with: 
                l(1) =   0
                l(2) =   0
     Q(r) pseudized with 0 coefficients 


     PseudoPot. # 2 for O  read from file:
     ../pslibrary/pbe/PSEUDOPOTENTIALS/O.pbe-n-rrkjus_psl.1.0.0.UPF
     MD5 check sum: 61455b21a47f6823f888c3bfb9bd1235
     Pseudo is Ultrasoft + core correction, Zval =  6.0
     Generated using "atomic" code by A. Dal Corso v.6.2 svn rev. 14038
     Using radial grid of 1095 points,  4 beta functions with: 
                l(1) =   0
                l(2) =   0
                l(3) =   1
                l(4) =   1
     Q(r) pseudized with 0 coefficients 


     atomic species   valence    mass     pseudopotential
        H              1.00     1.01000     H ( 1.00)
        O              6.00    16.00000     O ( 1.00)

     No symmetry found



   Cartesian axes

     site n.     atom                  positions (alat units)
         1           O   tau(   1) = (   0.0029113   0.0053424   0.0061959  )
         2           H   tau(   2) = (  -0.0600680   0.0170295   0.0801483  )
         3           H   tau(   3) = (   0.0139478  -0.1016613  -0.0899374  )

     number of k points=     1  Marzari-Vanderbilt smearing, width (Ry)=  0.0250
                       cart. coord. in units 2pi/alat
        k(    1) = (   0.0000000   0.0000000   0.0000000), wk =   2.0000000

     Dense  grid:   502479 G-vectors     FFT dimensions: ( 100, 100, 100)

     Estimated max dynamical RAM per process >      21.64 MB

     Estimated total dynamical RAM >     605.96 MB

     Check: negative/imaginary core charge=   -0.000001    0.000000

     Initial potential from superposition of free atoms
     Check: negative starting charge=   -0.004757

     starting charge    7.99998, renormalised to    8.00000

     negative rho (up, down):  4.757E-03 0.000E+00
     Starting wfc are    6 randomized atomic wfcs +    2 random wfc

     total cpu time spent up to now is        1.1 secs

     Self-consistent Calculation

     iteration #  1     ecut=    60.00 Ry     beta= 0.70
     Davidson diagonalization with overlap
     ethr =  1.00E-02,  avg # of iterations =  7.0

     negative rho (up, down):  6.319E-03 0.000E+00

     total cpu time spent up to now is        1.3 secs

     total energy              =     -34.22587044 Ry
     Harris-Foulkes estimate   =     -34.68459857 Ry
     estimated scf accuracy    <       0.61256601 Ry

     iteration #  2     ecut=    60.00 Ry     beta= 0.70
     Davidson diagonalization with overlap
     ethr =  7.66E-03,  avg # of iterations =  3.0

     negative rho (up, down):  4.766E-03 0.000E+00

     total cpu time spent up to now is        1.5 secs

     total energy              =     -34.12244301 Ry
     Harris-Foulkes estimate   =     -35.00056478 Ry
     estimated scf accuracy    <       2.62741964 Ry

     iteration #  3     ecut=    60.00 Ry     beta= 0.70
     Davidson diagonalization with overlap
     ethr =  7.66E-03,  avg # of iterations =  1.0

     negative rho (up, down):  4.336E-03 0.000E+00

     total cpu time spent up to now is        1.6 secs

     total energy              =     -34.38396210 Ry
     Harris-Foulkes estimate   =     -34.40486669 Ry
     estimated scf accuracy    <       0.14814843 Ry

     iteration #  4     ecut=    60.00 Ry     beta= 0.70
     Davidson diagonalization with overlap
     ethr =  1.85E-03,  avg # of iterations =  3.0

     negative rho (up, down):  4.842E-03 0.000E+00

     total cpu time spent up to now is        1.8 secs

     total energy              =     -34.53297358 Ry
     Harris-Foulkes estimate   =     -34.55007455 Ry
     estimated scf accuracy    <       0.05329178 Ry

     iteration #  5     ecut=    60.00 Ry     beta= 0.70
     Davidson diagonalization with overlap
     ethr =  6.66E-04,  avg # of iterations =  1.0

     negative rho (up, down):  5.023E-03 0.000E+00

     total cpu time spent up to now is        1.9 secs

     total energy              =     -34.53653104 Ry
     Harris-Foulkes estimate   =     -34.53721636 Ry
     estimated scf accuracy    <       0.00509817 Ry

     iteration #  6     ecut=    60.00 Ry     beta= 0.70
     Davidson diagonalization with overlap
     ethr =  6.37E-05,  avg # of iterations =  8.0

     negative rho (up, down):  5.138E-03 0.000E+00

     total cpu time spent up to now is        2.1 secs

     total energy              =     -34.53843046 Ry
     Harris-Foulkes estimate   =     -34.53850474 Ry
     estimated scf accuracy    <       0.00076549 Ry

     iteration #  7     ecut=    60.00 Ry     beta= 0.70
     Davidson diagonalization with overlap
     ethr =  9.57E-06,  avg # of iterations = 10.0

     negative rho (up, down):  5.324E-03 0.000E+00

     total cpu time spent up to now is        2.2 secs

     total energy              =     -34.53835279 Ry
     Harris-Foulkes estimate   =     -34.53845412 Ry
     estimated scf accuracy    <       0.00062905 Ry

     iteration #  8     ecut=    60.00 Ry     beta= 0.70
     Davidson diagonalization with overlap
     ethr =  7.86E-06,  avg # of iterations =  1.0

     negative rho (up, down):  5.380E-03 0.000E+00

     total cpu time spent up to now is        2.4 secs

     total energy              =     -34.53832348 Ry
     Harris-Foulkes estimate   =     -34.53836337 Ry
     estimated scf accuracy    <       0.00032197 Ry

     iteration #  9     ecut=    60.00 Ry     beta= 0.70
     Davidson diagonalization with overlap
     ethr =  4.02E-06,  avg # of iterations =  1.0

     negative rho (up, down):  5.392E-03 0.000E+00

     total cpu time spent up to now is        2.5 secs

     total energy              =     -34.53832211 Ry
     Harris-Foulkes estimate   =     -34.53833218 Ry
     estimated scf accuracy    <       0.00019142 Ry

     iteration # 10     ecut=    60.00 Ry     beta= 0.70
     Davidson diagonalization with overlap
     ethr =  2.39E-06,  avg # of iterations =  1.0

     negative rho (up, down):  5.402E-03 0.000E+00

     total cpu time spent up to now is        2.6 secs

     total energy              =     -34.53831948 Ry
     Harris-Foulkes estimate   =     -34.53832669 Ry
     estimated scf accuracy    <       0.00013914 Ry

     iteration # 11     ecut=    60.00 Ry     beta= 0.70
     Davidson diagonalization with overlap
     ethr =  1.74E-06,  avg # of iterations =  1.0

     negative rho (up, down):  5.423E-03 0.000E+00

     total cpu time spent up to now is        2.8 secs

     total energy              =     -34.53831499 Ry
     Harris-Foulkes estimate   =     -34.53832507 Ry
     estimated scf accuracy    <       0.00009916 Ry

     iteration # 12     ecut=    60.00 Ry     beta= 0.70
     Davidson diagonalization with overlap
     ethr =  1.24E-06,  avg # of iterations =  1.0

     negative rho (up, down):  5.496E-03 0.000E+00

     total cpu time spent up to now is        2.9 secs

     total energy              =     -34.53829824 Ry
     Harris-Foulkes estimate   =     -34.53831927 Ry
     estimated scf accuracy    <       0.00005662 Ry

     iteration # 13     ecut=    60.00 Ry     beta= 0.70
     Davidson diagonalization with overlap
     ethr =  7.08E-07,  avg # of iterations =  3.0

     negative rho (up, down):  5.490E-03 0.000E+00

     total cpu time spent up to now is        3.0 secs

     total energy              =     -34.53832963 Ry
     Harris-Foulkes estimate   =     -34.53833109 Ry
     estimated scf accuracy    <       0.00001428 Ry

     iteration # 14     ecut=    60.00 Ry     beta= 0.70
     Davidson diagonalization with overlap
     ethr =  1.78E-07,  avg # of iterations =  1.0

     negative rho (up, down):  5.489E-03 0.000E+00

     total cpu time spent up to now is        3.2 secs

     total energy              =     -34.53832903 Ry
     Harris-Foulkes estimate   =     -34.53832970 Ry
     estimated scf accuracy    <       0.00001063 Ry

     iteration # 15     ecut=    60.00 Ry     beta= 0.70
     Davidson diagonalization with overlap
     ethr =  1.33E-07,  avg # of iterations =  1.0

     negative rho (up, down):  5.483E-03 0.000E+00

     total cpu time spent up to now is        3.3 secs

     total energy              =     -34.53832718 Ry
     Harris-Foulkes estimate   =     -34.53832914 Ry
     estimated scf accuracy    <       0.00000787 Ry

     iteration # 16     ecut=    60.00 Ry     beta= 0.70
     Davidson diagonalization with overlap
     ethr =  9.84E-08,  avg # of iterations =  1.0

     negative rho (up, down):  5.486E-03 0.000E+00

     total cpu time spent up to now is        3.4 secs

     total energy              =     -34.53832678 Ry
     Harris-Foulkes estimate   =     -34.53832746 Ry
     estimated scf accuracy    <       0.00000297 Ry

     iteration # 17     ecut=    60.00 Ry     beta= 0.70
     Davidson diagonalization with overlap
     ethr =  3.71E-08,  avg # of iterations =  2.0

     negative rho (up, down):  5.482E-03 0.000E+00

     total cpu time spent up to now is        3.6 secs

     total energy              =     -34.53832756 Ry
     Harris-Foulkes estimate   =     -34.53832750 Ry
     estimated scf accuracy    <       0.00000039 Ry

     iteration # 18     ecut=    60.00 Ry     beta= 0.70
     Davidson diagonalization with overlap
     ethr =  4.89E-09,  avg # of iterations =  1.0

     negative rho (up, down):  5.486E-03 0.000E+00

     total cpu time spent up to now is        3.7 secs

     total energy              =     -34.53832744 Ry
     Harris-Foulkes estimate   =     -34.53832759 Ry
     estimated scf accuracy    <       0.00000068 Ry

     iteration # 19     ecut=    60.00 Ry     beta= 0.70
     Davidson diagonalization with overlap
     ethr =  4.89E-09,  avg # of iterations =  1.0

     negative rho (up, down):  5.487E-03 0.000E+00

     total cpu time spent up to now is        3.9 secs

     total energy              =     -34.53832744 Ry
     Harris-Foulkes estimate   =     -34.53832748 Ry
     estimated scf accuracy    <       0.00000028 Ry

     iteration # 20     ecut=    60.00 Ry     beta= 0.70
     Davidson diagonalization with overlap
     ethr =  3.50E-09,  avg # of iterations =  3.0

     negative rho (up, down):  5.488E-03 0.000E+00

     total cpu time spent up to now is        4.0 secs

     total energy              =     -34.53832740 Ry
     Harris-Foulkes estimate   =     -34.53832749 Ry
     estimated scf accuracy    <       0.00000022 Ry

     iteration # 21     ecut=    60.00 Ry     beta= 0.70
     Davidson diagonalization with overlap
     ethr =  2.78E-09,  avg # of iterations =  1.0

     negative rho (up, down):  5.490E-03 0.000E+00

     total cpu time spent up to now is        4.1 secs

     total energy              =     -34.53832740 Ry
     Harris-Foulkes estimate   =     -34.53832741 Ry
     estimated scf accuracy    <       0.00000004 Ry

     iteration # 22     ecut=    60.00 Ry     beta= 0.70
     Davidson diagonalization with overlap
     ethr =  4.61E-10,  avg # of iterations =  3.0

     negative rho (up, down):  5.489E-03 0.000E+00

     total cpu time spent up to now is        4.3 secs

     total energy              =     -34.53832743 Ry
     Harris-Foulkes estimate   =     -34.53832743 Ry
     estimated scf accuracy    <       0.00000002 Ry

     iteration # 23     ecut=    60.00 Ry     beta= 0.70
     Davidson diagonalization with overlap
     ethr =  2.86E-10,  avg # of iterations =  1.0

     negative rho (up, down):  5.490E-03 0.000E+00

     total cpu time spent up to now is        4.4 secs

     total energy              =     -34.53832742 Ry
     Harris-Foulkes estimate   =     -34.53832743 Ry
     estimated scf accuracy    <       0.00000002 Ry

     iteration # 24     ecut=    60.00 Ry     beta= 0.70
     Davidson diagonalization with overlap
     ethr =  1.97E-10,  avg # of iterations =  1.0

     negative rho (up, down):  5.490E-03 0.000E+00

     total cpu time spent up to now is        4.5 secs

     End of self-consistent calculation

          k = 0.0000 0.0000 0.0000 ( 62669 PWs)   bands (ev):

   -23.1848 -11.3828  -7.7507  -6.5376  -3.9436  -0.3796   0.2668   0.8971

     the Fermi energy is    -6.2243 ev

!    total energy              =     -34.53832742 Ry
     Harris-Foulkes estimate   =     -34.53832742 Ry
     estimated scf accuracy    <          8.7E-11 Ry

     The total energy is the sum of the following terms:

     one-electron contribution =     -58.92669413 Ry
     hartree contribution      =      31.14401038 Ry
     xc contribution           =      -8.47392195 Ry
     ewald contribution        =       1.71420077 Ry
     smearing contrib. (-TS)   =       0.00407751 Ry

     convergence has been achieved in  24 iterations

     Writing output data file pwscf.save
 
     init_run     :      0.35s CPU      0.40s WALL (       1 calls)
     electrons    :      2.95s CPU      3.49s WALL (       1 calls)

     Called by init_run:
     wfcinit      :      0.07s CPU      0.10s WALL (       1 calls)
     potinit      :      0.05s CPU      0.06s WALL (       1 calls)

     Called by electrons:
     c_bands      :      0.88s CPU      0.91s WALL (      24 calls)
     sum_band     :      0.68s CPU      0.70s WALL (      24 calls)
     v_of_rho     :      0.58s CPU      0.60s WALL (      25 calls)
     newd         :      0.36s CPU      0.37s WALL (      25 calls)
     mix_rho      :      0.38s CPU      0.74s WALL (      24 calls)

     Called by c_bands:
     init_us_2    :      0.03s CPU      0.03s WALL (      49 calls)
     cegterg      :      0.85s CPU      0.86s WALL (      24 calls)

     Called by sum_band:
     sum_band:bec :      0.00s CPU      0.00s WALL (      24 calls)
     addusdens    :      0.45s CPU      0.45s WALL (      24 calls)

     Called by *egterg:
     h_psi        :      0.78s CPU      0.80s WALL (      82 calls)
     s_psi        :      0.01s CPU      0.01s WALL (      82 calls)
     g_psi        :      0.01s CPU      0.01s WALL (      57 calls)
     cdiaghg      :      0.02s CPU      0.02s WALL (      81 calls)

     Called by h_psi:
     h_psi:pot    :      0.77s CPU      0.79s WALL (      82 calls)
     h_psi:calbec :      0.03s CPU      0.03s WALL (      82 calls)
     vloc_psi     :      0.74s CPU      0.75s WALL (      82 calls)
     add_vuspsi   :      0.01s CPU      0.01s WALL (      82 calls)

     General routines
     calbec       :      0.03s CPU      0.03s WALL (     106 calls)
     fft          :      0.42s CPU      0.43s WALL (     324 calls)
     fftw         :      0.79s CPU      0.81s WALL (    1124 calls)
     davcio       :      0.05s CPU      0.33s WALL (     387 calls)
 
     Parallel routines
     fft_scatt_xy :      0.10s CPU      0.10s WALL (    1448 calls)
     fft_scatt_yz :      0.45s CPU      0.47s WALL (    1448 calls)
 
     PWSCF        :     3.93s CPU         4.86s WALL

 
   This run was terminated on:   5:21:32  12May2018            

=------------------------------------------------------------------------------=
   JOB DONE.
=------------------------------------------------------------------------------=
