
     Program PWSCF v.6.2 (svn rev. 14038) starts on 12May2018 at  5:24:16 

     This program is part of the open-source Quantum ESPRESSO suite
     for quantum simulation of materials; please cite
         "P. Giannozzi et al., J. Phys.:Condens. Matter 21 395502 (2009);
         "P. Giannozzi et al., J. Phys.:Condens. Matter 29 465901 (2017);
          URL http://www.quantum-espresso.org", 
     in publications or presentations arising from this work. More details at
     http://www.quantum-espresso.org/quote

     Parallel version (MPI), running on    28 processors

     MPI processes distributed on     1 nodes
     R & G space division:  proc/nbgrp/npool/nimage =      28
     Reading input from ../ecut60/15000.in
Warning: card &IONS ignored
Warning: card     POT_EXTRAPOLATION='SECOND-ORDER' ignored
Warning: card     WFC_EXTRAPOLATION='SECOND-ORDER' ignored
Warning: card     ION_TEMPERATURE = 'ANDERSEN' ignored
Warning: card / ignored

     Current dimensions of program PWSCF are:
     Max number of different atomic species (ntypx) = 10
     Max number of k-points (npk) =  40000
     Max angular momentum in pseudopotentials (lmaxx) =  3

     Subspace diagonalization in iterative solution of the eigenvalue problem:
     a serial algorithm will be used

 
     Parallelization info
     --------------------
     sticks:   dense  smooth     PW     G-vecs:    dense   smooth      PW
     Min         273     273     67                17945    17945    2235
     Max         274     274     68                17950    17950    2240
     Sum        7645    7645   1901               502479   502479   62669
 


     bravais-lattice index     =            1
     lattice parameter (alat)  =      20.0000  a.u.
     unit-cell volume          =    8000.0000 (a.u.)^3
     number of atoms/cell      =            3
     number of atomic types    =            2
     number of electrons       =         8.00
     number of Kohn-Sham states=            8
     kinetic-energy cutoff     =      60.0000  Ry
     charge density cutoff     =     240.0000  Ry
     convergence threshold     =      1.0E-08
     mixing beta               =       0.7000
     number of iterations used =            8  plain     mixing
     Exchange-correlation      = PBE ( 1  4  3  4 0 0)

     celldm(1)=  20.000000  celldm(2)=   0.000000  celldm(3)=   0.000000
     celldm(4)=   0.000000  celldm(5)=   0.000000  celldm(6)=   0.000000

     crystal axes: (cart. coord. in units of alat)
               a(1) = (   1.000000   0.000000   0.000000 )  
               a(2) = (   0.000000   1.000000   0.000000 )  
               a(3) = (   0.000000   0.000000   1.000000 )  

     reciprocal axes: (cart. coord. in units 2 pi/alat)
               b(1) = (  1.000000  0.000000  0.000000 )  
               b(2) = (  0.000000  1.000000  0.000000 )  
               b(3) = (  0.000000  0.000000  1.000000 )  


     PseudoPot. # 1 for H  read from file:
     ../pslibrary/pbe/PSEUDOPOTENTIALS/H.pbe-rrkjus_psl.1.0.0.UPF
     MD5 check sum: b2b1ff84b4ceabe23335d1bf25025923
     Pseudo is Ultrasoft, Zval =  1.0
     Generated using "atomic" code by A. Dal Corso v.6.2 svn rev. 14038
     Using radial grid of  929 points,  2 beta functions with: 
                l(1) =   0
                l(2) =   0
     Q(r) pseudized with 0 coefficients 


     PseudoPot. # 2 for O  read from file:
     ../pslibrary/pbe/PSEUDOPOTENTIALS/O.pbe-n-rrkjus_psl.1.0.0.UPF
     MD5 check sum: 61455b21a47f6823f888c3bfb9bd1235
     Pseudo is Ultrasoft + core correction, Zval =  6.0
     Generated using "atomic" code by A. Dal Corso v.6.2 svn rev. 14038
     Using radial grid of 1095 points,  4 beta functions with: 
                l(1) =   0
                l(2) =   0
                l(3) =   1
                l(4) =   1
     Q(r) pseudized with 0 coefficients 


     atomic species   valence    mass     pseudopotential
        H              1.00     1.01000     H ( 1.00)
        O              6.00    16.00000     O ( 1.00)

     No symmetry found



   Cartesian axes

     site n.     atom                  positions (alat units)
         1           O   tau(   1) = (   0.0040365  -0.0069679   0.0094596  )
         2           H   tau(   2) = (  -0.0570823   0.1201471   0.0224928  )
         3           H   tau(   3) = (  -0.0068611  -0.0097653  -0.0839829  )

     number of k points=     1  Marzari-Vanderbilt smearing, width (Ry)=  0.0250
                       cart. coord. in units 2pi/alat
        k(    1) = (   0.0000000   0.0000000   0.0000000), wk =   2.0000000

     Dense  grid:   502479 G-vectors     FFT dimensions: ( 100, 100, 100)

     Estimated max dynamical RAM per process >      21.64 MB

     Estimated total dynamical RAM >     605.96 MB

     Check: negative/imaginary core charge=   -0.000001    0.000000

     Initial potential from superposition of free atoms
     Check: negative starting charge=   -0.004891

     starting charge    7.99998, renormalised to    8.00000

     negative rho (up, down):  4.891E-03 0.000E+00
     Starting wfc are    6 randomized atomic wfcs +    2 random wfc

     total cpu time spent up to now is        1.1 secs

     Self-consistent Calculation

     iteration #  1     ecut=    60.00 Ry     beta= 0.70
     Davidson diagonalization with overlap
     ethr =  1.00E-02,  avg # of iterations =  7.0

     negative rho (up, down):  6.349E-03 0.000E+00

     total cpu time spent up to now is        1.3 secs

     total energy              =     -34.31943952 Ry
     Harris-Foulkes estimate   =     -34.72449428 Ry
     estimated scf accuracy    <       0.54057707 Ry

     iteration #  2     ecut=    60.00 Ry     beta= 0.70
     Davidson diagonalization with overlap
     ethr =  6.76E-03,  avg # of iterations =  3.0

     negative rho (up, down):  5.226E-03 0.000E+00

     total cpu time spent up to now is        1.5 secs

     total energy              =     -34.28245168 Ry
     Harris-Foulkes estimate   =     -34.97338173 Ry
     estimated scf accuracy    <       1.95954986 Ry

     iteration #  3     ecut=    60.00 Ry     beta= 0.70
     Davidson diagonalization with overlap
     ethr =  6.76E-03,  avg # of iterations =  1.0

     negative rho (up, down):  4.771E-03 0.000E+00

     total cpu time spent up to now is        1.6 secs

     total energy              =     -34.46731116 Ry
     Harris-Foulkes estimate   =     -34.49050791 Ry
     estimated scf accuracy    <       0.13360188 Ry

     iteration #  4     ecut=    60.00 Ry     beta= 0.70
     Davidson diagonalization with overlap
     ethr =  1.67E-03,  avg # of iterations =  3.0

     negative rho (up, down):  5.080E-03 0.000E+00

     total cpu time spent up to now is        1.7 secs

     total energy              =     -34.59553004 Ry
     Harris-Foulkes estimate   =     -34.60683220 Ry
     estimated scf accuracy    <       0.04481959 Ry

     iteration #  5     ecut=    60.00 Ry     beta= 0.70
     Davidson diagonalization with overlap
     ethr =  5.60E-04,  avg # of iterations =  1.0

     negative rho (up, down):  5.163E-03 0.000E+00

     total cpu time spent up to now is        1.8 secs

     total energy              =     -34.59639907 Ry
     Harris-Foulkes estimate   =     -34.59744084 Ry
     estimated scf accuracy    <       0.01194842 Ry

     iteration #  6     ecut=    60.00 Ry     beta= 0.70
     Davidson diagonalization with overlap
     ethr =  1.49E-04,  avg # of iterations =  7.0

     negative rho (up, down):  5.251E-03 0.000E+00

     total cpu time spent up to now is        2.0 secs

     total energy              =     -34.60005458 Ry
     Harris-Foulkes estimate   =     -34.60093608 Ry
     estimated scf accuracy    <       0.00856935 Ry

     iteration #  7     ecut=    60.00 Ry     beta= 0.70
     Davidson diagonalization with overlap
     ethr =  1.07E-04,  avg # of iterations =  1.0

     negative rho (up, down):  5.302E-03 0.000E+00

     total cpu time spent up to now is        2.2 secs

     total energy              =     -34.60005764 Ry
     Harris-Foulkes estimate   =     -34.60038289 Ry
     estimated scf accuracy    <       0.00495763 Ry

     iteration #  8     ecut=    60.00 Ry     beta= 0.70
     Davidson diagonalization with overlap
     ethr =  6.20E-05,  avg # of iterations =  1.0

     negative rho (up, down):  5.389E-03 0.000E+00

     total cpu time spent up to now is        2.3 secs

     total energy              =     -34.59992462 Ry
     Harris-Foulkes estimate   =     -34.60028645 Ry
     estimated scf accuracy    <       0.00354083 Ry

     iteration #  9     ecut=    60.00 Ry     beta= 0.70
     Davidson diagonalization with overlap
     ethr =  4.43E-05,  avg # of iterations =  3.0

     negative rho (up, down):  5.434E-03 0.000E+00

     total cpu time spent up to now is        2.5 secs

     total energy              =     -34.60060018 Ry
     Harris-Foulkes estimate   =     -34.60062947 Ry
     estimated scf accuracy    <       0.00078059 Ry

     iteration # 10     ecut=    60.00 Ry     beta= 0.70
     Davidson diagonalization with overlap
     ethr =  9.76E-06,  avg # of iterations =  4.0

     negative rho (up, down):  5.463E-03 0.000E+00

     total cpu time spent up to now is        2.6 secs

     total energy              =     -34.60066988 Ry
     Harris-Foulkes estimate   =     -34.60069103 Ry
     estimated scf accuracy    <       0.00041700 Ry

     iteration # 11     ecut=    60.00 Ry     beta= 0.70
     Davidson diagonalization with overlap
     ethr =  5.21E-06,  avg # of iterations =  1.0

     negative rho (up, down):  5.555E-03 0.000E+00

     total cpu time spent up to now is        2.8 secs

     total energy              =     -34.60060829 Ry
     Harris-Foulkes estimate   =     -34.60067211 Ry
     estimated scf accuracy    <       0.00032817 Ry

     iteration # 12     ecut=    60.00 Ry     beta= 0.70
     Davidson diagonalization with overlap
     ethr =  4.10E-06,  avg # of iterations =  1.0

     negative rho (up, down):  5.666E-03 0.000E+00

     total cpu time spent up to now is        2.9 secs

     total energy              =     -34.60058030 Ry
     Harris-Foulkes estimate   =     -34.60062135 Ry
     estimated scf accuracy    <       0.00010008 Ry

     iteration # 13     ecut=    60.00 Ry     beta= 0.70
     Davidson diagonalization with overlap
     ethr =  1.25E-06,  avg # of iterations = 17.0

     negative rho (up, down):  5.663E-03 0.000E+00

     total cpu time spent up to now is        3.1 secs

     total energy              =     -34.59654296 Ry
     Harris-Foulkes estimate   =     -34.59654430 Ry
     estimated scf accuracy    <       0.00003495 Ry

     iteration # 14     ecut=    60.00 Ry     beta= 0.70
     Davidson diagonalization with overlap
     ethr =  4.37E-07,  avg # of iterations =  6.0

     negative rho (up, down):  5.652E-03 0.000E+00

     total cpu time spent up to now is        3.3 secs

     total energy              =     -34.59653626 Ry
     Harris-Foulkes estimate   =     -34.59654306 Ry
     estimated scf accuracy    <       0.00003072 Ry

     iteration # 15     ecut=    60.00 Ry     beta= 0.70
     Davidson diagonalization with overlap
     ethr =  3.84E-07,  avg # of iterations =  1.0

     negative rho (up, down):  5.656E-03 0.000E+00

     total cpu time spent up to now is        3.4 secs

     total energy              =     -34.60061350 Ry
     Harris-Foulkes estimate   =     -34.60061452 Ry
     estimated scf accuracy    <       0.00001149 Ry

     iteration # 16     ecut=    60.00 Ry     beta= 0.70
     Davidson diagonalization with overlap
     ethr =  1.44E-07,  avg # of iterations =  1.0

     negative rho (up, down):  5.652E-03 0.000E+00

     total cpu time spent up to now is        3.5 secs

     total energy              =     -34.60061166 Ry
     Harris-Foulkes estimate   =     -34.60061401 Ry
     estimated scf accuracy    <       0.00000740 Ry

     iteration # 17     ecut=    60.00 Ry     beta= 0.70
     Davidson diagonalization with overlap
     ethr =  9.25E-08,  avg # of iterations =  3.0

     negative rho (up, down):  5.652E-03 0.000E+00

     total cpu time spent up to now is        3.7 secs

     total energy              =     -34.60061349 Ry
     Harris-Foulkes estimate   =     -34.60061347 Ry
     estimated scf accuracy    <       0.00000038 Ry

     iteration # 18     ecut=    60.00 Ry     beta= 0.70
     Davidson diagonalization with overlap
     ethr =  4.72E-09,  avg # of iterations =  4.0

     negative rho (up, down):  5.652E-03 0.000E+00

     total cpu time spent up to now is        3.8 secs

     total energy              =     -34.60061429 Ry
     Harris-Foulkes estimate   =     -34.60061455 Ry
     estimated scf accuracy    <       0.00000277 Ry

     iteration # 19     ecut=    60.00 Ry     beta= 0.70
     Davidson diagonalization with overlap
     ethr =  4.72E-09,  avg # of iterations =  1.0

     negative rho (up, down):  5.654E-03 0.000E+00

     total cpu time spent up to now is        4.0 secs

     total energy              =     -34.60061375 Ry
     Harris-Foulkes estimate   =     -34.60061430 Ry
     estimated scf accuracy    <       0.00000220 Ry

     iteration # 20     ecut=    60.00 Ry     beta= 0.70
     Davidson diagonalization with overlap
     ethr =  4.72E-09,  avg # of iterations =  3.0

     negative rho (up, down):  5.653E-03 0.000E+00

     total cpu time spent up to now is        4.1 secs

     total energy              =     -34.60061364 Ry
     Harris-Foulkes estimate   =     -34.60061386 Ry
     estimated scf accuracy    <       0.00000064 Ry

     iteration # 21     ecut=    60.00 Ry     beta= 0.70
     Davidson diagonalization with overlap
     ethr =  4.72E-09,  avg # of iterations =  2.0

     negative rho (up, down):  5.651E-03 0.000E+00

     total cpu time spent up to now is        4.3 secs

     total energy              =     -34.60061370 Ry
     Harris-Foulkes estimate   =     -34.60061371 Ry
     estimated scf accuracy    <       0.00000008 Ry

     iteration # 22     ecut=    60.00 Ry     beta= 0.70
     Davidson diagonalization with overlap
     ethr =  9.92E-10,  avg # of iterations =  4.0

     negative rho (up, down):  5.651E-03 0.000E+00

     total cpu time spent up to now is        4.4 secs

     total energy              =     -34.60061374 Ry
     Harris-Foulkes estimate   =     -34.60061375 Ry
     estimated scf accuracy    <       0.00000004 Ry

     iteration # 23     ecut=    60.00 Ry     beta= 0.70
     Davidson diagonalization with overlap
     ethr =  5.46E-10,  avg # of iterations =  1.0

     negative rho (up, down):  5.651E-03 0.000E+00

     total cpu time spent up to now is        4.6 secs

     total energy              =     -34.60061375 Ry
     Harris-Foulkes estimate   =     -34.60061375 Ry
     estimated scf accuracy    <       0.00000002 Ry

     iteration # 24     ecut=    60.00 Ry     beta= 0.70
     Davidson diagonalization with overlap
     ethr =  2.16E-10,  avg # of iterations =  3.0

     negative rho (up, down):  5.651E-03 0.000E+00

     total cpu time spent up to now is        4.7 secs

     total energy              =     -34.60061374 Ry
     Harris-Foulkes estimate   =     -34.60061375 Ry
     estimated scf accuracy    <       0.00000003 Ry

     iteration # 25     ecut=    60.00 Ry     beta= 0.70
     Davidson diagonalization with overlap
     ethr =  2.16E-10,  avg # of iterations =  3.0

     negative rho (up, down):  5.651E-03 0.000E+00

     total cpu time spent up to now is        4.9 secs

     total energy              =     -34.60061375 Ry
     Harris-Foulkes estimate   =     -34.60061375 Ry
     estimated scf accuracy    <       0.00000003 Ry

     iteration # 26     ecut=    60.00 Ry     beta= 0.70
     Davidson diagonalization with overlap
     ethr =  2.16E-10,  avg # of iterations =  1.0

     negative rho (up, down):  5.651E-03 0.000E+00

     total cpu time spent up to now is        5.0 secs

     total energy              =     -34.60061374 Ry
     Harris-Foulkes estimate   =     -34.60061375 Ry
     estimated scf accuracy    <       0.00000001 Ry

     iteration # 27     ecut=    60.00 Ry     beta= 0.70
     Davidson diagonalization with overlap
     ethr =  1.26E-10,  avg # of iterations =  3.0

     negative rho (up, down):  5.651E-03 0.000E+00

     total cpu time spent up to now is        5.1 secs

     End of self-consistent calculation

          k = 0.0000 0.0000 0.0000 ( 62669 PWs)   bands (ev):

   -23.7845 -10.7877  -9.1890  -6.8178  -3.4242  -0.3532   0.3458   0.8768

     the Fermi energy is    -4.9484 ev

!    total energy              =     -34.60061375 Ry
     Harris-Foulkes estimate   =     -34.60061375 Ry
     estimated scf accuracy    <          8.8E-10 Ry

     The total energy is the sum of the following terms:

     one-electron contribution =     -59.62007291 Ry
     hartree contribution      =      31.39392337 Ry
     xc contribution           =      -8.51939033 Ry
     ewald contribution        =       2.14492612 Ry
     smearing contrib. (-TS)   =       0.00000000 Ry

     convergence has been achieved in  27 iterations

     Writing output data file pwscf.save
 
     init_run     :      0.34s CPU      0.39s WALL (       1 calls)
     electrons    :      3.50s CPU      4.09s WALL (       1 calls)

     Called by init_run:
     wfcinit      :      0.04s CPU      0.08s WALL (       1 calls)
     potinit      :      0.06s CPU      0.06s WALL (       1 calls)

     Called by electrons:
     c_bands      :      1.06s CPU      1.09s WALL (      27 calls)
     sum_band     :      0.77s CPU      0.80s WALL (      27 calls)
     v_of_rho     :      0.68s CPU      0.70s WALL (      28 calls)
     newd         :      0.42s CPU      0.42s WALL (      28 calls)
     mix_rho      :      0.54s CPU      0.92s WALL (      27 calls)

     Called by c_bands:
     init_us_2    :      0.03s CPU      0.04s WALL (      55 calls)
     cegterg      :      1.02s CPU      1.03s WALL (      27 calls)

     Called by sum_band:
     sum_band:bec :      0.00s CPU      0.00s WALL (      27 calls)
     addusdens    :      0.50s CPU      0.51s WALL (      27 calls)

     Called by *egterg:
     h_psi        :      0.88s CPU      0.90s WALL (     114 calls)
     s_psi        :      0.01s CPU      0.01s WALL (     114 calls)
     g_psi        :      0.01s CPU      0.01s WALL (      86 calls)
     cdiaghg      :      0.02s CPU      0.03s WALL (     113 calls)

     Called by h_psi:
     h_psi:pot    :      0.88s CPU      0.89s WALL (     114 calls)
     h_psi:calbec :      0.03s CPU      0.03s WALL (     114 calls)
     vloc_psi     :      0.83s CPU      0.85s WALL (     114 calls)
     add_vuspsi   :      0.01s CPU      0.01s WALL (     114 calls)

     General routines
     calbec       :      0.04s CPU      0.04s WALL (     141 calls)
     fft          :      0.48s CPU      0.50s WALL (     363 calls)
     fftw         :      0.88s CPU      0.91s WALL (    1304 calls)
     davcio       :      0.07s CPU      0.36s WALL (     447 calls)
 
     Parallel routines
     fft_scatt_xy :      0.12s CPU      0.12s WALL (    1667 calls)
     fft_scatt_yz :      0.48s CPU      0.51s WALL (    1667 calls)
 
     PWSCF        :     4.49s CPU         5.59s WALL

 
   This run was terminated on:   5:24:22  12May2018            

=------------------------------------------------------------------------------=
   JOB DONE.
=------------------------------------------------------------------------------=
