
     Program PWSCF v.6.2 (svn rev. 14038) starts on 12May2018 at  5:24:52 

     This program is part of the open-source Quantum ESPRESSO suite
     for quantum simulation of materials; please cite
         "P. Giannozzi et al., J. Phys.:Condens. Matter 21 395502 (2009);
         "P. Giannozzi et al., J. Phys.:Condens. Matter 29 465901 (2017);
          URL http://www.quantum-espresso.org", 
     in publications or presentations arising from this work. More details at
     http://www.quantum-espresso.org/quote

     Parallel version (MPI), running on    28 processors

     MPI processes distributed on     1 nodes
     R & G space division:  proc/nbgrp/npool/nimage =      28
     Reading input from ../ecut60/18000.in
Warning: card &IONS ignored
Warning: card     POT_EXTRAPOLATION='SECOND-ORDER' ignored
Warning: card     WFC_EXTRAPOLATION='SECOND-ORDER' ignored
Warning: card     ION_TEMPERATURE = 'ANDERSEN' ignored
Warning: card / ignored

     Current dimensions of program PWSCF are:
     Max number of different atomic species (ntypx) = 10
     Max number of k-points (npk) =  40000
     Max angular momentum in pseudopotentials (lmaxx) =  3

     Subspace diagonalization in iterative solution of the eigenvalue problem:
     a serial algorithm will be used

 
     Parallelization info
     --------------------
     sticks:   dense  smooth     PW     G-vecs:    dense   smooth      PW
     Min         273     273     67                17945    17945    2235
     Max         274     274     68                17950    17950    2240
     Sum        7645    7645   1901               502479   502479   62669
 


     bravais-lattice index     =            1
     lattice parameter (alat)  =      20.0000  a.u.
     unit-cell volume          =    8000.0000 (a.u.)^3
     number of atoms/cell      =            3
     number of atomic types    =            2
     number of electrons       =         8.00
     number of Kohn-Sham states=            8
     kinetic-energy cutoff     =      60.0000  Ry
     charge density cutoff     =     240.0000  Ry
     convergence threshold     =      1.0E-08
     mixing beta               =       0.7000
     number of iterations used =            8  plain     mixing
     Exchange-correlation      = PBE ( 1  4  3  4 0 0)

     celldm(1)=  20.000000  celldm(2)=   0.000000  celldm(3)=   0.000000
     celldm(4)=   0.000000  celldm(5)=   0.000000  celldm(6)=   0.000000

     crystal axes: (cart. coord. in units of alat)
               a(1) = (   1.000000   0.000000   0.000000 )  
               a(2) = (   0.000000   1.000000   0.000000 )  
               a(3) = (   0.000000   0.000000   1.000000 )  

     reciprocal axes: (cart. coord. in units 2 pi/alat)
               b(1) = (  1.000000  0.000000  0.000000 )  
               b(2) = (  0.000000  1.000000  0.000000 )  
               b(3) = (  0.000000  0.000000  1.000000 )  


     PseudoPot. # 1 for H  read from file:
     ../pslibrary/pbe/PSEUDOPOTENTIALS/H.pbe-rrkjus_psl.1.0.0.UPF
     MD5 check sum: b2b1ff84b4ceabe23335d1bf25025923
     Pseudo is Ultrasoft, Zval =  1.0
     Generated using "atomic" code by A. Dal Corso v.6.2 svn rev. 14038
     Using radial grid of  929 points,  2 beta functions with: 
                l(1) =   0
                l(2) =   0
     Q(r) pseudized with 0 coefficients 


     PseudoPot. # 2 for O  read from file:
     ../pslibrary/pbe/PSEUDOPOTENTIALS/O.pbe-n-rrkjus_psl.1.0.0.UPF
     MD5 check sum: 61455b21a47f6823f888c3bfb9bd1235
     Pseudo is Ultrasoft + core correction, Zval =  6.0
     Generated using "atomic" code by A. Dal Corso v.6.2 svn rev. 14038
     Using radial grid of 1095 points,  4 beta functions with: 
                l(1) =   0
                l(2) =   0
                l(3) =   1
                l(4) =   1
     Q(r) pseudized with 0 coefficients 


     atomic species   valence    mass     pseudopotential
        H              1.00     1.01000     H ( 1.00)
        O              6.00    16.00000     O ( 1.00)

     No symmetry found



   Cartesian axes

     site n.     atom                  positions (alat units)
         1           O   tau(   1) = (   0.0168060   0.0060501  -0.0005270  )
         2           H   tau(   2) = (  -0.2053309  -0.0551684   0.0957279  )
         3           H   tau(   3) = (  -0.0609026  -0.0406737   0.0009856  )

     number of k points=     1  Marzari-Vanderbilt smearing, width (Ry)=  0.0250
                       cart. coord. in units 2pi/alat
        k(    1) = (   0.0000000   0.0000000   0.0000000), wk =   2.0000000

     Dense  grid:   502479 G-vectors     FFT dimensions: ( 100, 100, 100)

     Estimated max dynamical RAM per process >      21.64 MB

     Estimated total dynamical RAM >     605.96 MB

     Check: negative/imaginary core charge=   -0.000001    0.000000

     Initial potential from superposition of free atoms
     Check: negative starting charge=   -0.004892

     starting charge    7.99998, renormalised to    8.00000

     negative rho (up, down):  4.892E-03 0.000E+00
     Starting wfc are    6 randomized atomic wfcs +    2 random wfc

     total cpu time spent up to now is        1.1 secs

     Self-consistent Calculation

     iteration #  1     ecut=    60.00 Ry     beta= 0.70
     Davidson diagonalization with overlap
     ethr =  1.00E-02,  avg # of iterations =  7.0

     negative rho (up, down):  6.527E-03 0.000E+00

     total cpu time spent up to now is        1.3 secs

     total energy              =     -33.44645865 Ry
     Harris-Foulkes estimate   =     -34.55187888 Ry
     estimated scf accuracy    <       1.41959486 Ry

     iteration #  2     ecut=    60.00 Ry     beta= 0.70
     Davidson diagonalization with overlap
     ethr =  1.00E-02,  avg # of iterations =  4.0

     negative rho (up, down):  7.385E-06 0.000E+00

     total cpu time spent up to now is        1.4 secs

     total energy              =     -32.91956682 Ry
     Harris-Foulkes estimate   =     -36.37927468 Ry
     estimated scf accuracy    <      12.65604991 Ry

     iteration #  3     ecut=    60.00 Ry     beta= 0.70
     Davidson diagonalization with overlap
     ethr =  1.00E-02,  avg # of iterations =  4.0

     negative rho (up, down):  6.796E-05 0.000E+00

     total cpu time spent up to now is        1.6 secs

     total energy              =     -34.26780248 Ry
     Harris-Foulkes estimate   =     -34.38691853 Ry
     estimated scf accuracy    <       1.14198232 Ry

     iteration #  4     ecut=    60.00 Ry     beta= 0.70
     Davidson diagonalization with overlap
     ethr =  1.00E-02,  avg # of iterations =  1.0

     negative rho (up, down):  1.083E-04 0.000E+00

     total cpu time spent up to now is        1.7 secs

     total energy              =     -34.29476891 Ry
     Harris-Foulkes estimate   =     -34.30508266 Ry
     estimated scf accuracy    <       0.05156743 Ry

     iteration #  5     ecut=    60.00 Ry     beta= 0.70
     Davidson diagonalization with overlap
     ethr =  6.45E-04,  avg # of iterations =  1.0

     negative rho (up, down):  6.231E-04 0.000E+00

     total cpu time spent up to now is        1.8 secs

     total energy              =     -34.27294590 Ry
     Harris-Foulkes estimate   =     -34.30783960 Ry
     estimated scf accuracy    <       0.35607163 Ry

     iteration #  6     ecut=    60.00 Ry     beta= 0.70
     Davidson diagonalization with overlap
     ethr =  6.45E-04,  avg # of iterations =  1.0

     negative rho (up, down):  1.847E-03 0.000E+00

     total cpu time spent up to now is        2.0 secs

     total energy              =     -34.29324880 Ry
     Harris-Foulkes estimate   =     -34.30869250 Ry
     estimated scf accuracy    <       0.33696450 Ry

     iteration #  7     ecut=    60.00 Ry     beta= 0.70
     Davidson diagonalization with overlap
     ethr =  6.45E-04,  avg # of iterations =  1.0

     negative rho (up, down):  2.125E-03 0.000E+00

     total cpu time spent up to now is        2.1 secs

     total energy              =     -34.29679030 Ry
     Harris-Foulkes estimate   =     -34.29830596 Ry
     estimated scf accuracy    <       0.02484639 Ry

     iteration #  8     ecut=    60.00 Ry     beta= 0.70
     Davidson diagonalization with overlap
     ethr =  3.11E-04,  avg # of iterations =  1.0

     negative rho (up, down):  2.315E-03 0.000E+00

     total cpu time spent up to now is        2.3 secs

     total energy              =     -34.29836367 Ry
     Harris-Foulkes estimate   =     -34.29796149 Ry
     estimated scf accuracy    <       0.00544964 Ry

     iteration #  9     ecut=    60.00 Ry     beta= 0.70
     Davidson diagonalization with overlap
     ethr =  6.81E-05,  avg # of iterations =  6.0

     negative rho (up, down):  3.203E-03 0.000E+00

     total cpu time spent up to now is        2.4 secs

     total energy              =     -34.29782231 Ry
     Harris-Foulkes estimate   =     -34.29901807 Ry
     estimated scf accuracy    <       0.05169934 Ry

     iteration # 10     ecut=    60.00 Ry     beta= 0.70
     Davidson diagonalization with overlap
     ethr =  6.81E-05,  avg # of iterations =  1.0

     negative rho (up, down):  4.113E-03 0.000E+00

     total cpu time spent up to now is        2.5 secs

     total energy              =     -34.29799477 Ry
     Harris-Foulkes estimate   =     -34.29822781 Ry
     estimated scf accuracy    <       0.00827587 Ry

     iteration # 11     ecut=    60.00 Ry     beta= 0.70
     Davidson diagonalization with overlap
     ethr =  6.81E-05,  avg # of iterations =  1.0

     negative rho (up, down):  5.075E-03 0.000E+00

     total cpu time spent up to now is        2.7 secs

     total energy              =     -34.29809251 Ry
     Harris-Foulkes estimate   =     -34.29810930 Ry
     estimated scf accuracy    <       0.00042913 Ry

     iteration # 12     ecut=    60.00 Ry     beta= 0.70
     Davidson diagonalization with overlap
     ethr =  5.36E-06,  avg # of iterations = 18.0

     negative rho (up, down):  5.194E-03 0.000E+00

     total cpu time spent up to now is        2.9 secs

     total energy              =     -34.29811840 Ry
     Harris-Foulkes estimate   =     -34.29812982 Ry
     estimated scf accuracy    <       0.00012382 Ry

     iteration # 13     ecut=    60.00 Ry     beta= 0.70
     Davidson diagonalization with overlap
     ethr =  1.55E-06,  avg # of iterations = 11.0

     negative rho (up, down):  5.216E-03 0.000E+00

     total cpu time spent up to now is        3.1 secs

     total energy              =     -34.29812852 Ry
     Harris-Foulkes estimate   =     -34.29812918 Ry
     estimated scf accuracy    <       0.00006749 Ry

     iteration # 14     ecut=    60.00 Ry     beta= 0.70
     Davidson diagonalization with overlap
     ethr =  8.44E-07,  avg # of iterations =  1.0

     negative rho (up, down):  5.276E-03 0.000E+00

     total cpu time spent up to now is        3.2 secs

     total energy              =     -34.29812694 Ry
     Harris-Foulkes estimate   =     -34.29812919 Ry
     estimated scf accuracy    <       0.00004283 Ry

     iteration # 15     ecut=    60.00 Ry     beta= 0.70
     Davidson diagonalization with overlap
     ethr =  5.35E-07,  avg # of iterations =  1.0

     negative rho (up, down):  5.272E-03 0.000E+00

     total cpu time spent up to now is        3.4 secs

     total energy              =     -34.29812804 Ry
     Harris-Foulkes estimate   =     -34.29812805 Ry
     estimated scf accuracy    <       0.00000011 Ry

     iteration # 16     ecut=    60.00 Ry     beta= 0.70
     Davidson diagonalization with overlap
     ethr =  1.35E-09,  avg # of iterations =  4.0

     negative rho (up, down):  5.269E-03 0.000E+00

     total cpu time spent up to now is        3.5 secs

     total energy              =     -34.29812817 Ry
     Harris-Foulkes estimate   =     -34.29812819 Ry
     estimated scf accuracy    <       0.00000017 Ry

     iteration # 17     ecut=    60.00 Ry     beta= 0.70
     Davidson diagonalization with overlap
     ethr =  1.35E-09,  avg # of iterations =  1.0

     negative rho (up, down):  5.270E-03 0.000E+00

     total cpu time spent up to now is        3.7 secs

     total energy              =     -34.29812816 Ry
     Harris-Foulkes estimate   =     -34.29812817 Ry
     estimated scf accuracy    <       0.00000006 Ry

     iteration # 18     ecut=    60.00 Ry     beta= 0.70
     Davidson diagonalization with overlap
     ethr =  7.05E-10,  avg # of iterations =  2.0

     negative rho (up, down):  5.272E-03 0.000E+00

     total cpu time spent up to now is        3.8 secs

     total energy              =     -34.29812817 Ry
     Harris-Foulkes estimate   =     -34.29812818 Ry
     estimated scf accuracy    <       0.00000001 Ry

     iteration # 19     ecut=    60.00 Ry     beta= 0.70
     Davidson diagonalization with overlap
     ethr =  1.57E-10,  avg # of iterations =  2.0

     negative rho (up, down):  5.273E-03 0.000E+00

     total cpu time spent up to now is        3.9 secs

     End of self-consistent calculation

          k = 0.0000 0.0000 0.0000 ( 62669 PWs)   bands (ev):

   -24.4001 -11.1152  -7.8074  -7.5997  -7.2700  -0.3251   0.3506   0.6303

     the Fermi energy is    -7.4216 ev

!    total energy              =     -34.29812817 Ry
     Harris-Foulkes estimate   =     -34.29812817 Ry
     estimated scf accuracy    <          1.7E-09 Ry

     The total energy is the sum of the following terms:

     one-electron contribution =     -55.96763084 Ry
     hartree contribution      =      29.46997258 Ry
     xc contribution           =      -8.41034055 Ry
     ewald contribution        =       0.61240103 Ry
     smearing contrib. (-TS)   =      -0.00253040 Ry

     convergence has been achieved in  19 iterations

     Writing output data file pwscf.save
 
     init_run     :      0.33s CPU      0.40s WALL (       1 calls)
     electrons    :      2.46s CPU      2.92s WALL (       1 calls)

     Called by init_run:
     wfcinit      :      0.04s CPU      0.09s WALL (       1 calls)
     potinit      :      0.06s CPU      0.06s WALL (       1 calls)

     Called by electrons:
     c_bands      :      0.78s CPU      0.81s WALL (      19 calls)
     sum_band     :      0.55s CPU      0.57s WALL (      19 calls)
     v_of_rho     :      0.49s CPU      0.50s WALL (      20 calls)
     newd         :      0.30s CPU      0.30s WALL (      20 calls)
     mix_rho      :      0.33s CPU      0.60s WALL (      19 calls)

     Called by c_bands:
     init_us_2    :      0.02s CPU      0.03s WALL (      39 calls)
     cegterg      :      0.75s CPU      0.76s WALL (      19 calls)

     Called by sum_band:
     sum_band:bec :      0.00s CPU      0.00s WALL (      19 calls)
     addusdens    :      0.35s CPU      0.36s WALL (      19 calls)

     Called by *egterg:
     h_psi        :      0.65s CPU      0.67s WALL (      88 calls)
     s_psi        :      0.01s CPU      0.01s WALL (      88 calls)
     g_psi        :      0.01s CPU      0.01s WALL (      68 calls)
     cdiaghg      :      0.02s CPU      0.02s WALL (      87 calls)

     Called by h_psi:
     h_psi:pot    :      0.64s CPU      0.66s WALL (      88 calls)
     h_psi:calbec :      0.02s CPU      0.02s WALL (      88 calls)
     vloc_psi     :      0.61s CPU      0.63s WALL (      88 calls)
     add_vuspsi   :      0.01s CPU      0.01s WALL (      88 calls)

     General routines
     calbec       :      0.03s CPU      0.03s WALL (     107 calls)
     fft          :      0.35s CPU      0.36s WALL (     259 calls)
     fftw         :      0.65s CPU      0.67s WALL (     956 calls)
     davcio       :      0.05s CPU      0.26s WALL (     287 calls)
 
     Parallel routines
     fft_scatt_xy :      0.09s CPU      0.09s WALL (    1215 calls)
     fft_scatt_yz :      0.32s CPU      0.33s WALL (    1215 calls)
 
     PWSCF        :     3.37s CPU         4.37s WALL

 
   This run was terminated on:   5:24:56  12May2018            

=------------------------------------------------------------------------------=
   JOB DONE.
=------------------------------------------------------------------------------=
