
     Program PWSCF v.6.2 (svn rev. 14038) starts on 12May2018 at  5:24:57 

     This program is part of the open-source Quantum ESPRESSO suite
     for quantum simulation of materials; please cite
         "P. Giannozzi et al., J. Phys.:Condens. Matter 21 395502 (2009);
         "P. Giannozzi et al., J. Phys.:Condens. Matter 29 465901 (2017);
          URL http://www.quantum-espresso.org", 
     in publications or presentations arising from this work. More details at
     http://www.quantum-espresso.org/quote

     Parallel version (MPI), running on    28 processors

     MPI processes distributed on     1 nodes
     R & G space division:  proc/nbgrp/npool/nimage =      28
     Reading input from ../ecut60/18500.in
Warning: card &IONS ignored
Warning: card     POT_EXTRAPOLATION='SECOND-ORDER' ignored
Warning: card     WFC_EXTRAPOLATION='SECOND-ORDER' ignored
Warning: card     ION_TEMPERATURE = 'ANDERSEN' ignored
Warning: card / ignored

     Current dimensions of program PWSCF are:
     Max number of different atomic species (ntypx) = 10
     Max number of k-points (npk) =  40000
     Max angular momentum in pseudopotentials (lmaxx) =  3

     Subspace diagonalization in iterative solution of the eigenvalue problem:
     a serial algorithm will be used

 
     Parallelization info
     --------------------
     sticks:   dense  smooth     PW     G-vecs:    dense   smooth      PW
     Min         273     273     67                17945    17945    2235
     Max         274     274     68                17950    17950    2240
     Sum        7645    7645   1901               502479   502479   62669
 


     bravais-lattice index     =            1
     lattice parameter (alat)  =      20.0000  a.u.
     unit-cell volume          =    8000.0000 (a.u.)^3
     number of atoms/cell      =            3
     number of atomic types    =            2
     number of electrons       =         8.00
     number of Kohn-Sham states=            8
     kinetic-energy cutoff     =      60.0000  Ry
     charge density cutoff     =     240.0000  Ry
     convergence threshold     =      1.0E-08
     mixing beta               =       0.7000
     number of iterations used =            8  plain     mixing
     Exchange-correlation      = PBE ( 1  4  3  4 0 0)

     celldm(1)=  20.000000  celldm(2)=   0.000000  celldm(3)=   0.000000
     celldm(4)=   0.000000  celldm(5)=   0.000000  celldm(6)=   0.000000

     crystal axes: (cart. coord. in units of alat)
               a(1) = (   1.000000   0.000000   0.000000 )  
               a(2) = (   0.000000   1.000000   0.000000 )  
               a(3) = (   0.000000   0.000000   1.000000 )  

     reciprocal axes: (cart. coord. in units 2 pi/alat)
               b(1) = (  1.000000  0.000000  0.000000 )  
               b(2) = (  0.000000  1.000000  0.000000 )  
               b(3) = (  0.000000  0.000000  1.000000 )  


     PseudoPot. # 1 for H  read from file:
     ../pslibrary/pbe/PSEUDOPOTENTIALS/H.pbe-rrkjus_psl.1.0.0.UPF
     MD5 check sum: b2b1ff84b4ceabe23335d1bf25025923
     Pseudo is Ultrasoft, Zval =  1.0
     Generated using "atomic" code by A. Dal Corso v.6.2 svn rev. 14038
     Using radial grid of  929 points,  2 beta functions with: 
                l(1) =   0
                l(2) =   0
     Q(r) pseudized with 0 coefficients 


     PseudoPot. # 2 for O  read from file:
     ../pslibrary/pbe/PSEUDOPOTENTIALS/O.pbe-n-rrkjus_psl.1.0.0.UPF
     MD5 check sum: 61455b21a47f6823f888c3bfb9bd1235
     Pseudo is Ultrasoft + core correction, Zval =  6.0
     Generated using "atomic" code by A. Dal Corso v.6.2 svn rev. 14038
     Using radial grid of 1095 points,  4 beta functions with: 
                l(1) =   0
                l(2) =   0
                l(3) =   1
                l(4) =   1
     Q(r) pseudized with 0 coefficients 


     atomic species   valence    mass     pseudopotential
        H              1.00     1.01000     H ( 1.00)
        O              6.00    16.00000     O ( 1.00)

     No symmetry found



   Cartesian axes

     site n.     atom                  positions (alat units)
         1           O   tau(   1) = (  -0.0066848  -0.0085441   0.0086403  )
         2           H   tau(   2) = (   0.0798807   0.0679566   0.0175196  )
         3           H   tau(   3) = (   0.0260176   0.0673957  -0.0660317  )

     number of k points=     1  Marzari-Vanderbilt smearing, width (Ry)=  0.0250
                       cart. coord. in units 2pi/alat
        k(    1) = (   0.0000000   0.0000000   0.0000000), wk =   2.0000000

     Dense  grid:   502479 G-vectors     FFT dimensions: ( 100, 100, 100)

     Estimated max dynamical RAM per process >      21.64 MB

     Estimated total dynamical RAM >     605.96 MB

     Check: negative/imaginary core charge=   -0.000001    0.000000

     Initial potential from superposition of free atoms
     Check: negative starting charge=   -0.005081

     starting charge    7.99998, renormalised to    8.00000

     negative rho (up, down):  5.081E-03 0.000E+00
     Starting wfc are    6 randomized atomic wfcs +    2 random wfc

     total cpu time spent up to now is        1.1 secs

     Self-consistent Calculation

     iteration #  1     ecut=    60.00 Ry     beta= 0.70
     Davidson diagonalization with overlap
     ethr =  1.00E-02,  avg # of iterations =  6.0

     negative rho (up, down):  6.202E-03 0.000E+00

     total cpu time spent up to now is        1.3 secs

     total energy              =     -34.38120801 Ry
     Harris-Foulkes estimate   =     -34.66744768 Ry
     estimated scf accuracy    <       0.39122021 Ry

     iteration #  2     ecut=    60.00 Ry     beta= 0.70
     Davidson diagonalization with overlap
     ethr =  4.89E-03,  avg # of iterations =  3.0

     negative rho (up, down):  4.709E-03 0.000E+00

     total cpu time spent up to now is        1.5 secs

     total energy              =     -34.37536065 Ry
     Harris-Foulkes estimate   =     -34.78146098 Ry
     estimated scf accuracy    <       1.03602724 Ry

     iteration #  3     ecut=    60.00 Ry     beta= 0.70
     Davidson diagonalization with overlap
     ethr =  4.89E-03,  avg # of iterations =  3.0

     negative rho (up, down):  4.152E-03 0.000E+00

     total cpu time spent up to now is        1.6 secs

     total energy              =     -34.53615321 Ry
     Harris-Foulkes estimate   =     -34.54094801 Ry
     estimated scf accuracy    <       0.01521899 Ry

     iteration #  4     ecut=    60.00 Ry     beta= 0.70
     Davidson diagonalization with overlap
     ethr =  1.90E-04,  avg # of iterations =  7.0

     negative rho (up, down):  4.611E-03 0.000E+00

     total cpu time spent up to now is        1.8 secs

     total energy              =     -34.57831404 Ry
     Harris-Foulkes estimate   =     -34.58542041 Ry
     estimated scf accuracy    <       0.02867036 Ry

     iteration #  5     ecut=    60.00 Ry     beta= 0.70
     Davidson diagonalization with overlap
     ethr =  1.90E-04,  avg # of iterations =  1.0

     negative rho (up, down):  4.882E-03 0.000E+00

     total cpu time spent up to now is        1.9 secs

     total energy              =     -34.57673355 Ry
     Harris-Foulkes estimate   =     -34.57913403 Ry
     estimated scf accuracy    <       0.01054266 Ry

     iteration #  6     ecut=    60.00 Ry     beta= 0.70
     Davidson diagonalization with overlap
     ethr =  1.32E-04,  avg # of iterations =  3.0

     negative rho (up, down):  5.022E-03 0.000E+00

     total cpu time spent up to now is        2.0 secs

     total energy              =     -34.57826302 Ry
     Harris-Foulkes estimate   =     -34.57827937 Ry
     estimated scf accuracy    <       0.00091887 Ry

     iteration #  7     ecut=    60.00 Ry     beta= 0.70
     Davidson diagonalization with overlap
     ethr =  1.15E-05,  avg # of iterations = 11.0

     negative rho (up, down):  5.618E-03 0.000E+00

     total cpu time spent up to now is        2.2 secs

     total energy              =     -34.57812493 Ry
     Harris-Foulkes estimate   =     -34.57829073 Ry
     estimated scf accuracy    <       0.00073348 Ry

     iteration #  8     ecut=    60.00 Ry     beta= 0.70
     Davidson diagonalization with overlap
     ethr =  9.17E-06,  avg # of iterations =  1.0

     negative rho (up, down):  5.514E-03 0.000E+00

     total cpu time spent up to now is        2.4 secs

     total energy              =     -34.57812732 Ry
     Harris-Foulkes estimate   =     -34.57814906 Ry
     estimated scf accuracy    <       0.00016825 Ry

     iteration #  9     ecut=    60.00 Ry     beta= 0.70
     Davidson diagonalization with overlap
     ethr =  2.10E-06,  avg # of iterations =  1.0

     negative rho (up, down):  5.538E-03 0.000E+00

     total cpu time spent up to now is        2.5 secs

     total energy              =     -34.57812582 Ry
     Harris-Foulkes estimate   =     -34.57813579 Ry
     estimated scf accuracy    <       0.00008908 Ry

     iteration # 10     ecut=    60.00 Ry     beta= 0.70
     Davidson diagonalization with overlap
     ethr =  1.11E-06,  avg # of iterations =  3.0

     negative rho (up, down):  5.566E-03 0.000E+00

     total cpu time spent up to now is        2.6 secs

     total energy              =     -34.57813808 Ry
     Harris-Foulkes estimate   =     -34.57814190 Ry
     estimated scf accuracy    <       0.00001695 Ry

     iteration # 11     ecut=    60.00 Ry     beta= 0.70
     Davidson diagonalization with overlap
     ethr =  2.12E-07,  avg # of iterations =  2.0

     negative rho (up, down):  5.592E-03 0.000E+00

     total cpu time spent up to now is        2.8 secs

     total energy              =     -34.57814221 Ry
     Harris-Foulkes estimate   =     -34.57814290 Ry
     estimated scf accuracy    <       0.00000272 Ry

     iteration # 12     ecut=    60.00 Ry     beta= 0.70
     Davidson diagonalization with overlap
     ethr =  3.41E-08,  avg # of iterations =  3.0

     negative rho (up, down):  5.613E-03 0.000E+00

     total cpu time spent up to now is        2.9 secs

     total energy              =     -34.57814373 Ry
     Harris-Foulkes estimate   =     -34.57814340 Ry
     estimated scf accuracy    <       0.00000076 Ry

     iteration # 13     ecut=    60.00 Ry     beta= 0.70
     Davidson diagonalization with overlap
     ethr =  9.48E-09,  avg # of iterations =  3.0

     negative rho (up, down):  5.616E-03 0.000E+00

     total cpu time spent up to now is        3.1 secs

     total energy              =     -34.57814336 Ry
     Harris-Foulkes estimate   =     -34.57814388 Ry
     estimated scf accuracy    <       0.00000234 Ry

     iteration # 14     ecut=    60.00 Ry     beta= 0.70
     Davidson diagonalization with overlap
     ethr =  9.48E-09,  avg # of iterations =  1.0

     negative rho (up, down):  5.617E-03 0.000E+00

     total cpu time spent up to now is        3.2 secs

     total energy              =     -34.57814323 Ry
     Harris-Foulkes estimate   =     -34.57814342 Ry
     estimated scf accuracy    <       0.00000101 Ry

     iteration # 15     ecut=    60.00 Ry     beta= 0.70
     Davidson diagonalization with overlap
     ethr =  9.48E-09,  avg # of iterations =  2.0

     negative rho (up, down):  5.617E-03 0.000E+00

     total cpu time spent up to now is        3.4 secs

     total energy              =     -34.57814321 Ry
     Harris-Foulkes estimate   =     -34.57814328 Ry
     estimated scf accuracy    <       0.00000037 Ry

     iteration # 16     ecut=    60.00 Ry     beta= 0.70
     Davidson diagonalization with overlap
     ethr =  4.68E-09,  avg # of iterations =  1.0

     negative rho (up, down):  5.617E-03 0.000E+00

     total cpu time spent up to now is        3.5 secs

     total energy              =     -34.57814322 Ry
     Harris-Foulkes estimate   =     -34.57814323 Ry
     estimated scf accuracy    <       0.00000016 Ry

     iteration # 17     ecut=    60.00 Ry     beta= 0.70
     Davidson diagonalization with overlap
     ethr =  2.05E-09,  avg # of iterations =  1.0

     negative rho (up, down):  5.618E-03 0.000E+00

     total cpu time spent up to now is        3.6 secs

     total energy              =     -34.57814321 Ry
     Harris-Foulkes estimate   =     -34.57814322 Ry
     estimated scf accuracy    <       0.00000011 Ry

     iteration # 18     ecut=    60.00 Ry     beta= 0.70
     Davidson diagonalization with overlap
     ethr =  1.37E-09,  avg # of iterations =  1.0

     negative rho (up, down):  5.618E-03 0.000E+00

     total cpu time spent up to now is        3.8 secs

     total energy              =     -34.57814319 Ry
     Harris-Foulkes estimate   =     -34.57814322 Ry
     estimated scf accuracy    <       0.00000006 Ry

     iteration # 19     ecut=    60.00 Ry     beta= 0.70
     Davidson diagonalization with overlap
     ethr =  7.97E-10,  avg # of iterations =  3.0

     negative rho (up, down):  5.618E-03 0.000E+00

     total cpu time spent up to now is        3.9 secs

     End of self-consistent calculation

          k = 0.0000 0.0000 0.0000 ( 62669 PWs)   bands (ev):

   -24.0792 -11.9843  -8.7794  -7.0337  -2.8228  -0.1070   0.1108   0.8505

     the Fermi energy is    -5.0418 ev

!    total energy              =     -34.57814321 Ry
     Harris-Foulkes estimate   =     -34.57814322 Ry
     estimated scf accuracy    <          8.1E-09 Ry

     The total energy is the sum of the following terms:

     one-electron contribution =     -60.14002664 Ry
     hartree contribution      =      31.56585666 Ry
     xc contribution           =      -8.52881562 Ry
     ewald contribution        =       2.52484238 Ry
     smearing contrib. (-TS)   =       0.00000000 Ry

     convergence has been achieved in  19 iterations

     Writing output data file pwscf.save
 
     init_run     :      0.33s CPU      0.43s WALL (       1 calls)
     electrons    :      2.42s CPU      2.82s WALL (       1 calls)

     Called by init_run:
     wfcinit      :      0.04s CPU      0.08s WALL (       1 calls)
     potinit      :      0.06s CPU      0.06s WALL (       1 calls)

     Called by electrons:
     c_bands      :      0.78s CPU      0.80s WALL (      19 calls)
     sum_band     :      0.55s CPU      0.56s WALL (      19 calls)
     v_of_rho     :      0.47s CPU      0.48s WALL (      20 calls)
     newd         :      0.29s CPU      0.30s WALL (      20 calls)
     mix_rho      :      0.31s CPU      0.58s WALL (      19 calls)

     Called by c_bands:
     init_us_2    :      0.02s CPU      0.03s WALL (      39 calls)
     cegterg      :      0.74s CPU      0.76s WALL (      19 calls)

     Called by sum_band:
     sum_band:bec :      0.00s CPU      0.00s WALL (      19 calls)
     addusdens    :      0.35s CPU      0.36s WALL (      19 calls)

     Called by *egterg:
     h_psi        :      0.66s CPU      0.67s WALL (      76 calls)
     s_psi        :      0.01s CPU      0.01s WALL (      76 calls)
     g_psi        :      0.00s CPU      0.00s WALL (      56 calls)
     cdiaghg      :      0.02s CPU      0.02s WALL (      75 calls)

     Called by h_psi:
     h_psi:pot    :      0.65s CPU      0.67s WALL (      76 calls)
     h_psi:calbec :      0.02s CPU      0.03s WALL (      76 calls)
     vloc_psi     :      0.62s CPU      0.63s WALL (      76 calls)
     add_vuspsi   :      0.01s CPU      0.01s WALL (      76 calls)

     General routines
     calbec       :      0.03s CPU      0.03s WALL (      95 calls)
     fft          :      0.35s CPU      0.35s WALL (     259 calls)
     fftw         :      0.66s CPU      0.68s WALL (     918 calls)
     davcio       :      0.05s CPU      0.25s WALL (     287 calls)
 
     Parallel routines
     fft_scatt_xy :      0.08s CPU      0.08s WALL (    1177 calls)
     fft_scatt_yz :      0.35s CPU      0.37s WALL (    1177 calls)
 
     PWSCF        :     3.38s CPU         4.18s WALL

 
   This run was terminated on:   5:25: 1  12May2018            

=------------------------------------------------------------------------------=
   JOB DONE.
=------------------------------------------------------------------------------=
