
     Program PWSCF v.6.2 (svn rev. 14038) starts on 12May2018 at  5:25:27 

     This program is part of the open-source Quantum ESPRESSO suite
     for quantum simulation of materials; please cite
         "P. Giannozzi et al., J. Phys.:Condens. Matter 21 395502 (2009);
         "P. Giannozzi et al., J. Phys.:Condens. Matter 29 465901 (2017);
          URL http://www.quantum-espresso.org", 
     in publications or presentations arising from this work. More details at
     http://www.quantum-espresso.org/quote

     Parallel version (MPI), running on    28 processors

     MPI processes distributed on     1 nodes
     R & G space division:  proc/nbgrp/npool/nimage =      28
     Reading input from ../ecut60/21000.in
Warning: card &IONS ignored
Warning: card     POT_EXTRAPOLATION='SECOND-ORDER' ignored
Warning: card     WFC_EXTRAPOLATION='SECOND-ORDER' ignored
Warning: card     ION_TEMPERATURE = 'ANDERSEN' ignored
Warning: card / ignored

     Current dimensions of program PWSCF are:
     Max number of different atomic species (ntypx) = 10
     Max number of k-points (npk) =  40000
     Max angular momentum in pseudopotentials (lmaxx) =  3

     Subspace diagonalization in iterative solution of the eigenvalue problem:
     a serial algorithm will be used

 
     Parallelization info
     --------------------
     sticks:   dense  smooth     PW     G-vecs:    dense   smooth      PW
     Min         273     273     67                17945    17945    2235
     Max         274     274     68                17950    17950    2240
     Sum        7645    7645   1901               502479   502479   62669
 


     bravais-lattice index     =            1
     lattice parameter (alat)  =      20.0000  a.u.
     unit-cell volume          =    8000.0000 (a.u.)^3
     number of atoms/cell      =            3
     number of atomic types    =            2
     number of electrons       =         8.00
     number of Kohn-Sham states=            8
     kinetic-energy cutoff     =      60.0000  Ry
     charge density cutoff     =     240.0000  Ry
     convergence threshold     =      1.0E-08
     mixing beta               =       0.7000
     number of iterations used =            8  plain     mixing
     Exchange-correlation      = PBE ( 1  4  3  4 0 0)

     celldm(1)=  20.000000  celldm(2)=   0.000000  celldm(3)=   0.000000
     celldm(4)=   0.000000  celldm(5)=   0.000000  celldm(6)=   0.000000

     crystal axes: (cart. coord. in units of alat)
               a(1) = (   1.000000   0.000000   0.000000 )  
               a(2) = (   0.000000   1.000000   0.000000 )  
               a(3) = (   0.000000   0.000000   1.000000 )  

     reciprocal axes: (cart. coord. in units 2 pi/alat)
               b(1) = (  1.000000  0.000000  0.000000 )  
               b(2) = (  0.000000  1.000000  0.000000 )  
               b(3) = (  0.000000  0.000000  1.000000 )  


     PseudoPot. # 1 for H  read from file:
     ../pslibrary/pbe/PSEUDOPOTENTIALS/H.pbe-rrkjus_psl.1.0.0.UPF
     MD5 check sum: b2b1ff84b4ceabe23335d1bf25025923
     Pseudo is Ultrasoft, Zval =  1.0
     Generated using "atomic" code by A. Dal Corso v.6.2 svn rev. 14038
     Using radial grid of  929 points,  2 beta functions with: 
                l(1) =   0
                l(2) =   0
     Q(r) pseudized with 0 coefficients 


     PseudoPot. # 2 for O  read from file:
     ../pslibrary/pbe/PSEUDOPOTENTIALS/O.pbe-n-rrkjus_psl.1.0.0.UPF
     MD5 check sum: 61455b21a47f6823f888c3bfb9bd1235
     Pseudo is Ultrasoft + core correction, Zval =  6.0
     Generated using "atomic" code by A. Dal Corso v.6.2 svn rev. 14038
     Using radial grid of 1095 points,  4 beta functions with: 
                l(1) =   0
                l(2) =   0
                l(3) =   1
                l(4) =   1
     Q(r) pseudized with 0 coefficients 


     atomic species   valence    mass     pseudopotential
        H              1.00     1.01000     H ( 1.00)
        O              6.00    16.00000     O ( 1.00)

     No symmetry found



   Cartesian axes

     site n.     atom                  positions (alat units)
         1           O   tau(   1) = (   0.0105362   0.0179194   0.0001784  )
         2           H   tau(   2) = (   0.0265641  -0.0687826   0.0591369  )
         3           H   tau(   3) = (  -0.1934738  -0.2150896   0.0264013  )

     number of k points=     1  Marzari-Vanderbilt smearing, width (Ry)=  0.0250
                       cart. coord. in units 2pi/alat
        k(    1) = (   0.0000000   0.0000000   0.0000000), wk =   2.0000000

     Dense  grid:   502479 G-vectors     FFT dimensions: ( 100, 100, 100)

     Estimated max dynamical RAM per process >      21.64 MB

     Estimated total dynamical RAM >     605.96 MB

     Check: negative/imaginary core charge=   -0.000001    0.000000

     Initial potential from superposition of free atoms
     Check: negative starting charge=   -0.004653

     starting charge    7.99998, renormalised to    8.00000

     negative rho (up, down):  4.653E-03 0.000E+00
     Starting wfc are    6 randomized atomic wfcs +    2 random wfc

     total cpu time spent up to now is        1.1 secs

     Self-consistent Calculation

     iteration #  1     ecut=    60.00 Ry     beta= 0.70
     Davidson diagonalization with overlap
     ethr =  1.00E-02,  avg # of iterations =  7.0

     negative rho (up, down):  6.319E-03 0.000E+00

     total cpu time spent up to now is        1.5 secs

     total energy              =     -33.35541266 Ry
     Harris-Foulkes estimate   =     -34.49983570 Ry
     estimated scf accuracy    <       1.46256226 Ry

     iteration #  2     ecut=    60.00 Ry     beta= 0.70
     Davidson diagonalization with overlap
     ethr =  1.00E-02,  avg # of iterations =  3.0

     negative rho (up, down):  2.435E-05 0.000E+00

     total cpu time spent up to now is        1.6 secs

     total energy              =     -32.95418258 Ry
     Harris-Foulkes estimate   =     -36.78777765 Ry
     estimated scf accuracy    <      14.38992289 Ry

     iteration #  3     ecut=    60.00 Ry     beta= 0.70
     Davidson diagonalization with overlap
     ethr =  1.00E-02,  avg # of iterations =  5.0

     negative rho (up, down):  9.746E-05 0.000E+00

     total cpu time spent up to now is        1.8 secs

     total energy              =     -34.26503181 Ry
     Harris-Foulkes estimate   =     -34.40713385 Ry
     estimated scf accuracy    <       1.49319730 Ry

     iteration #  4     ecut=    60.00 Ry     beta= 0.70
     Davidson diagonalization with overlap
     ethr =  1.00E-02,  avg # of iterations =  1.0

     negative rho (up, down):  4.155E-04 0.000E+00

     total cpu time spent up to now is        1.9 secs

     total energy              =     -34.22323893 Ry
     Harris-Foulkes estimate   =     -34.27482483 Ry
     estimated scf accuracy    <       0.45363294 Ry

     iteration #  5     ecut=    60.00 Ry     beta= 0.70
     Davidson diagonalization with overlap
     ethr =  5.67E-03,  avg # of iterations =  1.0

     negative rho (up, down):  2.224E-04 0.000E+00

     total cpu time spent up to now is        2.0 secs

     total energy              =     -34.22816292 Ry
     Harris-Foulkes estimate   =     -34.29802117 Ry
     estimated scf accuracy    <       0.75618061 Ry

     iteration #  6     ecut=    60.00 Ry     beta= 0.70
     Davidson diagonalization with overlap
     ethr =  5.67E-03,  avg # of iterations =  1.0

     negative rho (up, down):  1.916E-03 0.000E+00

     total cpu time spent up to now is        2.2 secs

     total energy              =     -34.23733097 Ry
     Harris-Foulkes estimate   =     -34.27700073 Ry
     estimated scf accuracy    <       0.72491889 Ry

     iteration #  7     ecut=    60.00 Ry     beta= 0.70
     Davidson diagonalization with overlap
     ethr =  5.67E-03,  avg # of iterations =  1.0

     negative rho (up, down):  1.551E-03 0.000E+00

     total cpu time spent up to now is        2.3 secs

     total energy              =     -34.25642214 Ry
     Harris-Foulkes estimate   =     -34.26959437 Ry
     estimated scf accuracy    <       0.27037510 Ry

     iteration #  8     ecut=    60.00 Ry     beta= 0.70
     Davidson diagonalization with overlap
     ethr =  3.38E-03,  avg # of iterations =  1.0

     negative rho (up, down):  1.838E-03 0.000E+00

     total cpu time spent up to now is        2.5 secs

     total energy              =     -34.26480418 Ry
     Harris-Foulkes estimate   =     -34.26499015 Ry
     estimated scf accuracy    <       0.04627808 Ry

     iteration #  9     ecut=    60.00 Ry     beta= 0.70
     Davidson diagonalization with overlap
     ethr =  5.78E-04,  avg # of iterations =  1.0

     negative rho (up, down):  1.803E-03 0.000E+00

     total cpu time spent up to now is        2.6 secs

     total energy              =     -34.26513741 Ry
     Harris-Foulkes estimate   =     -34.26493436 Ry
     estimated scf accuracy    <       0.03366958 Ry

     iteration # 10     ecut=    60.00 Ry     beta= 0.70
     Davidson diagonalization with overlap
     ethr =  4.21E-04,  avg # of iterations =  1.0

     negative rho (up, down):  2.119E-03 0.000E+00

     total cpu time spent up to now is        2.7 secs

     total energy              =     -34.26480803 Ry
     Harris-Foulkes estimate   =     -34.26520033 Ry
     estimated scf accuracy    <       0.04840550 Ry

     iteration # 11     ecut=    60.00 Ry     beta= 0.70
     Davidson diagonalization with overlap
     ethr =  4.21E-04,  avg # of iterations =  1.0

     negative rho (up, down):  4.710E-03 0.000E+00

     total cpu time spent up to now is        2.9 secs

     total energy              =     -34.26396881 Ry
     Harris-Foulkes estimate   =     -34.26488746 Ry
     estimated scf accuracy    <       0.02524200 Ry

     iteration # 12     ecut=    60.00 Ry     beta= 0.70
     Davidson diagonalization with overlap
     ethr =  3.16E-04,  avg # of iterations =  1.0

     negative rho (up, down):  4.796E-03 0.000E+00

     total cpu time spent up to now is        3.0 secs

     total energy              =     -34.26456457 Ry
     Harris-Foulkes estimate   =     -34.26463069 Ry
     estimated scf accuracy    <       0.00213624 Ry

     iteration # 13     ecut=    60.00 Ry     beta= 0.70
     Davidson diagonalization with overlap
     ethr =  2.67E-05,  avg # of iterations =  6.0

     negative rho (up, down):  4.779E-03 0.000E+00

     total cpu time spent up to now is        3.2 secs

     total energy              =     -34.26460830 Ry
     Harris-Foulkes estimate   =     -34.26461084 Ry
     estimated scf accuracy    <       0.00007145 Ry

     iteration # 14     ecut=    60.00 Ry     beta= 0.70
     Davidson diagonalization with overlap
     ethr =  8.93E-07,  avg # of iterations = 10.0

     negative rho (up, down):  4.827E-03 0.000E+00

     total cpu time spent up to now is        3.4 secs

     total energy              =     -34.26461238 Ry
     Harris-Foulkes estimate   =     -34.26461980 Ry
     estimated scf accuracy    <       0.00014502 Ry

     iteration # 15     ecut=    60.00 Ry     beta= 0.70
     Davidson diagonalization with overlap
     ethr =  8.93E-07,  avg # of iterations =  1.0

     negative rho (up, down):  4.859E-03 0.000E+00

     total cpu time spent up to now is        3.5 secs

     total energy              =     -34.26462445 Ry
     Harris-Foulkes estimate   =     -34.26461565 Ry
     estimated scf accuracy    <       0.00004327 Ry

     iteration # 16     ecut=    60.00 Ry     beta= 0.70
     Davidson diagonalization with overlap
     ethr =  5.41E-07,  avg # of iterations =  1.0

     negative rho (up, down):  4.871E-03 0.000E+00

     total cpu time spent up to now is        3.7 secs

     total energy              =     -34.26464417 Ry
     Harris-Foulkes estimate   =     -34.26462515 Ry
     estimated scf accuracy    <       0.00009020 Ry

     iteration # 17     ecut=    60.00 Ry     beta= 0.70
     Davidson diagonalization with overlap
     ethr =  5.41E-07,  avg # of iterations =  1.0

     negative rho (up, down):  4.868E-03 0.000E+00

     total cpu time spent up to now is        3.8 secs

     total energy              =     -34.26463933 Ry
     Harris-Foulkes estimate   =     -34.26464619 Ry
     estimated scf accuracy    <       0.00015774 Ry

     iteration # 18     ecut=    60.00 Ry     beta= 0.70
     Davidson diagonalization with overlap
     ethr =  5.41E-07,  avg # of iterations =  1.0

     negative rho (up, down):  4.843E-03 0.000E+00

     total cpu time spent up to now is        3.9 secs

     total energy              =     -34.26459129 Ry
     Harris-Foulkes estimate   =     -34.26464011 Ry
     estimated scf accuracy    <       0.00013529 Ry

     iteration # 19     ecut=    60.00 Ry     beta= 0.70
     Davidson diagonalization with overlap
     ethr =  5.41E-07,  avg # of iterations =  3.0

     negative rho (up, down):  4.809E-03 0.000E+00

     total cpu time spent up to now is        4.1 secs

     total energy              =     -34.26460196 Ry
     Harris-Foulkes estimate   =     -34.26460274 Ry
     estimated scf accuracy    <       0.00000234 Ry

     iteration # 20     ecut=    60.00 Ry     beta= 0.70
     Davidson diagonalization with overlap
     ethr =  2.92E-08,  avg # of iterations =  4.0

     negative rho (up, down):  4.846E-03 0.000E+00

     total cpu time spent up to now is        4.3 secs

     total energy              =     -34.26460546 Ry
     Harris-Foulkes estimate   =     -34.26460592 Ry
     estimated scf accuracy    <       0.00000216 Ry

     iteration # 21     ecut=    60.00 Ry     beta= 0.70
     Davidson diagonalization with overlap
     ethr =  2.70E-08,  avg # of iterations =  1.0

     negative rho (up, down):  4.870E-03 0.000E+00

     total cpu time spent up to now is        4.4 secs

     total energy              =     -34.26460516 Ry
     Harris-Foulkes estimate   =     -34.26460549 Ry
     estimated scf accuracy    <       0.00000100 Ry

     iteration # 22     ecut=    60.00 Ry     beta= 0.70
     Davidson diagonalization with overlap
     ethr =  1.25E-08,  avg # of iterations =  2.0

     negative rho (up, down):  4.863E-03 0.000E+00

     total cpu time spent up to now is        4.5 secs

     total energy              =     -34.26460531 Ry
     Harris-Foulkes estimate   =     -34.26460532 Ry
     estimated scf accuracy    <       0.00000022 Ry

     iteration # 23     ecut=    60.00 Ry     beta= 0.70
     Davidson diagonalization with overlap
     ethr =  2.70E-09,  avg # of iterations =  3.0

     negative rho (up, down):  4.857E-03 0.000E+00

     total cpu time spent up to now is        4.7 secs

     total energy              =     -34.26460535 Ry
     Harris-Foulkes estimate   =     -34.26460535 Ry
     estimated scf accuracy    <       0.00000017 Ry

     iteration # 24     ecut=    60.00 Ry     beta= 0.70
     Davidson diagonalization with overlap
     ethr =  2.13E-09,  avg # of iterations =  1.0

     negative rho (up, down):  4.858E-03 0.000E+00

     total cpu time spent up to now is        4.8 secs

     total energy              =     -34.26460535 Ry
     Harris-Foulkes estimate   =     -34.26460535 Ry
     estimated scf accuracy    <       0.00000001 Ry

     iteration # 25     ecut=    60.00 Ry     beta= 0.70
     Davidson diagonalization with overlap
     ethr =  1.53E-10,  avg # of iterations =  1.0

     negative rho (up, down):  4.856E-03 0.000E+00

     total cpu time spent up to now is        5.0 secs

     total energy              =     -34.26460535 Ry
     Harris-Foulkes estimate   =     -34.26460535 Ry
     estimated scf accuracy    <       0.00000001 Ry

     iteration # 26     ecut=    60.00 Ry     beta= 0.70
     Davidson diagonalization with overlap
     ethr =  1.36E-10,  avg # of iterations =  1.0

     negative rho (up, down):  4.856E-03 0.000E+00

     total cpu time spent up to now is        5.1 secs

     End of self-consistent calculation

          k = 0.0000 0.0000 0.0000 ( 62669 PWs)   bands (ev):

   -23.2779 -10.3913  -7.4803  -7.3332  -7.0583  -0.9903  -0.0213   0.6400

     the Fermi energy is    -7.1608 ev

!    total energy              =     -34.26460535 Ry
     Harris-Foulkes estimate   =     -34.26460535 Ry
     estimated scf accuracy    <          1.5E-09 Ry

     The total energy is the sum of the following terms:

     one-electron contribution =     -53.18882330 Ry
     hartree contribution      =      28.16540719 Ry
     xc contribution           =      -8.26346069 Ry
     ewald contribution        =      -0.97101064 Ry
     smearing contrib. (-TS)   =      -0.00671791 Ry

     convergence has been achieved in  26 iterations

     Writing output data file pwscf.save
 
     init_run     :      0.36s CPU      0.43s WALL (       1 calls)
     electrons    :      3.40s CPU      4.03s WALL (       1 calls)

     Called by init_run:
     wfcinit      :      0.07s CPU      0.11s WALL (       1 calls)
     potinit      :      0.06s CPU      0.06s WALL (       1 calls)

     Called by electrons:
     c_bands      :      0.93s CPU      0.96s WALL (      26 calls)
     sum_band     :      0.75s CPU      0.77s WALL (      26 calls)
     v_of_rho     :      0.67s CPU      0.70s WALL (      27 calls)
     newd         :      0.40s CPU      0.41s WALL (      27 calls)
     mix_rho      :      0.47s CPU      0.88s WALL (      26 calls)

     Called by c_bands:
     init_us_2    :      0.03s CPU      0.04s WALL (      53 calls)
     cegterg      :      0.88s CPU      0.91s WALL (      26 calls)

     Called by sum_band:
     sum_band:bec :      0.00s CPU      0.00s WALL (      26 calls)
     addusdens    :      0.49s CPU      0.49s WALL (      26 calls)

     Called by *egterg:
     h_psi        :      0.81s CPU      0.83s WALL (      87 calls)
     s_psi        :      0.01s CPU      0.01s WALL (      87 calls)
     g_psi        :      0.01s CPU      0.01s WALL (      60 calls)
     cdiaghg      :      0.02s CPU      0.02s WALL (      86 calls)

     Called by h_psi:
     h_psi:pot    :      0.80s CPU      0.82s WALL (      87 calls)
     h_psi:calbec :      0.02s CPU      0.03s WALL (      87 calls)
     vloc_psi     :      0.77s CPU      0.79s WALL (      87 calls)
     add_vuspsi   :      0.01s CPU      0.01s WALL (      87 calls)

     General routines
     calbec       :      0.03s CPU      0.03s WALL (     113 calls)
     fft          :      0.46s CPU      0.48s WALL (     350 calls)
     fftw         :      0.83s CPU      0.85s WALL (    1202 calls)
     davcio       :      0.06s CPU      0.36s WALL (     427 calls)
 
     Parallel routines
     fft_scatt_xy :      0.11s CPU      0.11s WALL (    1552 calls)
     fft_scatt_yz :      0.44s CPU      0.47s WALL (    1552 calls)
 
     PWSCF        :     4.36s CPU         5.50s WALL

 
   This run was terminated on:   5:25:33  12May2018            

=------------------------------------------------------------------------------=
   JOB DONE.
=------------------------------------------------------------------------------=
