
     Program PWSCF v.6.2 (svn rev. 14038) starts on 12May2018 at  5:26: 7 

     This program is part of the open-source Quantum ESPRESSO suite
     for quantum simulation of materials; please cite
         "P. Giannozzi et al., J. Phys.:Condens. Matter 21 395502 (2009);
         "P. Giannozzi et al., J. Phys.:Condens. Matter 29 465901 (2017);
          URL http://www.quantum-espresso.org", 
     in publications or presentations arising from this work. More details at
     http://www.quantum-espresso.org/quote

     Parallel version (MPI), running on    28 processors

     MPI processes distributed on     1 nodes
     R & G space division:  proc/nbgrp/npool/nimage =      28
     Reading input from ../ecut60/23500.in
Warning: card &IONS ignored
Warning: card     POT_EXTRAPOLATION='SECOND-ORDER' ignored
Warning: card     WFC_EXTRAPOLATION='SECOND-ORDER' ignored
Warning: card     ION_TEMPERATURE = 'ANDERSEN' ignored
Warning: card / ignored

     Current dimensions of program PWSCF are:
     Max number of different atomic species (ntypx) = 10
     Max number of k-points (npk) =  40000
     Max angular momentum in pseudopotentials (lmaxx) =  3

     Subspace diagonalization in iterative solution of the eigenvalue problem:
     a serial algorithm will be used

 
     Parallelization info
     --------------------
     sticks:   dense  smooth     PW     G-vecs:    dense   smooth      PW
     Min         273     273     67                17945    17945    2235
     Max         274     274     68                17950    17950    2240
     Sum        7645    7645   1901               502479   502479   62669
 


     bravais-lattice index     =            1
     lattice parameter (alat)  =      20.0000  a.u.
     unit-cell volume          =    8000.0000 (a.u.)^3
     number of atoms/cell      =            3
     number of atomic types    =            2
     number of electrons       =         8.00
     number of Kohn-Sham states=            8
     kinetic-energy cutoff     =      60.0000  Ry
     charge density cutoff     =     240.0000  Ry
     convergence threshold     =      1.0E-08
     mixing beta               =       0.7000
     number of iterations used =            8  plain     mixing
     Exchange-correlation      = PBE ( 1  4  3  4 0 0)

     celldm(1)=  20.000000  celldm(2)=   0.000000  celldm(3)=   0.000000
     celldm(4)=   0.000000  celldm(5)=   0.000000  celldm(6)=   0.000000

     crystal axes: (cart. coord. in units of alat)
               a(1) = (   1.000000   0.000000   0.000000 )  
               a(2) = (   0.000000   1.000000   0.000000 )  
               a(3) = (   0.000000   0.000000   1.000000 )  

     reciprocal axes: (cart. coord. in units 2 pi/alat)
               b(1) = (  1.000000  0.000000  0.000000 )  
               b(2) = (  0.000000  1.000000  0.000000 )  
               b(3) = (  0.000000  0.000000  1.000000 )  


     PseudoPot. # 1 for H  read from file:
     ../pslibrary/pbe/PSEUDOPOTENTIALS/H.pbe-rrkjus_psl.1.0.0.UPF
     MD5 check sum: b2b1ff84b4ceabe23335d1bf25025923
     Pseudo is Ultrasoft, Zval =  1.0
     Generated using "atomic" code by A. Dal Corso v.6.2 svn rev. 14038
     Using radial grid of  929 points,  2 beta functions with: 
                l(1) =   0
                l(2) =   0
     Q(r) pseudized with 0 coefficients 


     PseudoPot. # 2 for O  read from file:
     ../pslibrary/pbe/PSEUDOPOTENTIALS/O.pbe-n-rrkjus_psl.1.0.0.UPF
     MD5 check sum: 61455b21a47f6823f888c3bfb9bd1235
     Pseudo is Ultrasoft + core correction, Zval =  6.0
     Generated using "atomic" code by A. Dal Corso v.6.2 svn rev. 14038
     Using radial grid of 1095 points,  4 beta functions with: 
                l(1) =   0
                l(2) =   0
                l(3) =   1
                l(4) =   1
     Q(r) pseudized with 0 coefficients 


     atomic species   valence    mass     pseudopotential
        H              1.00     1.01000     H ( 1.00)
        O              6.00    16.00000     O ( 1.00)

     No symmetry found



   Cartesian axes

     site n.     atom                  positions (alat units)
         1           O   tau(   1) = (  -0.0092488  -0.0049356   0.0055891  )
         2           H   tau(   2) = (   0.0394755   0.0558817  -0.0480239  )
         3           H   tau(   3) = (   0.1070402   0.0223056   0.0478468  )

     number of k points=     1  Marzari-Vanderbilt smearing, width (Ry)=  0.0250
                       cart. coord. in units 2pi/alat
        k(    1) = (   0.0000000   0.0000000   0.0000000), wk =   2.0000000

     Dense  grid:   502479 G-vectors     FFT dimensions: ( 100, 100, 100)

     Estimated max dynamical RAM per process >      21.64 MB

     Estimated total dynamical RAM >     605.96 MB

     Check: negative/imaginary core charge=   -0.000001    0.000000

     Initial potential from superposition of free atoms
     Check: negative starting charge=   -0.005026

     starting charge    7.99998, renormalised to    8.00000

     negative rho (up, down):  5.026E-03 0.000E+00
     Starting wfc are    6 randomized atomic wfcs +    2 random wfc

     total cpu time spent up to now is        1.1 secs

     Self-consistent Calculation

     iteration #  1     ecut=    60.00 Ry     beta= 0.70
     Davidson diagonalization with overlap
     ethr =  1.00E-02,  avg # of iterations =  6.0

     negative rho (up, down):  6.403E-03 0.000E+00

     total cpu time spent up to now is        1.3 secs

     total energy              =     -34.38093583 Ry
     Harris-Foulkes estimate   =     -34.72994863 Ry
     estimated scf accuracy    <       0.46876539 Ry

     iteration #  2     ecut=    60.00 Ry     beta= 0.70
     Davidson diagonalization with overlap
     ethr =  5.86E-03,  avg # of iterations =  2.0

     negative rho (up, down):  4.598E-03 0.000E+00

     total cpu time spent up to now is        1.5 secs

     total energy              =     -34.38807691 Ry
     Harris-Foulkes estimate   =     -34.86523242 Ry
     estimated scf accuracy    <       1.23117464 Ry

     iteration #  3     ecut=    60.00 Ry     beta= 0.70
     Davidson diagonalization with overlap
     ethr =  5.86E-03,  avg # of iterations =  3.0

     negative rho (up, down):  4.084E-03 0.000E+00

     total cpu time spent up to now is        1.6 secs

     total energy              =     -34.57207852 Ry
     Harris-Foulkes estimate   =     -34.57880598 Ry
     estimated scf accuracy    <       0.02099452 Ry

     iteration #  4     ecut=    60.00 Ry     beta= 0.70
     Davidson diagonalization with overlap
     ethr =  2.62E-04,  avg # of iterations =  6.0

     negative rho (up, down):  4.744E-03 0.000E+00

     total cpu time spent up to now is        1.7 secs

     total energy              =     -34.61952436 Ry
     Harris-Foulkes estimate   =     -34.62582463 Ry
     estimated scf accuracy    <       0.02293157 Ry

     iteration #  5     ecut=    60.00 Ry     beta= 0.70
     Davidson diagonalization with overlap
     ethr =  2.62E-04,  avg # of iterations =  1.0

     negative rho (up, down):  5.023E-03 0.000E+00

     total cpu time spent up to now is        1.9 secs

     total energy              =     -34.61892984 Ry
     Harris-Foulkes estimate   =     -34.62040421 Ry
     estimated scf accuracy    <       0.00683047 Ry

     iteration #  6     ecut=    60.00 Ry     beta= 0.70
     Davidson diagonalization with overlap
     ethr =  8.54E-05,  avg # of iterations =  2.0

     negative rho (up, down):  5.135E-03 0.000E+00

     total cpu time spent up to now is        2.0 secs

     total energy              =     -34.61943039 Ry
     Harris-Foulkes estimate   =     -34.61960987 Ry
     estimated scf accuracy    <       0.00187765 Ry

     iteration #  7     ecut=    60.00 Ry     beta= 0.70
     Davidson diagonalization with overlap
     ethr =  2.35E-05,  avg # of iterations =  7.0

     negative rho (up, down):  5.236E-03 0.000E+00

     total cpu time spent up to now is        2.2 secs

     total energy              =     -34.62001809 Ry
     Harris-Foulkes estimate   =     -34.62001817 Ry
     estimated scf accuracy    <       0.00026377 Ry

     iteration #  8     ecut=    60.00 Ry     beta= 0.70
     Davidson diagonalization with overlap
     ethr =  3.30E-06,  avg # of iterations =  4.0

     negative rho (up, down):  5.300E-03 0.000E+00

     total cpu time spent up to now is        2.4 secs

     total energy              =     -34.62009727 Ry
     Harris-Foulkes estimate   =     -34.62008871 Ry
     estimated scf accuracy    <       0.00018127 Ry

     iteration #  9     ecut=    60.00 Ry     beta= 0.70
     Davidson diagonalization with overlap
     ethr =  2.27E-06,  avg # of iterations =  1.0

     negative rho (up, down):  5.818E-03 0.000E+00

     total cpu time spent up to now is        2.5 secs

     total energy              =     -34.62014203 Ry
     Harris-Foulkes estimate   =     -34.62009895 Ry
     estimated scf accuracy    <       0.00019691 Ry

     iteration # 10     ecut=    60.00 Ry     beta= 0.70
     Davidson diagonalization with overlap
     ethr =  2.27E-06,  avg # of iterations =  2.0

     negative rho (up, down):  5.789E-03 0.000E+00

     total cpu time spent up to now is        2.7 secs

     total energy              =     -34.62011127 Ry
     Harris-Foulkes estimate   =     -34.62015310 Ry
     estimated scf accuracy    <       0.00032902 Ry

     iteration # 11     ecut=    60.00 Ry     beta= 0.70
     Davidson diagonalization with overlap
     ethr =  2.27E-06,  avg # of iterations =  1.0

     negative rho (up, down):  5.773E-03 0.000E+00

     total cpu time spent up to now is        2.8 secs

     total energy              =     -34.62006534 Ry
     Harris-Foulkes estimate   =     -34.62011401 Ry
     estimated scf accuracy    <       0.00021757 Ry

     iteration # 12     ecut=    60.00 Ry     beta= 0.70
     Davidson diagonalization with overlap
     ethr =  2.27E-06,  avg # of iterations =  1.0

     negative rho (up, down):  5.788E-03 0.000E+00

     total cpu time spent up to now is        2.9 secs

     total energy              =     -34.62005433 Ry
     Harris-Foulkes estimate   =     -34.62007191 Ry
     estimated scf accuracy    <       0.00008550 Ry

     iteration # 13     ecut=    60.00 Ry     beta= 0.70
     Davidson diagonalization with overlap
     ethr =  1.07E-06,  avg # of iterations =  2.0

     negative rho (up, down):  5.789E-03 0.000E+00

     total cpu time spent up to now is        3.1 secs

     total energy              =     -34.62006297 Ry
     Harris-Foulkes estimate   =     -34.62006180 Ry
     estimated scf accuracy    <       0.00001807 Ry

     iteration # 14     ecut=    60.00 Ry     beta= 0.70
     Davidson diagonalization with overlap
     ethr =  2.26E-07,  avg # of iterations =  1.0

     negative rho (up, down):  5.807E-03 0.000E+00

     total cpu time spent up to now is        3.2 secs

     total energy              =     -34.62007619 Ry
     Harris-Foulkes estimate   =     -34.62006366 Ry
     estimated scf accuracy    <       0.00002134 Ry

     iteration # 15     ecut=    60.00 Ry     beta= 0.70
     Davidson diagonalization with overlap
     ethr =  2.26E-07,  avg # of iterations =  1.0

     negative rho (up, down):  5.753E-03 0.000E+00

     total cpu time spent up to now is        3.4 secs

     total energy              =     -34.62004246 Ry
     Harris-Foulkes estimate   =     -34.62007856 Ry
     estimated scf accuracy    <       0.00006498 Ry

     iteration # 16     ecut=    60.00 Ry     beta= 0.70
     Davidson diagonalization with overlap
     ethr =  2.26E-07,  avg # of iterations =  3.0

     negative rho (up, down):  5.781E-03 0.000E+00

     total cpu time spent up to now is        3.5 secs

     total energy              =     -34.62005760 Ry
     Harris-Foulkes estimate   =     -34.62006540 Ry
     estimated scf accuracy    <       0.00002399 Ry

     iteration # 17     ecut=    60.00 Ry     beta= 0.70
     Davidson diagonalization with overlap
     ethr =  2.26E-07,  avg # of iterations =  1.0

     negative rho (up, down):  5.769E-03 0.000E+00

     total cpu time spent up to now is        3.7 secs

     total energy              =     -34.62006044 Ry
     Harris-Foulkes estimate   =     -34.62005875 Ry
     estimated scf accuracy    <       0.00000464 Ry

     iteration # 18     ecut=    60.00 Ry     beta= 0.70
     Davidson diagonalization with overlap
     ethr =  5.80E-08,  avg # of iterations =  1.0

     negative rho (up, down):  5.769E-03 0.000E+00

     total cpu time spent up to now is        3.8 secs

     total energy              =     -34.62005996 Ry
     Harris-Foulkes estimate   =     -34.62006076 Ry
     estimated scf accuracy    <       0.00000942 Ry

     iteration # 19     ecut=    60.00 Ry     beta= 0.70
     Davidson diagonalization with overlap
     ethr =  5.80E-08,  avg # of iterations =  1.0

     negative rho (up, down):  5.773E-03 0.000E+00

     total cpu time spent up to now is        3.9 secs

     total energy              =     -34.62005961 Ry
     Harris-Foulkes estimate   =     -34.62006012 Ry
     estimated scf accuracy    <       0.00000624 Ry

     iteration # 20     ecut=    60.00 Ry     beta= 0.70
     Davidson diagonalization with overlap
     ethr =  5.80E-08,  avg # of iterations =  1.0

     negative rho (up, down):  5.778E-03 0.000E+00

     total cpu time spent up to now is        4.1 secs

     total energy              =     -34.62005868 Ry
     Harris-Foulkes estimate   =     -34.62005979 Ry
     estimated scf accuracy    <       0.00000430 Ry

     iteration # 21     ecut=    60.00 Ry     beta= 0.70
     Davidson diagonalization with overlap
     ethr =  5.37E-08,  avg # of iterations =  1.0

     negative rho (up, down):  5.778E-03 0.000E+00

     total cpu time spent up to now is        4.2 secs

     total energy              =     -34.62005879 Ry
     Harris-Foulkes estimate   =     -34.62005895 Ry
     estimated scf accuracy    <       0.00000128 Ry

     iteration # 22     ecut=    60.00 Ry     beta= 0.70
     Davidson diagonalization with overlap
     ethr =  1.59E-08,  avg # of iterations =  3.0

     negative rho (up, down):  5.774E-03 0.000E+00

     total cpu time spent up to now is        4.4 secs

     total energy              =     -34.62005945 Ry
     Harris-Foulkes estimate   =     -34.62005947 Ry
     estimated scf accuracy    <       0.00000013 Ry

     iteration # 23     ecut=    60.00 Ry     beta= 0.70
     Davidson diagonalization with overlap
     ethr =  1.64E-09,  avg # of iterations =  1.0

     negative rho (up, down):  5.774E-03 0.000E+00

     total cpu time spent up to now is        4.5 secs

     total energy              =     -34.62005946 Ry
     Harris-Foulkes estimate   =     -34.62005946 Ry
     estimated scf accuracy    <       0.00000002 Ry

     iteration # 24     ecut=    60.00 Ry     beta= 0.70
     Davidson diagonalization with overlap
     ethr =  2.35E-10,  avg # of iterations =  3.0

     negative rho (up, down):  5.775E-03 0.000E+00

     total cpu time spent up to now is        4.7 secs

     total energy              =     -34.62005946 Ry
     Harris-Foulkes estimate   =     -34.62005947 Ry
     estimated scf accuracy    <       0.00000002 Ry

     iteration # 25     ecut=    60.00 Ry     beta= 0.70
     Davidson diagonalization with overlap
     ethr =  2.35E-10,  avg # of iterations =  1.0

     negative rho (up, down):  5.775E-03 0.000E+00

     total cpu time spent up to now is        4.8 secs

     End of self-consistent calculation

          k = 0.0000 0.0000 0.0000 ( 62669 PWs)   bands (ev):

   -24.3790 -11.0556  -9.6488  -7.0340  -2.8456  -0.2036   0.3965   0.8684

     the Fermi energy is    -5.1033 ev

!    total energy              =     -34.62005946 Ry
     Harris-Foulkes estimate   =     -34.62005947 Ry
     estimated scf accuracy    <          3.7E-09 Ry

     The total energy is the sum of the following terms:

     one-electron contribution =     -60.80800307 Ry
     hartree contribution      =      31.91711571 Ry
     xc contribution           =      -8.58316024 Ry
     ewald contribution        =       2.85398813 Ry
     smearing contrib. (-TS)   =       0.00000000 Ry

     convergence has been achieved in  25 iterations

     Writing output data file pwscf.save
 
     init_run     :      0.35s CPU      0.40s WALL (       1 calls)
     electrons    :      3.17s CPU      3.73s WALL (       1 calls)

     Called by init_run:
     wfcinit      :      0.05s CPU      0.08s WALL (       1 calls)
     potinit      :      0.06s CPU      0.06s WALL (       1 calls)

     Called by electrons:
     c_bands      :      0.92s CPU      0.96s WALL (      25 calls)
     sum_band     :      0.72s CPU      0.74s WALL (      25 calls)
     v_of_rho     :      0.61s CPU      0.63s WALL (      26 calls)
     newd         :      0.39s CPU      0.40s WALL (      26 calls)
     mix_rho      :      0.49s CPU      0.82s WALL (      25 calls)

     Called by c_bands:
     init_us_2    :      0.03s CPU      0.04s WALL (      51 calls)
     cegterg      :      0.88s CPU      0.90s WALL (      25 calls)

     Called by sum_band:
     sum_band:bec :      0.00s CPU      0.00s WALL (      25 calls)
     addusdens    :      0.47s CPU      0.47s WALL (      25 calls)

     Called by *egterg:
     h_psi        :      0.79s CPU      0.81s WALL (      82 calls)
     s_psi        :      0.01s CPU      0.01s WALL (      82 calls)
     g_psi        :      0.01s CPU      0.01s WALL (      56 calls)
     cdiaghg      :      0.02s CPU      0.02s WALL (      81 calls)

     Called by h_psi:
     h_psi:pot    :      0.79s CPU      0.80s WALL (      82 calls)
     h_psi:calbec :      0.02s CPU      0.02s WALL (      82 calls)
     vloc_psi     :      0.76s CPU      0.77s WALL (      82 calls)
     add_vuspsi   :      0.01s CPU      0.01s WALL (      82 calls)

     General routines
     calbec       :      0.03s CPU      0.03s WALL (     107 calls)
     fft          :      0.45s CPU      0.47s WALL (     337 calls)
     fftw         :      0.81s CPU      0.83s WALL (    1172 calls)
     davcio       :      0.06s CPU      0.31s WALL (     407 calls)
 
     Parallel routines
     fft_scatt_xy :      0.11s CPU      0.11s WALL (    1509 calls)
     fft_scatt_yz :      0.41s CPU      0.43s WALL (    1509 calls)
 
     PWSCF        :     4.21s CPU         5.18s WALL

 
   This run was terminated on:   5:26:12  12May2018            

=------------------------------------------------------------------------------=
   JOB DONE.
=------------------------------------------------------------------------------=
