
     Program PWSCF v.6.2 (svn rev. 14038) starts on 18May2018 at 15:34:13 

     This program is part of the open-source Quantum ESPRESSO suite
     for quantum simulation of materials; please cite
         "P. Giannozzi et al., J. Phys.:Condens. Matter 21 395502 (2009);
         "P. Giannozzi et al., J. Phys.:Condens. Matter 29 465901 (2017);
          URL http://www.quantum-espresso.org", 
     in publications or presentations arising from this work. More details at
     http://www.quantum-espresso.org/quote

     Parallel version (MPI), running on    28 processors

     MPI processes distributed on     1 nodes
     R & G space division:  proc/nbgrp/npool/nimage =      28
     Reading input from ../ecut2-400/14500.in
Warning: card &IONS ignored
Warning: card     POT_EXTRAPOLATION='SECOND-ORDER' ignored
Warning: card     WFC_EXTRAPOLATION='SECOND-ORDER' ignored
Warning: card     ION_TEMPERATURE = 'ANDERSEN' ignored
Warning: card / ignored

     Current dimensions of program PWSCF are:
     Max number of different atomic species (ntypx) = 10
     Max number of k-points (npk) =  40000
     Max angular momentum in pseudopotentials (lmaxx) =  3
               file H.pbe-kjpaw_psl.1.0.0.UPF: wavefunction(s)  1S renormalized
               file O.pbe-n-kjpaw_psl.1.0.0.UPF: wavefunction(s)  2S 2P renormalized

     Subspace diagonalization in iterative solution of the eigenvalue problem:
     a serial algorithm will be used

 
     Parallelization info
     --------------------
     sticks:   dense  smooth     PW     G-vecs:    dense   smooth      PW
     Min        1819    1819    455               308823   308823   38597
     Max        1820    1820    456               308826   308826   38599
     Sum       50949   50949  12745              8647083  8647083 1080751
 


     bravais-lattice index     =            1
     lattice parameter (alat)  =      20.0000  a.u.
     unit-cell volume          =    8000.0000 (a.u.)^3
     number of atoms/cell      =            3
     number of atomic types    =            2
     number of electrons       =         8.00
     number of Kohn-Sham states=            8
     kinetic-energy cutoff     =     400.0000  Ry
     charge density cutoff     =    1600.0000  Ry
     convergence threshold     =      1.0E-08
     mixing beta               =       0.7000
     number of iterations used =            8  plain     mixing
     Exchange-correlation      = SLA PW PBX PBC ( 1  4  3  4 0 0)

     celldm(1)=  20.000000  celldm(2)=   0.000000  celldm(3)=   0.000000
     celldm(4)=   0.000000  celldm(5)=   0.000000  celldm(6)=   0.000000

     crystal axes: (cart. coord. in units of alat)
               a(1) = (   1.000000   0.000000   0.000000 )  
               a(2) = (   0.000000   1.000000   0.000000 )  
               a(3) = (   0.000000   0.000000   1.000000 )  

     reciprocal axes: (cart. coord. in units 2 pi/alat)
               b(1) = (  1.000000  0.000000  0.000000 )  
               b(2) = (  0.000000  1.000000  0.000000 )  
               b(3) = (  0.000000  0.000000  1.000000 )  


     PseudoPot. # 1 for H  read from file:
     ../pslibrary/pbe/PSEUDOPOTENTIALS/H.pbe-kjpaw_psl.1.0.0.UPF
     MD5 check sum: e77ef4e89cfa2d6a63e4c80bb1a147aa
     Pseudo is Projector augmented-wave, Zval =  1.0
     Generated using "atomic" code by A. Dal Corso v.6.2 svn rev. 14038
     Shape of augmentation charge: PSQ
     Using radial grid of  929 points,  2 beta functions with: 
                l(1) =   0
                l(2) =   0
     Q(r) pseudized with 0 coefficients 


     PseudoPot. # 2 for O  read from file:
     ../pslibrary/pbe/PSEUDOPOTENTIALS/O.pbe-n-kjpaw_psl.1.0.0.UPF
     MD5 check sum: bb09017f9a02654af35f7312a94eda3e
     Pseudo is Projector augmented-wave + core cor, Zval =  6.0
     Generated using "atomic" code by A. Dal Corso v.6.2 svn rev. 14038
     Shape of augmentation charge: PSQ
     Using radial grid of 1095 points,  4 beta functions with: 
                l(1) =   0
                l(2) =   0
                l(3) =   1
                l(4) =   1
     Q(r) pseudized with 0 coefficients 


     atomic species   valence    mass     pseudopotential
        H              1.00     1.01000     H ( 1.00)
        O              6.00    16.00000     O ( 1.00)

     No symmetry found



   Cartesian axes

     site n.     atom                  positions (alat units)
         1           O   tau(   1) = (  -0.0003056  -0.0048671   0.0144255  )
         2           H   tau(   2) = (   0.0578319   0.0438032  -0.0616627  )
         3           H   tau(   3) = (  -0.0529908   0.0332993  -0.0784969  )

     number of k points=     1  Marzari-Vanderbilt smearing, width (Ry)=  0.0250
                       cart. coord. in units 2pi/alat
        k(    1) = (   0.0000000   0.0000000   0.0000000), wk =   2.0000000

     Dense  grid:  8647083 G-vectors     FFT dimensions: ( 256, 256, 256)

     Estimated max dynamical RAM per process >     337.10 MB

     Estimated total dynamical RAM >       9.22 GB

     Initial potential from superposition of free atoms
     Check: negative starting charge=   -0.000148

     starting charge    7.99998, renormalised to    8.00000

     negative rho (up, down):  1.483E-04 0.000E+00
     Starting wfc are    6 randomized atomic wfcs +    2 random wfc
     Checking if some PAW data can be deallocated... 

     total cpu time spent up to now is       11.0 secs

     Self-consistent Calculation

     iteration #  1     ecut=   400.00 Ry     beta= 0.70
     Davidson diagonalization with overlap
     ethr =  1.00E-02,  avg # of iterations =  7.0

     negative rho (up, down):  7.207E-05 0.000E+00

     total cpu time spent up to now is       17.7 secs

     total energy              =     -43.70296991 Ry
     Harris-Foulkes estimate   =     -43.99497579 Ry
     estimated scf accuracy    <       0.39438966 Ry

     iteration #  2     ecut=   400.00 Ry     beta= 0.70
     Davidson diagonalization with overlap
     ethr =  4.93E-03,  avg # of iterations =  3.0

     negative rho (up, down):  2.667E-05 0.000E+00

     total cpu time spent up to now is       23.1 secs

     total energy              =     -43.69589853 Ry
     Harris-Foulkes estimate   =     -44.08269960 Ry
     estimated scf accuracy    <       0.96137485 Ry

     iteration #  3     ecut=   400.00 Ry     beta= 0.70
     Davidson diagonalization with overlap
     ethr =  4.93E-03,  avg # of iterations =  3.0

     negative rho (up, down):  3.626E-06 0.000E+00

     total cpu time spent up to now is       28.4 secs

     total energy              =     -43.84621773 Ry
     Harris-Foulkes estimate   =     -43.85145557 Ry
     estimated scf accuracy    <       0.01666148 Ry

     iteration #  4     ecut=   400.00 Ry     beta= 0.70
     Davidson diagonalization with overlap
     ethr =  2.08E-04,  avg # of iterations =  4.0

     negative rho (up, down):  5.883E-06 0.000E+00

     total cpu time spent up to now is       34.7 secs

     total energy              =     -43.89047345 Ry
     Harris-Foulkes estimate   =     -43.89658011 Ry
     estimated scf accuracy    <       0.02516904 Ry

     iteration #  5     ecut=   400.00 Ry     beta= 0.70
     Davidson diagonalization with overlap
     ethr =  2.08E-04,  avg # of iterations =  1.0

     negative rho (up, down):  7.776E-06 0.000E+00

     total cpu time spent up to now is       40.0 secs

     total energy              =     -43.88920008 Ry
     Harris-Foulkes estimate   =     -43.89110901 Ry
     estimated scf accuracy    <       0.00990478 Ry

     iteration #  6     ecut=   400.00 Ry     beta= 0.70
     Davidson diagonalization with overlap
     ethr =  1.24E-04,  avg # of iterations =  1.0

     negative rho (up, down):  8.034E-06 0.000E+00

     total cpu time spent up to now is       45.2 secs

     total energy              =     -43.88974018 Ry
     Harris-Foulkes estimate   =     -43.88979421 Ry
     estimated scf accuracy    <       0.00354586 Ry

     iteration #  7     ecut=   400.00 Ry     beta= 0.70
     Davidson diagonalization with overlap
     ethr =  4.43E-05,  avg # of iterations =  3.0

     negative rho (up, down):  8.196E-06 0.000E+00

     total cpu time spent up to now is       50.8 secs

     total energy              =     -43.89021633 Ry
     Harris-Foulkes estimate   =     -43.89021557 Ry
     estimated scf accuracy    <       0.00156030 Ry

     iteration #  8     ecut=   400.00 Ry     beta= 0.70
     Davidson diagonalization with overlap
     ethr =  1.95E-05,  avg # of iterations = 16.0

     negative rho (up, down):  7.771E-06 0.000E+00

     total cpu time spent up to now is       57.9 secs

     total energy              =     -43.89016492 Ry
     Harris-Foulkes estimate   =     -43.89024832 Ry
     estimated scf accuracy    <       0.00139805 Ry

     iteration #  9     ecut=   400.00 Ry     beta= 0.70
     Davidson diagonalization with overlap
     ethr =  1.75E-05,  avg # of iterations =  1.0

     negative rho (up, down):  7.817E-05 0.000E+00

     total cpu time spent up to now is       63.4 secs

     total energy              =     -43.89161722 Ry
     Harris-Foulkes estimate   =     -43.89017509 Ry
     estimated scf accuracy    <       0.00115328 Ry

     iteration # 10     ecut=   400.00 Ry     beta= 0.70
     Davidson diagonalization with overlap
     ethr =  1.44E-05,  avg # of iterations =  3.0

     negative rho (up, down):  7.916E-05 0.000E+00

     total cpu time spent up to now is       69.8 secs

     total energy              =     -43.89223820 Ry
     Harris-Foulkes estimate   =     -43.89280194 Ry
     estimated scf accuracy    <       0.01259490 Ry

     iteration # 11     ecut=   400.00 Ry     beta= 0.70
     Davidson diagonalization with overlap
     ethr =  1.44E-05,  avg # of iterations =  1.0

     negative rho (up, down):  1.661E-05 0.000E+00

     total cpu time spent up to now is       76.7 secs

     total energy              =     -43.88508867 Ry
     Harris-Foulkes estimate   =     -43.89224903 Ry
     estimated scf accuracy    <       0.01092805 Ry

     iteration # 12     ecut=   400.00 Ry     beta= 0.70
     Davidson diagonalization with overlap
     ethr =  1.44E-05,  avg # of iterations =  4.0

     negative rho (up, down):  3.144E-05 0.000E+00

     total cpu time spent up to now is       84.3 secs

     total energy              =     -43.88827069 Ry
     Harris-Foulkes estimate   =     -43.88917649 Ry
     estimated scf accuracy    <       0.01439969 Ry

     iteration # 13     ecut=   400.00 Ry     beta= 0.70
     Davidson diagonalization with overlap
     ethr =  1.44E-05,  avg # of iterations =  1.0

     negative rho (up, down):  5.153E-03 0.000E+00

     total cpu time spent up to now is       89.7 secs

     total energy              =     -43.87937136 Ry
     Harris-Foulkes estimate   =     -43.88829559 Ry
     estimated scf accuracy    <       0.01180749 Ry

     iteration # 14     ecut=   400.00 Ry     beta= 0.70
     Davidson diagonalization with overlap
     ethr =  1.44E-05,  avg # of iterations =  4.0

     negative rho (up, down):  5.696E-05 0.000E+00

     total cpu time spent up to now is       97.3 secs

     total energy              =     -43.87699522 Ry
     Harris-Foulkes estimate   =     -43.90989653 Ry
     estimated scf accuracy    <       0.08506324 Ry

     iteration # 15     ecut=   400.00 Ry     beta= 0.70
     Davidson diagonalization with overlap
     ethr =  1.44E-05,  avg # of iterations =  4.0

     negative rho (up, down):  4.584E-05 0.000E+00

     total cpu time spent up to now is      104.6 secs

     total energy              =     -43.88990262 Ry
     Harris-Foulkes estimate   =     -43.88995340 Ry
     estimated scf accuracy    <       0.00007436 Ry

     iteration # 16     ecut=   400.00 Ry     beta= 0.70
     Davidson diagonalization with overlap
     ethr =  9.29E-07,  avg # of iterations =  3.0

     negative rho (up, down):  4.913E-05 0.000E+00

     total cpu time spent up to now is      110.8 secs

     total energy              =     -43.88993115 Ry
     Harris-Foulkes estimate   =     -43.89000993 Ry
     estimated scf accuracy    <       0.00032047 Ry

     iteration # 17     ecut=   400.00 Ry     beta= 0.70
     Davidson diagonalization with overlap
     ethr =  9.29E-07,  avg # of iterations =  1.0

     negative rho (up, down):  4.917E-05 0.000E+00

     total cpu time spent up to now is      116.2 secs

     total energy              =     -43.88992462 Ry
     Harris-Foulkes estimate   =     -43.88994182 Ry
     estimated scf accuracy    <       0.00010439 Ry

     iteration # 18     ecut=   400.00 Ry     beta= 0.70
     Davidson diagonalization with overlap
     ethr =  9.29E-07,  avg # of iterations =  2.0

     negative rho (up, down):  5.352E-05 0.000E+00

     total cpu time spent up to now is      122.0 secs

     total energy              =     -43.88993558 Ry
     Harris-Foulkes estimate   =     -43.88994115 Ry
     estimated scf accuracy    <       0.00001067 Ry

     iteration # 19     ecut=   400.00 Ry     beta= 0.70
     Davidson diagonalization with overlap
     ethr =  1.33E-07,  avg # of iterations =  1.0

     negative rho (up, down):  5.497E-05 0.000E+00

     total cpu time spent up to now is      127.4 secs

     total energy              =     -43.88993757 Ry
     Harris-Foulkes estimate   =     -43.88993750 Ry
     estimated scf accuracy    <       0.00000056 Ry

     iteration # 20     ecut=   400.00 Ry     beta= 0.70
     Davidson diagonalization with overlap
     ethr =  7.03E-09,  avg # of iterations =  4.0

     negative rho (up, down):  5.410E-05 0.000E+00

     total cpu time spent up to now is      133.9 secs

     total energy              =     -43.88993905 Ry
     Harris-Foulkes estimate   =     -43.88994081 Ry
     estimated scf accuracy    <       0.00001084 Ry

     iteration # 21     ecut=   400.00 Ry     beta= 0.70
     Davidson diagonalization with overlap
     ethr =  7.03E-09,  avg # of iterations =  3.0

     negative rho (up, down):  5.356E-05 0.000E+00

     total cpu time spent up to now is      139.7 secs

     total energy              =     -43.88993827 Ry
     Harris-Foulkes estimate   =     -43.88993924 Ry
     estimated scf accuracy    <       0.00000522 Ry

     iteration # 22     ecut=   400.00 Ry     beta= 0.70
     Davidson diagonalization with overlap
     ethr =  7.03E-09,  avg # of iterations =  3.0

     negative rho (up, down):  5.319E-05 0.000E+00

     total cpu time spent up to now is      145.5 secs

     total energy              =     -43.88993827 Ry
     Harris-Foulkes estimate   =     -43.88993864 Ry
     estimated scf accuracy    <       0.00000113 Ry

     iteration # 23     ecut=   400.00 Ry     beta= 0.70
     Davidson diagonalization with overlap
     ethr =  7.03E-09,  avg # of iterations =  3.0

     negative rho (up, down):  5.320E-05 0.000E+00

     total cpu time spent up to now is      151.2 secs

     total energy              =     -43.88993840 Ry
     Harris-Foulkes estimate   =     -43.88993840 Ry
     estimated scf accuracy    <       0.00000008 Ry

     iteration # 24     ecut=   400.00 Ry     beta= 0.70
     Davidson diagonalization with overlap
     ethr =  1.04E-09,  avg # of iterations =  3.0

     negative rho (up, down):  5.313E-05 0.000E+00

     total cpu time spent up to now is      157.1 secs

     End of self-consistent calculation

          k = 0.0000 0.0000 0.0000 (****** PWs)   bands (ev):

   -24.1414 -11.3433  -9.4261  -7.0247  -2.2754   0.0115   0.1448   0.9152

     the Fermi energy is    -5.0088 ev

!    total energy              =     -43.88993844 Ry
     Harris-Foulkes estimate   =     -43.88993844 Ry
     estimated scf accuracy    <          8.7E-09 Ry

     total all-electron energy =      -152.736820 Ry

     The total energy is the sum of the following terms:

     one-electron contribution =     -60.26927066 Ry
     hartree contribution      =      31.81411739 Ry
     xc contribution           =      -8.55637019 Ry
     ewald contribution        =       2.71727356 Ry
     one-center paw contrib.   =      -9.59568854 Ry
     smearing contrib. (-TS)   =       0.00000000 Ry

     convergence has been achieved in  24 iterations

     Writing output data file pwscf.save
 
     init_run     :      9.26s CPU      9.76s WALL (       1 calls)
     electrons    :    123.33s CPU    146.67s WALL (       1 calls)

     Called by init_run:
     wfcinit      :      0.79s CPU      0.86s WALL (       1 calls)
     potinit      :      1.21s CPU      1.32s WALL (       1 calls)

     Called by electrons:
     c_bands      :     51.40s CPU     55.31s WALL (      24 calls)
     sum_band     :     31.22s CPU     34.07s WALL (      24 calls)
     v_of_rho     :     20.26s CPU     21.13s WALL (      25 calls)
     newd         :     10.58s CPU     13.17s WALL (      25 calls)
     PAW_pot      :      0.27s CPU      0.29s WALL (      25 calls)
     mix_rho      :      9.98s CPU     22.78s WALL (      24 calls)

     Called by c_bands:
     init_us_2    :      0.75s CPU      0.78s WALL (      49 calls)
     cegterg      :     50.67s CPU     51.89s WALL (      24 calls)

     Called by sum_band:
     sum_band:bec :      0.00s CPU      0.00s WALL (      24 calls)
     addusdens    :     17.34s CPU     19.84s WALL (      24 calls)

     Called by *egterg:
     h_psi        :     48.12s CPU     49.30s WALL (     104 calls)
     s_psi        :      0.37s CPU      0.37s WALL (     104 calls)
     g_psi        :      0.13s CPU      0.14s WALL (      79 calls)
     cdiaghg      :      0.03s CPU      0.03s WALL (     103 calls)

     Called by h_psi:
     h_psi:pot    :     47.77s CPU     48.94s WALL (     104 calls)
     h_psi:calbec :      0.28s CPU      0.29s WALL (     104 calls)
     vloc_psi     :     47.14s CPU     48.30s WALL (     104 calls)
     add_vuspsi   :      0.35s CPU      0.35s WALL (     104 calls)

     General routines
     calbec       :      0.34s CPU      0.34s WALL (     128 calls)
     fft          :     23.92s CPU     25.33s WALL (     324 calls)
     fftw         :     49.34s CPU     50.59s WALL (    1294 calls)
     davcio       :      1.07s CPU     13.37s WALL (     387 calls)
 
     Parallel routines
     fft_scatt_xy :     12.06s CPU     12.10s WALL (    1618 calls)
     fft_scatt_yz :     19.26s CPU     21.63s WALL (    1618 calls)
 
     PWSCF        :  2m13.60s CPU     2m38.92s WALL

 
   This run was terminated on:  15:36:51  18May2018            

=------------------------------------------------------------------------------=
   JOB DONE.
=------------------------------------------------------------------------------=
