
     Program PWSCF v.6.2 (svn rev. 14038) starts on 18May2018 at 14:30:36 

     This program is part of the open-source Quantum ESPRESSO suite
     for quantum simulation of materials; please cite
         "P. Giannozzi et al., J. Phys.:Condens. Matter 21 395502 (2009);
         "P. Giannozzi et al., J. Phys.:Condens. Matter 29 465901 (2017);
          URL http://www.quantum-espresso.org", 
     in publications or presentations arising from this work. More details at
     http://www.quantum-espresso.org/quote

     Parallel version (MPI), running on    28 processors

     MPI processes distributed on     1 nodes
     R & G space division:  proc/nbgrp/npool/nimage =      28
     Reading input from ../ecut2-400/1500.in
Warning: card &IONS ignored
Warning: card     POT_EXTRAPOLATION='SECOND-ORDER' ignored
Warning: card     WFC_EXTRAPOLATION='SECOND-ORDER' ignored
Warning: card     ION_TEMPERATURE = 'ANDERSEN' ignored
Warning: card / ignored

     Current dimensions of program PWSCF are:
     Max number of different atomic species (ntypx) = 10
     Max number of k-points (npk) =  40000
     Max angular momentum in pseudopotentials (lmaxx) =  3
               file H.pbe-kjpaw_psl.1.0.0.UPF: wavefunction(s)  1S renormalized
               file O.pbe-n-kjpaw_psl.1.0.0.UPF: wavefunction(s)  2S 2P renormalized

     Subspace diagonalization in iterative solution of the eigenvalue problem:
     a serial algorithm will be used

 
     Parallelization info
     --------------------
     sticks:   dense  smooth     PW     G-vecs:    dense   smooth      PW
     Min        1819    1819    455               308823   308823   38597
     Max        1820    1820    456               308826   308826   38599
     Sum       50949   50949  12745              8647083  8647083 1080751
 


     bravais-lattice index     =            1
     lattice parameter (alat)  =      20.0000  a.u.
     unit-cell volume          =    8000.0000 (a.u.)^3
     number of atoms/cell      =            3
     number of atomic types    =            2
     number of electrons       =         8.00
     number of Kohn-Sham states=            8
     kinetic-energy cutoff     =     400.0000  Ry
     charge density cutoff     =    1600.0000  Ry
     convergence threshold     =      1.0E-08
     mixing beta               =       0.7000
     number of iterations used =            8  plain     mixing
     Exchange-correlation      = SLA PW PBX PBC ( 1  4  3  4 0 0)

     celldm(1)=  20.000000  celldm(2)=   0.000000  celldm(3)=   0.000000
     celldm(4)=   0.000000  celldm(5)=   0.000000  celldm(6)=   0.000000

     crystal axes: (cart. coord. in units of alat)
               a(1) = (   1.000000   0.000000   0.000000 )  
               a(2) = (   0.000000   1.000000   0.000000 )  
               a(3) = (   0.000000   0.000000   1.000000 )  

     reciprocal axes: (cart. coord. in units 2 pi/alat)
               b(1) = (  1.000000  0.000000  0.000000 )  
               b(2) = (  0.000000  1.000000  0.000000 )  
               b(3) = (  0.000000  0.000000  1.000000 )  


     PseudoPot. # 1 for H  read from file:
     ../pslibrary/pbe/PSEUDOPOTENTIALS/H.pbe-kjpaw_psl.1.0.0.UPF
     MD5 check sum: e77ef4e89cfa2d6a63e4c80bb1a147aa
     Pseudo is Projector augmented-wave, Zval =  1.0
     Generated using "atomic" code by A. Dal Corso v.6.2 svn rev. 14038
     Shape of augmentation charge: PSQ
     Using radial grid of  929 points,  2 beta functions with: 
                l(1) =   0
                l(2) =   0
     Q(r) pseudized with 0 coefficients 


     PseudoPot. # 2 for O  read from file:
     ../pslibrary/pbe/PSEUDOPOTENTIALS/O.pbe-n-kjpaw_psl.1.0.0.UPF
     MD5 check sum: bb09017f9a02654af35f7312a94eda3e
     Pseudo is Projector augmented-wave + core cor, Zval =  6.0
     Generated using "atomic" code by A. Dal Corso v.6.2 svn rev. 14038
     Shape of augmentation charge: PSQ
     Using radial grid of 1095 points,  4 beta functions with: 
                l(1) =   0
                l(2) =   0
                l(3) =   1
                l(4) =   1
     Q(r) pseudized with 0 coefficients 


     atomic species   valence    mass     pseudopotential
        H              1.00     1.01000     H ( 1.00)
        O              6.00    16.00000     O ( 1.00)

     No symmetry found



   Cartesian axes

     site n.     atom                  positions (alat units)
         1           O   tau(   1) = (   0.0009662  -0.0034870   0.0073677  )
         2           H   tau(   2) = (  -0.0508194  -0.0285106  -0.0545074  )
         3           H   tau(   3) = (   0.0355134   0.0837497   0.0261563  )

     number of k points=     1  Marzari-Vanderbilt smearing, width (Ry)=  0.0250
                       cart. coord. in units 2pi/alat
        k(    1) = (   0.0000000   0.0000000   0.0000000), wk =   2.0000000

     Dense  grid:  8647083 G-vectors     FFT dimensions: ( 256, 256, 256)

     Estimated max dynamical RAM per process >     337.10 MB

     Estimated total dynamical RAM >       9.22 GB

     Initial potential from superposition of free atoms
     Check: negative starting charge=   -0.000145

     starting charge    7.99998, renormalised to    8.00000

     negative rho (up, down):  1.449E-04 0.000E+00
     Starting wfc are    6 randomized atomic wfcs +    2 random wfc
     Checking if some PAW data can be deallocated... 

     total cpu time spent up to now is       10.5 secs

     Self-consistent Calculation

     iteration #  1     ecut=   400.00 Ry     beta= 0.70
     Davidson diagonalization with overlap
     ethr =  1.00E-02,  avg # of iterations =  6.0

     negative rho (up, down):  7.579E-05 0.000E+00

     total cpu time spent up to now is       17.4 secs

     total energy              =     -43.78350637 Ry
     Harris-Foulkes estimate   =     -44.17016246 Ry
     estimated scf accuracy    <       0.52017727 Ry

     iteration #  2     ecut=   400.00 Ry     beta= 0.70
     Davidson diagonalization with overlap
     ethr =  6.50E-03,  avg # of iterations =  3.0

     negative rho (up, down):  1.554E-05 0.000E+00

     total cpu time spent up to now is       23.1 secs

     total energy              =     -43.87220805 Ry
     Harris-Foulkes estimate   =     -44.14504251 Ry
     estimated scf accuracy    <       0.56989931 Ry

     iteration #  3     ecut=   400.00 Ry     beta= 0.70
     Davidson diagonalization with overlap
     ethr =  6.50E-03,  avg # of iterations =  1.0

     negative rho (up, down):  6.811E-05 0.000E+00

     total cpu time spent up to now is       28.3 secs

     total energy              =     -43.86546073 Ry
     Harris-Foulkes estimate   =     -43.92342742 Ry
     estimated scf accuracy    <       0.08817540 Ry

     iteration #  4     ecut=   400.00 Ry     beta= 0.70
     Davidson diagonalization with overlap
     ethr =  1.10E-03,  avg # of iterations =  4.0

     negative rho (up, down):  3.505E-08 0.000E+00

     total cpu time spent up to now is       34.5 secs

     total energy              =     -43.99277077 Ry
     Harris-Foulkes estimate   =     -44.08888503 Ry
     estimated scf accuracy    <       0.28941116 Ry

     iteration #  5     ecut=   400.00 Ry     beta= 0.70
     Davidson diagonalization with overlap
     ethr =  1.10E-03,  avg # of iterations =  1.0

     total cpu time spent up to now is       39.8 secs

     total energy              =     -43.98643430 Ry
     Harris-Foulkes estimate   =     -44.00121926 Ry
     estimated scf accuracy    <       0.11129286 Ry

     iteration #  6     ecut=   400.00 Ry     beta= 0.70
     Davidson diagonalization with overlap
     ethr =  1.10E-03,  avg # of iterations =  3.0

     total cpu time spent up to now is       45.7 secs

     total energy              =     -44.00613344 Ry
     Harris-Foulkes estimate   =     -44.00595735 Ry
     estimated scf accuracy    <       0.01644959 Ry

     iteration #  7     ecut=   400.00 Ry     beta= 0.70
     Davidson diagonalization with overlap
     ethr =  2.06E-04,  avg # of iterations =  1.0

     negative rho (up, down):  3.015E-08 0.000E+00

     total cpu time spent up to now is       51.1 secs

     total energy              =     -44.00343016 Ry
     Harris-Foulkes estimate   =     -44.00621349 Ry
     estimated scf accuracy    <       0.01715564 Ry

     iteration #  8     ecut=   400.00 Ry     beta= 0.70
     Davidson diagonalization with overlap
     ethr =  2.06E-04,  avg # of iterations =  1.0

     negative rho (up, down):  3.598E-05 0.000E+00

     total cpu time spent up to now is       56.5 secs

     total energy              =     -44.00105186 Ry
     Harris-Foulkes estimate   =     -44.00358435 Ry
     estimated scf accuracy    <       0.01152268 Ry

     iteration #  9     ecut=   400.00 Ry     beta= 0.70
     Davidson diagonalization with overlap
     ethr =  1.44E-04,  avg # of iterations =  1.0

     negative rho (up, down):  9.990E-05 0.000E+00

     total cpu time spent up to now is       62.7 secs

     total energy              =     -44.00126436 Ry
     Harris-Foulkes estimate   =     -44.00145822 Ry
     estimated scf accuracy    <       0.00479141 Ry

     iteration # 10     ecut=   400.00 Ry     beta= 0.70
     Davidson diagonalization with overlap
     ethr =  5.99E-05,  avg # of iterations =  1.0

     negative rho (up, down):  1.040E-04 0.000E+00

     total cpu time spent up to now is       68.5 secs

     total energy              =     -44.00102091 Ry
     Harris-Foulkes estimate   =     -44.00148307 Ry
     estimated scf accuracy    <       0.00431872 Ry

     iteration # 11     ecut=   400.00 Ry     beta= 0.70
     Davidson diagonalization with overlap
     ethr =  5.40E-05,  avg # of iterations =  1.0

     negative rho (up, down):  1.210E-04 0.000E+00

     total cpu time spent up to now is       74.1 secs

     total energy              =     -44.00117636 Ry
     Harris-Foulkes estimate   =     -44.00114292 Ry
     estimated scf accuracy    <       0.00269008 Ry

     iteration # 12     ecut=   400.00 Ry     beta= 0.70
     Davidson diagonalization with overlap
     ethr =  3.36E-05,  avg # of iterations =  2.0

     negative rho (up, down):  2.185E-04 0.000E+00

     total cpu time spent up to now is       79.8 secs

     total energy              =     -44.00157824 Ry
     Harris-Foulkes estimate   =     -44.00138822 Ry
     estimated scf accuracy    <       0.00223830 Ry

     iteration # 13     ecut=   400.00 Ry     beta= 0.70
     Davidson diagonalization with overlap
     ethr =  2.80E-05,  avg # of iterations =  1.0

     negative rho (up, down):  1.832E-04 0.000E+00

     total cpu time spent up to now is       85.6 secs

     total energy              =     -44.00144188 Ry
     Harris-Foulkes estimate   =     -44.00164209 Ry
     estimated scf accuracy    <       0.00209884 Ry

     iteration # 14     ecut=   400.00 Ry     beta= 0.70
     Davidson diagonalization with overlap
     ethr =  2.62E-05,  avg # of iterations =  1.0

     negative rho (up, down):  6.687E-05 0.000E+00

     total cpu time spent up to now is       91.2 secs

     total energy              =     -44.00248620 Ry
     Harris-Foulkes estimate   =     -44.00150023 Ry
     estimated scf accuracy    <       0.00172215 Ry

     iteration # 15     ecut=   400.00 Ry     beta= 0.70
     Davidson diagonalization with overlap
     ethr =  2.15E-05,  avg # of iterations =  7.0

     negative rho (up, down):  9.921E-05 0.000E+00

     total cpu time spent up to now is       97.4 secs

     total energy              =     -44.00028736 Ry
     Harris-Foulkes estimate   =     -44.00260663 Ry
     estimated scf accuracy    <       0.00384496 Ry

     iteration # 16     ecut=   400.00 Ry     beta= 0.70
     Davidson diagonalization with overlap
     ethr =  2.15E-05,  avg # of iterations =  3.0

     negative rho (up, down):  5.196E-05 0.000E+00

     total cpu time spent up to now is      103.6 secs

     total energy              =     -43.99734718 Ry
     Harris-Foulkes estimate   =     -43.99747539 Ry
     estimated scf accuracy    <       0.00048444 Ry

     iteration # 17     ecut=   400.00 Ry     beta= 0.70
     Davidson diagonalization with overlap
     ethr =  6.06E-06,  avg # of iterations =  1.0

     negative rho (up, down):  5.590E-05 0.000E+00

     total cpu time spent up to now is      109.3 secs

     total energy              =     -44.00132994 Ry
     Harris-Foulkes estimate   =     -44.00143369 Ry
     estimated scf accuracy    <       0.00022121 Ry

     iteration # 18     ecut=   400.00 Ry     beta= 0.70
     Davidson diagonalization with overlap
     ethr =  2.77E-06,  avg # of iterations =  3.0

     negative rho (up, down):  5.783E-05 0.000E+00

     total cpu time spent up to now is      115.6 secs

     total energy              =     -44.00141655 Ry
     Harris-Foulkes estimate   =     -44.00142582 Ry
     estimated scf accuracy    <       0.00003019 Ry

     iteration # 19     ecut=   400.00 Ry     beta= 0.70
     Davidson diagonalization with overlap
     ethr =  3.77E-07,  avg # of iterations =  1.0

     negative rho (up, down):  5.884E-05 0.000E+00

     total cpu time spent up to now is      121.1 secs

     total energy              =     -44.00141270 Ry
     Harris-Foulkes estimate   =     -44.00141754 Ry
     estimated scf accuracy    <       0.00001211 Ry

     iteration # 20     ecut=   400.00 Ry     beta= 0.70
     Davidson diagonalization with overlap
     ethr =  1.51E-07,  avg # of iterations =  3.0

     negative rho (up, down):  5.624E-05 0.000E+00

     total cpu time spent up to now is      127.0 secs

     total energy              =     -44.00142270 Ry
     Harris-Foulkes estimate   =     -44.00141726 Ry
     estimated scf accuracy    <       0.00000220 Ry

     iteration # 21     ecut=   400.00 Ry     beta= 0.70
     Davidson diagonalization with overlap
     ethr =  2.75E-08,  avg # of iterations =  3.0

     negative rho (up, down):  5.789E-05 0.000E+00

     total cpu time spent up to now is      133.5 secs

     total energy              =     -44.00141852 Ry
     Harris-Foulkes estimate   =     -44.00142846 Ry
     estimated scf accuracy    <       0.00004178 Ry

     iteration # 22     ecut=   400.00 Ry     beta= 0.70
     Davidson diagonalization with overlap
     ethr =  2.75E-08,  avg # of iterations =  3.0

     negative rho (up, down):  6.200E-05 0.000E+00

     total cpu time spent up to now is      139.7 secs

     total energy              =     -44.00141585 Ry
     Harris-Foulkes estimate   =     -44.00142019 Ry
     estimated scf accuracy    <       0.00001249 Ry

     iteration # 23     ecut=   400.00 Ry     beta= 0.70
     Davidson diagonalization with overlap
     ethr =  2.75E-08,  avg # of iterations =  4.0

     negative rho (up, down):  5.921E-05 0.000E+00

     total cpu time spent up to now is      146.1 secs

     total energy              =     -44.00141620 Ry
     Harris-Foulkes estimate   =     -44.00141697 Ry
     estimated scf accuracy    <       0.00000133 Ry

     iteration # 24     ecut=   400.00 Ry     beta= 0.70
     Davidson diagonalization with overlap
     ethr =  1.66E-08,  avg # of iterations =  3.0

     negative rho (up, down):  5.842E-05 0.000E+00

     total cpu time spent up to now is      151.9 secs

     total energy              =     -44.00141657 Ry
     Harris-Foulkes estimate   =     -44.00141655 Ry
     estimated scf accuracy    <       0.00000007 Ry

     iteration # 25     ecut=   400.00 Ry     beta= 0.70
     Davidson diagonalization with overlap
     ethr =  9.29E-10,  avg # of iterations =  4.0

     negative rho (up, down):  5.862E-05 0.000E+00

     total cpu time spent up to now is      158.0 secs

     total energy              =     -44.00141660 Ry
     Harris-Foulkes estimate   =     -44.00141678 Ry
     estimated scf accuracy    <       0.00000051 Ry

     iteration # 26     ecut=   400.00 Ry     beta= 0.70
     Davidson diagonalization with overlap
     ethr =  9.29E-10,  avg # of iterations =  4.0

     negative rho (up, down):  5.842E-05 0.000E+00

     total cpu time spent up to now is      164.3 secs

     total energy              =     -44.00141661 Ry
     Harris-Foulkes estimate   =     -44.00141664 Ry
     estimated scf accuracy    <       0.00000005 Ry

     iteration # 27     ecut=   400.00 Ry     beta= 0.70
     Davidson diagonalization with overlap
     ethr =  6.08E-10,  avg # of iterations =  6.0

     negative rho (up, down):  5.831E-05 0.000E+00

     total cpu time spent up to now is      170.7 secs

     total energy              =     -44.00141663 Ry
     Harris-Foulkes estimate   =     -44.00141664 Ry
     estimated scf accuracy    <       0.00000003 Ry

     iteration # 28     ecut=   400.00 Ry     beta= 0.70
     Davidson diagonalization with overlap
     ethr =  3.95E-10,  avg # of iterations =  1.0

     negative rho (up, down):  5.830E-05 0.000E+00

     total cpu time spent up to now is      176.3 secs

     total energy              =     -44.00141663 Ry
     Harris-Foulkes estimate   =     -44.00141663 Ry
     estimated scf accuracy    <       0.00000001 Ry

     iteration # 29     ecut=   400.00 Ry     beta= 0.70
     Davidson diagonalization with overlap
     ethr =  1.49E-10,  avg # of iterations =  3.0

     negative rho (up, down):  5.832E-05 0.000E+00

     total cpu time spent up to now is      181.3 secs

     End of self-consistent calculation

          k = 0.0000 0.0000 0.0000 (****** PWs)   bands (ev):

   -25.0376 -14.1484  -8.0756  -7.0467  -0.9218   0.3604   0.6587   1.0233

     the Fermi energy is    -5.1518 ev

!    total energy              =     -44.00141663 Ry
     Harris-Foulkes estimate   =     -44.00141663 Ry
     estimated scf accuracy    <          1.6E-09 Ry

     total all-electron energy =      -152.848298 Ry

     The total energy is the sum of the following terms:

     one-electron contribution =     -64.35325285 Ry
     hartree contribution      =      33.88646469 Ry
     xc contribution           =      -8.88537635 Ry
     ewald contribution        =       4.93280134 Ry
     one-center paw contrib.   =      -9.58205346 Ry
     smearing contrib. (-TS)   =       0.00000000 Ry

     convergence has been achieved in  29 iterations

     Writing output data file pwscf.save
 
     init_run     :      9.26s CPU      9.75s WALL (       1 calls)
     electrons    :    149.86s CPU    171.53s WALL (       1 calls)

     Called by init_run:
     wfcinit      :      0.81s CPU      0.91s WALL (       1 calls)
     potinit      :      1.22s CPU      1.31s WALL (       1 calls)

     Called by electrons:
     c_bands      :     56.44s CPU     58.48s WALL (      29 calls)
     sum_band     :     38.00s CPU     41.30s WALL (      29 calls)
     v_of_rho     :     24.71s CPU     25.62s WALL (      30 calls)
     newd         :     12.65s CPU     15.75s WALL (      30 calls)
     PAW_pot      :      0.25s CPU      0.28s WALL (      30 calls)
     mix_rho      :     18.10s CPU     29.84s WALL (      29 calls)

     Called by c_bands:
     init_us_2    :      0.88s CPU      0.91s WALL (      59 calls)
     cegterg      :     55.53s CPU     56.79s WALL (      29 calls)

     Called by sum_band:
     sum_band:bec :      0.00s CPU      0.00s WALL (      29 calls)
     addusdens    :     21.14s CPU     24.06s WALL (      29 calls)

     Called by *egterg:
     h_psi        :     53.09s CPU     54.34s WALL (     106 calls)
     s_psi        :      0.38s CPU      0.38s WALL (     106 calls)
     g_psi        :      0.13s CPU      0.14s WALL (      76 calls)
     cdiaghg      :      0.02s CPU      0.03s WALL (     105 calls)

     Called by h_psi:
     h_psi:pot    :     52.72s CPU     53.96s WALL (     106 calls)
     h_psi:calbec :      0.43s CPU      0.43s WALL (     106 calls)
     vloc_psi     :     51.93s CPU     53.16s WALL (     106 calls)
     add_vuspsi   :      0.36s CPU      0.36s WALL (     106 calls)

     General routines
     calbec       :      0.50s CPU      0.51s WALL (     135 calls)
     fft          :     29.86s CPU     31.37s WALL (     389 calls)
     fftw         :     55.20s CPU     56.56s WALL (    1410 calls)
     davcio       :      1.47s CPU     12.34s WALL (     487 calls)
 
     Parallel routines
     fft_scatt_xy :     13.74s CPU     13.77s WALL (    1799 calls)
     fft_scatt_yz :     22.78s CPU     25.37s WALL (    1799 calls)
 
     PWSCF        :  2m40.29s CPU     3m 4.12s WALL

 
   This run was terminated on:  14:33:40  18May2018            

=------------------------------------------------------------------------------=
   JOB DONE.
=------------------------------------------------------------------------------=
