
     Program PWSCF v.6.2 (svn rev. 14038) starts on 18May2018 at 15:42: 1 

     This program is part of the open-source Quantum ESPRESSO suite
     for quantum simulation of materials; please cite
         "P. Giannozzi et al., J. Phys.:Condens. Matter 21 395502 (2009);
         "P. Giannozzi et al., J. Phys.:Condens. Matter 29 465901 (2017);
          URL http://www.quantum-espresso.org", 
     in publications or presentations arising from this work. More details at
     http://www.quantum-espresso.org/quote

     Parallel version (MPI), running on    28 processors

     MPI processes distributed on     1 nodes
     R & G space division:  proc/nbgrp/npool/nimage =      28
     Reading input from ../ecut2-400/16000.in
Warning: card &IONS ignored
Warning: card     POT_EXTRAPOLATION='SECOND-ORDER' ignored
Warning: card     WFC_EXTRAPOLATION='SECOND-ORDER' ignored
Warning: card     ION_TEMPERATURE = 'ANDERSEN' ignored
Warning: card / ignored

     Current dimensions of program PWSCF are:
     Max number of different atomic species (ntypx) = 10
     Max number of k-points (npk) =  40000
     Max angular momentum in pseudopotentials (lmaxx) =  3
               file H.pbe-kjpaw_psl.1.0.0.UPF: wavefunction(s)  1S renormalized
               file O.pbe-n-kjpaw_psl.1.0.0.UPF: wavefunction(s)  2S 2P renormalized

     Subspace diagonalization in iterative solution of the eigenvalue problem:
     a serial algorithm will be used

 
     Parallelization info
     --------------------
     sticks:   dense  smooth     PW     G-vecs:    dense   smooth      PW
     Min        1819    1819    455               308823   308823   38597
     Max        1820    1820    456               308826   308826   38599
     Sum       50949   50949  12745              8647083  8647083 1080751
 


     bravais-lattice index     =            1
     lattice parameter (alat)  =      20.0000  a.u.
     unit-cell volume          =    8000.0000 (a.u.)^3
     number of atoms/cell      =            3
     number of atomic types    =            2
     number of electrons       =         8.00
     number of Kohn-Sham states=            8
     kinetic-energy cutoff     =     400.0000  Ry
     charge density cutoff     =    1600.0000  Ry
     convergence threshold     =      1.0E-08
     mixing beta               =       0.7000
     number of iterations used =            8  plain     mixing
     Exchange-correlation      = SLA PW PBX PBC ( 1  4  3  4 0 0)

     celldm(1)=  20.000000  celldm(2)=   0.000000  celldm(3)=   0.000000
     celldm(4)=   0.000000  celldm(5)=   0.000000  celldm(6)=   0.000000

     crystal axes: (cart. coord. in units of alat)
               a(1) = (   1.000000   0.000000   0.000000 )  
               a(2) = (   0.000000   1.000000   0.000000 )  
               a(3) = (   0.000000   0.000000   1.000000 )  

     reciprocal axes: (cart. coord. in units 2 pi/alat)
               b(1) = (  1.000000  0.000000  0.000000 )  
               b(2) = (  0.000000  1.000000  0.000000 )  
               b(3) = (  0.000000  0.000000  1.000000 )  


     PseudoPot. # 1 for H  read from file:
     ../pslibrary/pbe/PSEUDOPOTENTIALS/H.pbe-kjpaw_psl.1.0.0.UPF
     MD5 check sum: e77ef4e89cfa2d6a63e4c80bb1a147aa
     Pseudo is Projector augmented-wave, Zval =  1.0
     Generated using "atomic" code by A. Dal Corso v.6.2 svn rev. 14038
     Shape of augmentation charge: PSQ
     Using radial grid of  929 points,  2 beta functions with: 
                l(1) =   0
                l(2) =   0
     Q(r) pseudized with 0 coefficients 


     PseudoPot. # 2 for O  read from file:
     ../pslibrary/pbe/PSEUDOPOTENTIALS/O.pbe-n-kjpaw_psl.1.0.0.UPF
     MD5 check sum: bb09017f9a02654af35f7312a94eda3e
     Pseudo is Projector augmented-wave + core cor, Zval =  6.0
     Generated using "atomic" code by A. Dal Corso v.6.2 svn rev. 14038
     Shape of augmentation charge: PSQ
     Using radial grid of 1095 points,  4 beta functions with: 
                l(1) =   0
                l(2) =   0
                l(3) =   1
                l(4) =   1
     Q(r) pseudized with 0 coefficients 


     atomic species   valence    mass     pseudopotential
        H              1.00     1.01000     H ( 1.00)
        O              6.00    16.00000     O ( 1.00)

     No symmetry found



   Cartesian axes

     site n.     atom                  positions (alat units)
         1           O   tau(   1) = (  -0.0040208  -0.0097288   0.0055931  )
         2           H   tau(   2) = (  -0.0252565   0.1165225   0.0567062  )
         3           H   tau(   3) = (   0.0889514   0.0375970  -0.0569466  )

     number of k points=     1  Marzari-Vanderbilt smearing, width (Ry)=  0.0250
                       cart. coord. in units 2pi/alat
        k(    1) = (   0.0000000   0.0000000   0.0000000), wk =   2.0000000

     Dense  grid:  8647083 G-vectors     FFT dimensions: ( 256, 256, 256)

     Estimated max dynamical RAM per process >     337.10 MB

     Estimated total dynamical RAM >       9.22 GB

     Initial potential from superposition of free atoms
     Check: negative starting charge=   -0.000139

     starting charge    7.99998, renormalised to    8.00000

     negative rho (up, down):  1.389E-04 0.000E+00
     Starting wfc are    6 randomized atomic wfcs +    2 random wfc
     Checking if some PAW data can be deallocated... 

     total cpu time spent up to now is       12.4 secs

     Self-consistent Calculation

     iteration #  1     ecut=   400.00 Ry     beta= 0.70
     Davidson diagonalization with overlap
     ethr =  1.00E-02,  avg # of iterations =  8.0

     negative rho (up, down):  5.918E-05 0.000E+00

     total cpu time spent up to now is       20.4 secs

     total energy              =     -43.55098628 Ry
     Harris-Foulkes estimate   =     -43.88387024 Ry
     estimated scf accuracy    <       0.44452634 Ry

     iteration #  2     ecut=   400.00 Ry     beta= 0.70
     Davidson diagonalization with overlap
     ethr =  5.56E-03,  avg # of iterations =  3.0

     negative rho (up, down):  1.685E-05 0.000E+00

     total cpu time spent up to now is       27.0 secs

     total energy              =     -43.45740432 Ry
     Harris-Foulkes estimate   =     -44.16245452 Ry
     estimated scf accuracy    <       2.14171096 Ry

     iteration #  3     ecut=   400.00 Ry     beta= 0.70
     Davidson diagonalization with overlap
     ethr =  5.56E-03,  avg # of iterations =  3.0

     negative rho (up, down):  1.223E-06 0.000E+00

     total cpu time spent up to now is       33.4 secs

     total energy              =     -43.69918203 Ry
     Harris-Foulkes estimate   =     -43.71136456 Ry
     estimated scf accuracy    <       0.04947538 Ry

     iteration #  4     ecut=   400.00 Ry     beta= 0.70
     Davidson diagonalization with overlap
     ethr =  6.18E-04,  avg # of iterations =  4.0

     negative rho (up, down):  1.585E-06 0.000E+00

     total cpu time spent up to now is       39.4 secs

     total energy              =     -43.78500105 Ry
     Harris-Foulkes estimate   =     -43.79314929 Ry
     estimated scf accuracy    <       0.04269898 Ry

     iteration #  5     ecut=   400.00 Ry     beta= 0.70
     Davidson diagonalization with overlap
     ethr =  5.34E-04,  avg # of iterations =  1.0

     negative rho (up, down):  2.642E-06 0.000E+00

     total cpu time spent up to now is       44.6 secs

     total energy              =     -43.78402203 Ry
     Harris-Foulkes estimate   =     -43.78613550 Ry
     estimated scf accuracy    <       0.01577723 Ry

     iteration #  6     ecut=   400.00 Ry     beta= 0.70
     Davidson diagonalization with overlap
     ethr =  1.97E-04,  avg # of iterations =  1.0

     negative rho (up, down):  3.581E-06 0.000E+00

     total cpu time spent up to now is       49.9 secs

     total energy              =     -43.78354068 Ry
     Harris-Foulkes estimate   =     -43.78437746 Ry
     estimated scf accuracy    <       0.00854576 Ry

     iteration #  7     ecut=   400.00 Ry     beta= 0.70
     Davidson diagonalization with overlap
     ethr =  1.07E-04,  avg # of iterations =  1.0

     negative rho (up, down):  1.054E-05 0.000E+00

     total cpu time spent up to now is       55.3 secs

     total energy              =     -43.78233213 Ry
     Harris-Foulkes estimate   =     -43.78372069 Ry
     estimated scf accuracy    <       0.00519559 Ry

     iteration #  8     ecut=   400.00 Ry     beta= 0.70
     Davidson diagonalization with overlap
     ethr =  6.49E-05,  avg # of iterations =  9.0

     negative rho (up, down):  1.127E-05 0.000E+00

     total cpu time spent up to now is       61.9 secs

     total energy              =     -43.78785622 Ry
     Harris-Foulkes estimate   =     -43.78785631 Ry
     estimated scf accuracy    <       0.00002928 Ry

     iteration #  9     ecut=   400.00 Ry     beta= 0.70
     Davidson diagonalization with overlap
     ethr =  3.66E-07,  avg # of iterations =  7.0

     negative rho (up, down):  2.357E-05 0.000E+00

     total cpu time spent up to now is       69.3 secs

     total energy              =     -43.78786775 Ry
     Harris-Foulkes estimate   =     -43.78789773 Ry
     estimated scf accuracy    <       0.00015396 Ry

     iteration # 10     ecut=   400.00 Ry     beta= 0.70
     Davidson diagonalization with overlap
     ethr =  3.66E-07,  avg # of iterations =  1.0

     negative rho (up, down):  3.495E-05 0.000E+00

     total cpu time spent up to now is       74.8 secs

     total energy              =     -43.78787609 Ry
     Harris-Foulkes estimate   =     -43.78787255 Ry
     estimated scf accuracy    <       0.00004155 Ry

     iteration # 11     ecut=   400.00 Ry     beta= 0.70
     Davidson diagonalization with overlap
     ethr =  3.66E-07,  avg # of iterations =  1.0

     negative rho (up, down):  4.757E-05 0.000E+00

     total cpu time spent up to now is       80.4 secs

     total energy              =     -43.78787058 Ry
     Harris-Foulkes estimate   =     -43.78787663 Ry
     estimated scf accuracy    <       0.00004956 Ry

     iteration # 12     ecut=   400.00 Ry     beta= 0.70
     Davidson diagonalization with overlap
     ethr =  3.66E-07,  avg # of iterations =  1.0

     negative rho (up, down):  4.932E-05 0.000E+00

     total cpu time spent up to now is       85.9 secs

     total energy              =     -43.78787038 Ry
     Harris-Foulkes estimate   =     -43.78787182 Ry
     estimated scf accuracy    <       0.00002235 Ry

     iteration # 13     ecut=   400.00 Ry     beta= 0.70
     Davidson diagonalization with overlap
     ethr =  2.79E-07,  avg # of iterations =  1.0

     negative rho (up, down):  4.925E-05 0.000E+00

     total cpu time spent up to now is       91.4 secs

     total energy              =     -43.78787101 Ry
     Harris-Foulkes estimate   =     -43.78787084 Ry
     estimated scf accuracy    <       0.00001708 Ry

     iteration # 14     ecut=   400.00 Ry     beta= 0.70
     Davidson diagonalization with overlap
     ethr =  2.13E-07,  avg # of iterations =  1.0

     negative rho (up, down):  4.885E-05 0.000E+00

     total cpu time spent up to now is       96.8 secs

     total energy              =     -43.78787052 Ry
     Harris-Foulkes estimate   =     -43.78787152 Ry
     estimated scf accuracy    <       0.00001496 Ry

     iteration # 15     ecut=   400.00 Ry     beta= 0.70
     Davidson diagonalization with overlap
     ethr =  1.87E-07,  avg # of iterations =  1.0

     negative rho (up, down):  4.730E-05 0.000E+00

     total cpu time spent up to now is      102.4 secs

     total energy              =     -43.78786758 Ry
     Harris-Foulkes estimate   =     -43.78787084 Ry
     estimated scf accuracy    <       0.00001099 Ry

     iteration # 16     ecut=   400.00 Ry     beta= 0.70
     Davidson diagonalization with overlap
     ethr =  1.37E-07,  avg # of iterations =  3.0

     negative rho (up, down):  4.666E-05 0.000E+00

     total cpu time spent up to now is      108.2 secs

     total energy              =     -43.78787025 Ry
     Harris-Foulkes estimate   =     -43.78787018 Ry
     estimated scf accuracy    <       0.00000021 Ry

     iteration # 17     ecut=   400.00 Ry     beta= 0.70
     Davidson diagonalization with overlap
     ethr =  2.66E-09,  avg # of iterations =  4.0

     negative rho (up, down):  4.748E-05 0.000E+00

     total cpu time spent up to now is      114.7 secs

     total energy              =     -43.78787076 Ry
     Harris-Foulkes estimate   =     -43.78787088 Ry
     estimated scf accuracy    <       0.00000186 Ry

     iteration # 18     ecut=   400.00 Ry     beta= 0.70
     Davidson diagonalization with overlap
     ethr =  2.66E-09,  avg # of iterations =  1.0

     negative rho (up, down):  4.726E-05 0.000E+00

     total cpu time spent up to now is      120.2 secs

     total energy              =     -43.78787067 Ry
     Harris-Foulkes estimate   =     -43.78787078 Ry
     estimated scf accuracy    <       0.00000139 Ry

     iteration # 19     ecut=   400.00 Ry     beta= 0.70
     Davidson diagonalization with overlap
     ethr =  2.66E-09,  avg # of iterations =  1.0

     negative rho (up, down):  4.730E-05 0.000E+00

     total cpu time spent up to now is      125.8 secs

     total energy              =     -43.78787063 Ry
     Harris-Foulkes estimate   =     -43.78787068 Ry
     estimated scf accuracy    <       0.00000105 Ry

     iteration # 20     ecut=   400.00 Ry     beta= 0.70
     Davidson diagonalization with overlap
     ethr =  2.66E-09,  avg # of iterations =  1.0

     negative rho (up, down):  4.747E-05 0.000E+00

     total cpu time spent up to now is      131.2 secs

     total energy              =     -43.78787066 Ry
     Harris-Foulkes estimate   =     -43.78787064 Ry
     estimated scf accuracy    <       0.00000086 Ry

     iteration # 21     ecut=   400.00 Ry     beta= 0.70
     Davidson diagonalization with overlap
     ethr =  2.66E-09,  avg # of iterations =  1.0

     negative rho (up, down):  4.738E-05 0.000E+00

     total cpu time spent up to now is      136.8 secs

     total energy              =     -43.78787066 Ry
     Harris-Foulkes estimate   =     -43.78787066 Ry
     estimated scf accuracy    <       0.00000096 Ry

     iteration # 22     ecut=   400.00 Ry     beta= 0.70
     Davidson diagonalization with overlap
     ethr =  2.66E-09,  avg # of iterations =  1.0

     negative rho (up, down):  4.679E-05 0.000E+00

     total cpu time spent up to now is      142.3 secs

     total energy              =     -43.78787046 Ry
     Harris-Foulkes estimate   =     -43.78787066 Ry
     estimated scf accuracy    <       0.00000097 Ry

     iteration # 23     ecut=   400.00 Ry     beta= 0.70
     Davidson diagonalization with overlap
     ethr =  2.66E-09,  avg # of iterations =  3.0

     negative rho (up, down):  4.732E-05 0.000E+00

     total cpu time spent up to now is      147.9 secs

     total energy              =     -43.78787042 Ry
     Harris-Foulkes estimate   =     -43.78787051 Ry
     estimated scf accuracy    <       0.00000023 Ry

     iteration # 24     ecut=   400.00 Ry     beta= 0.70
     Davidson diagonalization with overlap
     ethr =  2.66E-09,  avg # of iterations =  1.0

     negative rho (up, down):  4.734E-05 0.000E+00

     total cpu time spent up to now is      153.4 secs

     total energy              =     -43.78787042 Ry
     Harris-Foulkes estimate   =     -43.78787044 Ry
     estimated scf accuracy    <       0.00000004 Ry

     iteration # 25     ecut=   400.00 Ry     beta= 0.70
     Davidson diagonalization with overlap
     ethr =  5.54E-10,  avg # of iterations =  3.0

     negative rho (up, down):  4.729E-05 0.000E+00

     total cpu time spent up to now is      158.2 secs

     End of self-consistent calculation

          k = 0.0000 0.0000 0.0000 (****** PWs)   bands (ev):

   -22.6670  -9.8391  -9.3747  -6.6843  -3.1879  -1.5212   0.0412   0.9171

     the Fermi energy is    -4.6388 ev

!    total energy              =     -43.78787045 Ry
     Harris-Foulkes estimate   =     -43.78787045 Ry
     estimated scf accuracy    <          6.5E-09 Ry

     total all-electron energy =      -152.634752 Ry

     The total energy is the sum of the following terms:

     one-electron contribution =     -56.90254900 Ry
     hartree contribution      =      30.23338300 Ry
     xc contribution           =      -8.33424791 Ry
     ewald contribution        =       0.81244550 Ry
     one-center paw contrib.   =      -9.59690204 Ry
     smearing contrib. (-TS)   =      -0.00000000 Ry

     convergence has been achieved in  25 iterations

     Writing output data file pwscf.save
 
     init_run     :     10.64s CPU     11.54s WALL (       1 calls)
     electrons    :    127.76s CPU    146.46s WALL (       1 calls)

     Called by init_run:
     wfcinit      :      0.73s CPU      1.05s WALL (       1 calls)
     potinit      :      1.65s CPU      1.77s WALL (       1 calls)

     Called by electrons:
     c_bands      :     47.61s CPU     48.87s WALL (      25 calls)
     sum_band     :     33.24s CPU     36.09s WALL (      25 calls)
     v_of_rho     :     22.19s CPU     23.06s WALL (      26 calls)
     newd         :     11.44s CPU     14.17s WALL (      26 calls)
     PAW_pot      :      0.34s CPU      0.38s WALL (      26 calls)
     mix_rho      :     13.66s CPU     24.24s WALL (      25 calls)

     Called by c_bands:
     init_us_2    :      0.74s CPU      0.77s WALL (      51 calls)
     cegterg      :     46.77s CPU     47.96s WALL (      25 calls)

     Called by sum_band:
     sum_band:bec :      0.00s CPU      0.00s WALL (      25 calls)
     addusdens    :     18.43s CPU     20.94s WALL (      25 calls)

     Called by *egterg:
     h_psi        :     44.37s CPU     45.60s WALL (      88 calls)
     s_psi        :      0.30s CPU      0.31s WALL (      88 calls)
     g_psi        :      0.10s CPU      0.11s WALL (      62 calls)
     cdiaghg      :      0.06s CPU      0.06s WALL (      87 calls)

     Called by h_psi:
     h_psi:pot    :     44.07s CPU     45.29s WALL (      88 calls)
     h_psi:calbec :      0.39s CPU      0.40s WALL (      88 calls)
     vloc_psi     :     43.38s CPU     44.59s WALL (      88 calls)
     add_vuspsi   :      0.30s CPU      0.30s WALL (      88 calls)

     General routines
     calbec       :      0.46s CPU      0.48s WALL (     113 calls)
     fft          :     26.87s CPU     28.30s WALL (     337 calls)
     fftw         :     46.42s CPU     47.73s WALL (    1168 calls)
     davcio       :      1.11s CPU     10.98s WALL (     407 calls)
 
     Parallel routines
     fft_scatt_xy :     11.63s CPU     11.71s WALL (    1505 calls)
     fft_scatt_yz :     20.78s CPU     23.14s WALL (    1505 calls)
 
     PWSCF        :  2m19.40s CPU     2m40.07s WALL

 
   This run was terminated on:  15:44:41  18May2018            

=------------------------------------------------------------------------------=
   JOB DONE.
=------------------------------------------------------------------------------=
