
     Program PWSCF v.6.2 (svn rev. 14038) starts on 18May2018 at 15:44:42 

     This program is part of the open-source Quantum ESPRESSO suite
     for quantum simulation of materials; please cite
         "P. Giannozzi et al., J. Phys.:Condens. Matter 21 395502 (2009);
         "P. Giannozzi et al., J. Phys.:Condens. Matter 29 465901 (2017);
          URL http://www.quantum-espresso.org", 
     in publications or presentations arising from this work. More details at
     http://www.quantum-espresso.org/quote

     Parallel version (MPI), running on    28 processors

     MPI processes distributed on     1 nodes
     R & G space division:  proc/nbgrp/npool/nimage =      28
     Reading input from ../ecut2-400/16500.in
Warning: card &IONS ignored
Warning: card     POT_EXTRAPOLATION='SECOND-ORDER' ignored
Warning: card     WFC_EXTRAPOLATION='SECOND-ORDER' ignored
Warning: card     ION_TEMPERATURE = 'ANDERSEN' ignored
Warning: card / ignored

     Current dimensions of program PWSCF are:
     Max number of different atomic species (ntypx) = 10
     Max number of k-points (npk) =  40000
     Max angular momentum in pseudopotentials (lmaxx) =  3
               file H.pbe-kjpaw_psl.1.0.0.UPF: wavefunction(s)  1S renormalized
               file O.pbe-n-kjpaw_psl.1.0.0.UPF: wavefunction(s)  2S 2P renormalized

     Subspace diagonalization in iterative solution of the eigenvalue problem:
     a serial algorithm will be used

 
     Parallelization info
     --------------------
     sticks:   dense  smooth     PW     G-vecs:    dense   smooth      PW
     Min        1819    1819    455               308823   308823   38597
     Max        1820    1820    456               308826   308826   38599
     Sum       50949   50949  12745              8647083  8647083 1080751
 


     bravais-lattice index     =            1
     lattice parameter (alat)  =      20.0000  a.u.
     unit-cell volume          =    8000.0000 (a.u.)^3
     number of atoms/cell      =            3
     number of atomic types    =            2
     number of electrons       =         8.00
     number of Kohn-Sham states=            8
     kinetic-energy cutoff     =     400.0000  Ry
     charge density cutoff     =    1600.0000  Ry
     convergence threshold     =      1.0E-08
     mixing beta               =       0.7000
     number of iterations used =            8  plain     mixing
     Exchange-correlation      = SLA PW PBX PBC ( 1  4  3  4 0 0)

     celldm(1)=  20.000000  celldm(2)=   0.000000  celldm(3)=   0.000000
     celldm(4)=   0.000000  celldm(5)=   0.000000  celldm(6)=   0.000000

     crystal axes: (cart. coord. in units of alat)
               a(1) = (   1.000000   0.000000   0.000000 )  
               a(2) = (   0.000000   1.000000   0.000000 )  
               a(3) = (   0.000000   0.000000   1.000000 )  

     reciprocal axes: (cart. coord. in units 2 pi/alat)
               b(1) = (  1.000000  0.000000  0.000000 )  
               b(2) = (  0.000000  1.000000  0.000000 )  
               b(3) = (  0.000000  0.000000  1.000000 )  


     PseudoPot. # 1 for H  read from file:
     ../pslibrary/pbe/PSEUDOPOTENTIALS/H.pbe-kjpaw_psl.1.0.0.UPF
     MD5 check sum: e77ef4e89cfa2d6a63e4c80bb1a147aa
     Pseudo is Projector augmented-wave, Zval =  1.0
     Generated using "atomic" code by A. Dal Corso v.6.2 svn rev. 14038
     Shape of augmentation charge: PSQ
     Using radial grid of  929 points,  2 beta functions with: 
                l(1) =   0
                l(2) =   0
     Q(r) pseudized with 0 coefficients 


     PseudoPot. # 2 for O  read from file:
     ../pslibrary/pbe/PSEUDOPOTENTIALS/O.pbe-n-kjpaw_psl.1.0.0.UPF
     MD5 check sum: bb09017f9a02654af35f7312a94eda3e
     Pseudo is Projector augmented-wave + core cor, Zval =  6.0
     Generated using "atomic" code by A. Dal Corso v.6.2 svn rev. 14038
     Shape of augmentation charge: PSQ
     Using radial grid of 1095 points,  4 beta functions with: 
                l(1) =   0
                l(2) =   0
                l(3) =   1
                l(4) =   1
     Q(r) pseudized with 0 coefficients 


     atomic species   valence    mass     pseudopotential
        H              1.00     1.01000     H ( 1.00)
        O              6.00    16.00000     O ( 1.00)

     No symmetry found



   Cartesian axes

     site n.     atom                  positions (alat units)
         1           O   tau(   1) = (  -0.0057217  -0.0020898   0.0052862  )
         2           H   tau(   2) = (   0.0264999   0.0928899   0.0233784  )
         3           H   tau(   3) = (   0.0641408  -0.0597833  -0.0187566  )

     number of k points=     1  Marzari-Vanderbilt smearing, width (Ry)=  0.0250
                       cart. coord. in units 2pi/alat
        k(    1) = (   0.0000000   0.0000000   0.0000000), wk =   2.0000000

     Dense  grid:  8647083 G-vectors     FFT dimensions: ( 256, 256, 256)

     Estimated max dynamical RAM per process >     337.10 MB

     Estimated total dynamical RAM >       9.22 GB

     Initial potential from superposition of free atoms
     Check: negative starting charge=   -0.000144

     starting charge    7.99998, renormalised to    8.00000

     negative rho (up, down):  1.443E-04 0.000E+00
     Starting wfc are    6 randomized atomic wfcs +    2 random wfc
     Checking if some PAW data can be deallocated... 

     total cpu time spent up to now is       10.4 secs

     Self-consistent Calculation

     iteration #  1     ecut=   400.00 Ry     beta= 0.70
     Davidson diagonalization with overlap
     ethr =  1.00E-02,  avg # of iterations =  7.0

     negative rho (up, down):  7.403E-05 0.000E+00

     total cpu time spent up to now is       17.1 secs

     total energy              =     -43.82290431 Ry
     Harris-Foulkes estimate   =     -44.15364056 Ry
     estimated scf accuracy    <       0.44674263 Ry

     iteration #  2     ecut=   400.00 Ry     beta= 0.70
     Davidson diagonalization with overlap
     ethr =  5.58E-03,  avg # of iterations =  3.0

     negative rho (up, down):  4.758E-06 0.000E+00

     total cpu time spent up to now is       22.5 secs

     total energy              =     -43.88432524 Ry
     Harris-Foulkes estimate   =     -44.14607718 Ry
     estimated scf accuracy    <       0.55667302 Ry

     iteration #  3     ecut=   400.00 Ry     beta= 0.70
     Davidson diagonalization with overlap
     ethr =  5.58E-03,  avg # of iterations =  1.0

     negative rho (up, down):  7.191E-05 0.000E+00

     total cpu time spent up to now is       27.4 secs

     total energy              =     -43.92488048 Ry
     Harris-Foulkes estimate   =     -43.95507011 Ry
     estimated scf accuracy    <       0.05603717 Ry

     iteration #  4     ecut=   400.00 Ry     beta= 0.70
     Davidson diagonalization with overlap
     ethr =  7.00E-04,  avg # of iterations =  4.0

     negative rho (up, down):  2.721E-08 0.000E+00

     total cpu time spent up to now is       33.6 secs

     total energy              =     -44.01968644 Ry
     Harris-Foulkes estimate   =     -44.05368522 Ry
     estimated scf accuracy    <       0.12564030 Ry

     iteration #  5     ecut=   400.00 Ry     beta= 0.70
     Davidson diagonalization with overlap
     ethr =  7.00E-04,  avg # of iterations =  3.0

     total cpu time spent up to now is       39.0 secs

     total energy              =     -44.00825767 Ry
     Harris-Foulkes estimate   =     -44.02284538 Ry
     estimated scf accuracy    <       0.05334193 Ry

     iteration #  6     ecut=   400.00 Ry     beta= 0.70
     Davidson diagonalization with overlap
     ethr =  6.67E-04,  avg # of iterations =  2.0

     negative rho (up, down):  2.199E-08 0.000E+00

     total cpu time spent up to now is       44.3 secs

     total energy              =     -44.01749984 Ry
     Harris-Foulkes estimate   =     -44.01746208 Ry
     estimated scf accuracy    <       0.00329746 Ry

     iteration #  7     ecut=   400.00 Ry     beta= 0.70
     Davidson diagonalization with overlap
     ethr =  4.12E-05,  avg # of iterations =  8.0

     negative rho (up, down):  1.553E-08 0.000E+00

     total cpu time spent up to now is       51.4 secs

     total energy              =     -44.01874326 Ry
     Harris-Foulkes estimate   =     -44.01861390 Ry
     estimated scf accuracy    <       0.00218477 Ry

     iteration #  8     ecut=   400.00 Ry     beta= 0.70
     Davidson diagonalization with overlap
     ethr =  2.73E-05,  avg # of iterations =  4.0

     negative rho (up, down):  1.115E-06 0.000E+00

     total cpu time spent up to now is       57.0 secs

     total energy              =     -44.01791152 Ry
     Harris-Foulkes estimate   =     -44.01875003 Ry
     estimated scf accuracy    <       0.00250000 Ry

     iteration #  9     ecut=   400.00 Ry     beta= 0.70
     Davidson diagonalization with overlap
     ethr =  2.73E-05,  avg # of iterations =  1.0

     negative rho (up, down):  1.547E-05 0.000E+00

     total cpu time spent up to now is       62.3 secs

     total energy              =     -44.01779178 Ry
     Harris-Foulkes estimate   =     -44.01800824 Ry
     estimated scf accuracy    <       0.00065848 Ry

     iteration # 10     ecut=   400.00 Ry     beta= 0.70
     Davidson diagonalization with overlap
     ethr =  8.23E-06,  avg # of iterations =  3.0

     negative rho (up, down):  2.518E-05 0.000E+00

     total cpu time spent up to now is       68.2 secs

     total energy              =     -44.01807377 Ry
     Harris-Foulkes estimate   =     -44.01807049 Ry
     estimated scf accuracy    <       0.00003578 Ry

     iteration # 11     ecut=   400.00 Ry     beta= 0.70
     Davidson diagonalization with overlap
     ethr =  4.47E-07,  avg # of iterations = 16.0

     negative rho (up, down):  2.512E-05 0.000E+00

     total cpu time spent up to now is       75.6 secs

     total energy              =     -44.01807728 Ry
     Harris-Foulkes estimate   =     -44.01807933 Ry
     estimated scf accuracy    <       0.00004919 Ry

     iteration # 12     ecut=   400.00 Ry     beta= 0.70
     Davidson diagonalization with overlap
     ethr =  4.47E-07,  avg # of iterations =  1.0

     negative rho (up, down):  5.707E-05 0.000E+00

     total cpu time spent up to now is       81.0 secs

     total energy              =     -44.01805619 Ry
     Harris-Foulkes estimate   =     -44.01807734 Ry
     estimated scf accuracy    <       0.00004269 Ry

     iteration # 13     ecut=   400.00 Ry     beta= 0.70
     Davidson diagonalization with overlap
     ethr =  4.47E-07,  avg # of iterations =  3.0

     negative rho (up, down):  5.717E-05 0.000E+00

     total cpu time spent up to now is       87.0 secs

     total energy              =     -44.01808482 Ry
     Harris-Foulkes estimate   =     -44.01808802 Ry
     estimated scf accuracy    <       0.00007350 Ry

     iteration # 14     ecut=   400.00 Ry     beta= 0.70
     Davidson diagonalization with overlap
     ethr =  4.47E-07,  avg # of iterations =  1.0

     negative rho (up, down):  5.844E-05 0.000E+00

     total cpu time spent up to now is       92.4 secs

     total energy              =     -44.01806322 Ry
     Harris-Foulkes estimate   =     -44.01808487 Ry
     estimated scf accuracy    <       0.00006611 Ry

     iteration # 15     ecut=   400.00 Ry     beta= 0.70
     Davidson diagonalization with overlap
     ethr =  4.47E-07,  avg # of iterations =  1.0

     negative rho (up, down):  5.765E-05 0.000E+00

     total cpu time spent up to now is       97.7 secs

     total energy              =     -44.01806497 Ry
     Harris-Foulkes estimate   =     -44.01806612 Ry
     estimated scf accuracy    <       0.00001830 Ry

     iteration # 16     ecut=   400.00 Ry     beta= 0.70
     Davidson diagonalization with overlap
     ethr =  2.29E-07,  avg # of iterations =  1.0

     negative rho (up, down):  5.474E-05 0.000E+00

     total cpu time spent up to now is      103.3 secs

     total energy              =     -44.01806245 Ry
     Harris-Foulkes estimate   =     -44.01806586 Ry
     estimated scf accuracy    <       0.00001495 Ry

     iteration # 17     ecut=   400.00 Ry     beta= 0.70
     Davidson diagonalization with overlap
     ethr =  1.87E-07,  avg # of iterations =  1.0

     negative rho (up, down):  5.484E-05 0.000E+00

     total cpu time spent up to now is      108.6 secs

     total energy              =     -44.01806153 Ry
     Harris-Foulkes estimate   =     -44.01806362 Ry
     estimated scf accuracy    <       0.00000582 Ry

     iteration # 18     ecut=   400.00 Ry     beta= 0.70
     Davidson diagonalization with overlap
     ethr =  7.27E-08,  avg # of iterations =  4.0

     negative rho (up, down):  5.725E-05 0.000E+00

     total cpu time spent up to now is      114.8 secs

     total energy              =     -44.01806832 Ry
     Harris-Foulkes estimate   =     -44.01806995 Ry
     estimated scf accuracy    <       0.00000615 Ry

     iteration # 19     ecut=   400.00 Ry     beta= 0.70
     Davidson diagonalization with overlap
     ethr =  7.27E-08,  avg # of iterations =  1.0

     negative rho (up, down):  5.661E-05 0.000E+00

     total cpu time spent up to now is      120.1 secs

     total energy              =     -44.01806805 Ry
     Harris-Foulkes estimate   =     -44.01806848 Ry
     estimated scf accuracy    <       0.00000266 Ry

     iteration # 20     ecut=   400.00 Ry     beta= 0.70
     Davidson diagonalization with overlap
     ethr =  3.32E-08,  avg # of iterations =  2.0

     negative rho (up, down):  5.526E-05 0.000E+00

     total cpu time spent up to now is      125.8 secs

     total energy              =     -44.01806864 Ry
     Harris-Foulkes estimate   =     -44.01806846 Ry
     estimated scf accuracy    <       0.00000043 Ry

     iteration # 21     ecut=   400.00 Ry     beta= 0.70
     Davidson diagonalization with overlap
     ethr =  5.42E-09,  avg # of iterations =  1.0

     negative rho (up, down):  5.494E-05 0.000E+00

     total cpu time spent up to now is      131.1 secs

     total energy              =     -44.01806855 Ry
     Harris-Foulkes estimate   =     -44.01806869 Ry
     estimated scf accuracy    <       0.00000097 Ry

     iteration # 22     ecut=   400.00 Ry     beta= 0.70
     Davidson diagonalization with overlap
     ethr =  5.42E-09,  avg # of iterations =  1.0

     negative rho (up, down):  5.491E-05 0.000E+00

     total cpu time spent up to now is      136.5 secs

     total energy              =     -44.01806843 Ry
     Harris-Foulkes estimate   =     -44.01806856 Ry
     estimated scf accuracy    <       0.00000068 Ry

     iteration # 23     ecut=   400.00 Ry     beta= 0.70
     Davidson diagonalization with overlap
     ethr =  5.42E-09,  avg # of iterations =  1.0

     negative rho (up, down):  5.491E-05 0.000E+00

     total cpu time spent up to now is      141.8 secs

     total energy              =     -44.01806844 Ry
     Harris-Foulkes estimate   =     -44.01806845 Ry
     estimated scf accuracy    <       0.00000038 Ry

     iteration # 24     ecut=   400.00 Ry     beta= 0.70
     Davidson diagonalization with overlap
     ethr =  4.79E-09,  avg # of iterations =  1.0

     negative rho (up, down):  5.496E-05 0.000E+00

     total cpu time spent up to now is      147.2 secs

     total energy              =     -44.01806843 Ry
     Harris-Foulkes estimate   =     -44.01806844 Ry
     estimated scf accuracy    <       0.00000037 Ry

     iteration # 25     ecut=   400.00 Ry     beta= 0.70
     Davidson diagonalization with overlap
     ethr =  4.64E-09,  avg # of iterations =  1.0

     negative rho (up, down):  5.500E-05 0.000E+00

     total cpu time spent up to now is      152.5 secs

     total energy              =     -44.01806840 Ry
     Harris-Foulkes estimate   =     -44.01806843 Ry
     estimated scf accuracy    <       0.00000032 Ry

     iteration # 26     ecut=   400.00 Ry     beta= 0.70
     Davidson diagonalization with overlap
     ethr =  4.00E-09,  avg # of iterations =  1.0

     negative rho (up, down):  5.527E-05 0.000E+00

     total cpu time spent up to now is      157.9 secs

     total energy              =     -44.01806830 Ry
     Harris-Foulkes estimate   =     -44.01806841 Ry
     estimated scf accuracy    <       0.00000024 Ry

     iteration # 27     ecut=   400.00 Ry     beta= 0.70
     Davidson diagonalization with overlap
     ethr =  2.96E-09,  avg # of iterations =  1.0

     negative rho (up, down):  5.530E-05 0.000E+00

     total cpu time spent up to now is      163.3 secs

     total energy              =     -44.01806831 Ry
     Harris-Foulkes estimate   =     -44.01806832 Ry
     estimated scf accuracy    <       0.00000003 Ry

     iteration # 28     ecut=   400.00 Ry     beta= 0.70
     Davidson diagonalization with overlap
     ethr =  4.01E-10,  avg # of iterations =  4.0

     negative rho (up, down):  5.521E-05 0.000E+00

     total cpu time spent up to now is      169.5 secs

     total energy              =     -44.01806836 Ry
     Harris-Foulkes estimate   =     -44.01806838 Ry
     estimated scf accuracy    <       0.00000006 Ry

     iteration # 29     ecut=   400.00 Ry     beta= 0.70
     Davidson diagonalization with overlap
     ethr =  4.01E-10,  avg # of iterations =  1.0

     negative rho (up, down):  5.518E-05 0.000E+00

     total cpu time spent up to now is      174.8 secs

     total energy              =     -44.01806836 Ry
     Harris-Foulkes estimate   =     -44.01806836 Ry
     estimated scf accuracy    <       0.00000002 Ry

     iteration # 30     ecut=   400.00 Ry     beta= 0.70
     Davidson diagonalization with overlap
     ethr =  2.68E-10,  avg # of iterations =  3.0

     negative rho (up, down):  5.522E-05 0.000E+00

     total cpu time spent up to now is      179.8 secs

     End of self-consistent calculation

          k = 0.0000 0.0000 0.0000 (****** PWs)   bands (ev):

   -24.4291 -12.7420  -8.7074  -6.9491  -1.1763   0.2759   0.5291   0.9956

     the Fermi energy is    -5.0204 ev

!    total energy              =     -44.01806836 Ry
     Harris-Foulkes estimate   =     -44.01806837 Ry
     estimated scf accuracy    <          3.1E-09 Ry

     total all-electron energy =      -152.864950 Ry

     The total energy is the sum of the following terms:

     one-electron contribution =     -62.54207479 Ry
     hartree contribution      =      32.99877149 Ry
     xc contribution           =      -8.74106909 Ry
     ewald contribution        =       3.85257249 Ry
     one-center paw contrib.   =      -9.58626846 Ry
     smearing contrib. (-TS)   =       0.00000000 Ry

     convergence has been achieved in  30 iterations

     Writing output data file pwscf.save
 
     init_run     :      9.15s CPU      9.65s WALL (       1 calls)
     electrons    :    150.66s CPU    170.06s WALL (       1 calls)

     Called by init_run:
     wfcinit      :      0.76s CPU      0.88s WALL (       1 calls)
     potinit      :      1.22s CPU      1.33s WALL (       1 calls)

     Called by electrons:
     c_bands      :     57.43s CPU     59.01s WALL (      30 calls)
     sum_band     :     39.23s CPU     42.68s WALL (      30 calls)
     v_of_rho     :     24.99s CPU     26.08s WALL (      31 calls)
     newd         :     13.07s CPU     16.32s WALL (      31 calls)
     PAW_pot      :      0.37s CPU      0.40s WALL (      31 calls)
     mix_rho      :     15.81s CPU     25.46s WALL (      30 calls)

     Called by c_bands:
     init_us_2    :      0.94s CPU      0.98s WALL (      61 calls)
     cegterg      :     56.51s CPU     58.00s WALL (      30 calls)

     Called by sum_band:
     sum_band:bec :      0.00s CPU      0.00s WALL (      30 calls)
     addusdens    :     21.86s CPU     24.85s WALL (      30 calls)

     Called by *egterg:
     h_psi        :     53.76s CPU     55.21s WALL (     113 calls)
     s_psi        :      0.40s CPU      0.40s WALL (     113 calls)
     g_psi        :      0.14s CPU      0.14s WALL (      82 calls)
     cdiaghg      :      0.03s CPU      0.03s WALL (     112 calls)

     Called by h_psi:
     h_psi:pot    :     53.37s CPU     54.82s WALL (     113 calls)
     h_psi:calbec :      0.32s CPU      0.32s WALL (     113 calls)
     vloc_psi     :     52.67s CPU     54.11s WALL (     113 calls)
     add_vuspsi   :      0.38s CPU      0.39s WALL (     113 calls)

     General routines
     calbec       :      0.39s CPU      0.40s WALL (     143 calls)
     fft          :     29.75s CPU     31.47s WALL (     402 calls)
     fftw         :     56.10s CPU     57.69s WALL (    1448 calls)
     davcio       :      1.45s CPU     10.31s WALL (     507 calls)
 
     Parallel routines
     fft_scatt_xy :     14.11s CPU     14.14s WALL (    1850 calls)
     fft_scatt_yz :     25.00s CPU     28.06s WALL (    1850 calls)
 
     PWSCF        :  2m41.08s CPU     3m 2.26s WALL

 
   This run was terminated on:  15:47:45  18May2018            

=------------------------------------------------------------------------------=
   JOB DONE.
=------------------------------------------------------------------------------=
