
     Program PWSCF v.6.2 (svn rev. 14038) starts on 18May2018 at 15:58:32 

     This program is part of the open-source Quantum ESPRESSO suite
     for quantum simulation of materials; please cite
         "P. Giannozzi et al., J. Phys.:Condens. Matter 21 395502 (2009);
         "P. Giannozzi et al., J. Phys.:Condens. Matter 29 465901 (2017);
          URL http://www.quantum-espresso.org", 
     in publications or presentations arising from this work. More details at
     http://www.quantum-espresso.org/quote

     Parallel version (MPI), running on    28 processors

     MPI processes distributed on     1 nodes
     R & G space division:  proc/nbgrp/npool/nimage =      28
     Reading input from ../ecut2-400/19500.in
Warning: card &IONS ignored
Warning: card     POT_EXTRAPOLATION='SECOND-ORDER' ignored
Warning: card     WFC_EXTRAPOLATION='SECOND-ORDER' ignored
Warning: card     ION_TEMPERATURE = 'ANDERSEN' ignored
Warning: card / ignored

     Current dimensions of program PWSCF are:
     Max number of different atomic species (ntypx) = 10
     Max number of k-points (npk) =  40000
     Max angular momentum in pseudopotentials (lmaxx) =  3
               file H.pbe-kjpaw_psl.1.0.0.UPF: wavefunction(s)  1S renormalized
               file O.pbe-n-kjpaw_psl.1.0.0.UPF: wavefunction(s)  2S 2P renormalized

     Subspace diagonalization in iterative solution of the eigenvalue problem:
     a serial algorithm will be used

 
     Parallelization info
     --------------------
     sticks:   dense  smooth     PW     G-vecs:    dense   smooth      PW
     Min        1819    1819    455               308823   308823   38597
     Max        1820    1820    456               308826   308826   38599
     Sum       50949   50949  12745              8647083  8647083 1080751
 


     bravais-lattice index     =            1
     lattice parameter (alat)  =      20.0000  a.u.
     unit-cell volume          =    8000.0000 (a.u.)^3
     number of atoms/cell      =            3
     number of atomic types    =            2
     number of electrons       =         8.00
     number of Kohn-Sham states=            8
     kinetic-energy cutoff     =     400.0000  Ry
     charge density cutoff     =    1600.0000  Ry
     convergence threshold     =      1.0E-08
     mixing beta               =       0.7000
     number of iterations used =            8  plain     mixing
     Exchange-correlation      = SLA PW PBX PBC ( 1  4  3  4 0 0)

     celldm(1)=  20.000000  celldm(2)=   0.000000  celldm(3)=   0.000000
     celldm(4)=   0.000000  celldm(5)=   0.000000  celldm(6)=   0.000000

     crystal axes: (cart. coord. in units of alat)
               a(1) = (   1.000000   0.000000   0.000000 )  
               a(2) = (   0.000000   1.000000   0.000000 )  
               a(3) = (   0.000000   0.000000   1.000000 )  

     reciprocal axes: (cart. coord. in units 2 pi/alat)
               b(1) = (  1.000000  0.000000  0.000000 )  
               b(2) = (  0.000000  1.000000  0.000000 )  
               b(3) = (  0.000000  0.000000  1.000000 )  


     PseudoPot. # 1 for H  read from file:
     ../pslibrary/pbe/PSEUDOPOTENTIALS/H.pbe-kjpaw_psl.1.0.0.UPF
     MD5 check sum: e77ef4e89cfa2d6a63e4c80bb1a147aa
     Pseudo is Projector augmented-wave, Zval =  1.0
     Generated using "atomic" code by A. Dal Corso v.6.2 svn rev. 14038
     Shape of augmentation charge: PSQ
     Using radial grid of  929 points,  2 beta functions with: 
                l(1) =   0
                l(2) =   0
     Q(r) pseudized with 0 coefficients 


     PseudoPot. # 2 for O  read from file:
     ../pslibrary/pbe/PSEUDOPOTENTIALS/O.pbe-n-kjpaw_psl.1.0.0.UPF
     MD5 check sum: bb09017f9a02654af35f7312a94eda3e
     Pseudo is Projector augmented-wave + core cor, Zval =  6.0
     Generated using "atomic" code by A. Dal Corso v.6.2 svn rev. 14038
     Shape of augmentation charge: PSQ
     Using radial grid of 1095 points,  4 beta functions with: 
                l(1) =   0
                l(2) =   0
                l(3) =   1
                l(4) =   1
     Q(r) pseudized with 0 coefficients 


     atomic species   valence    mass     pseudopotential
        H              1.00     1.01000     H ( 1.00)
        O              6.00    16.00000     O ( 1.00)

     No symmetry found



   Cartesian axes

     site n.     atom                  positions (alat units)
         1           O   tau(   1) = (  -0.0058989  -0.0028549   0.0077749  )
         2           H   tau(   2) = (   0.0243323   0.1056599   0.0159005  )
         3           H   tau(   3) = (   0.0691159  -0.0604339  -0.0507032  )

     number of k points=     1  Marzari-Vanderbilt smearing, width (Ry)=  0.0250
                       cart. coord. in units 2pi/alat
        k(    1) = (   0.0000000   0.0000000   0.0000000), wk =   2.0000000

     Dense  grid:  8647083 G-vectors     FFT dimensions: ( 256, 256, 256)

     Estimated max dynamical RAM per process >     337.10 MB

     Estimated total dynamical RAM >       9.22 GB

     Initial potential from superposition of free atoms
     Check: negative starting charge=   -0.000141

     starting charge    7.99998, renormalised to    8.00000

     negative rho (up, down):  1.411E-04 0.000E+00
     Starting wfc are    6 randomized atomic wfcs +    2 random wfc
     Checking if some PAW data can be deallocated... 

     total cpu time spent up to now is       10.4 secs

     Self-consistent Calculation

     iteration #  1     ecut=   400.00 Ry     beta= 0.70
     Davidson diagonalization with overlap
     ethr =  1.00E-02,  avg # of iterations =  7.0

     negative rho (up, down):  6.761E-05 0.000E+00

     total cpu time spent up to now is       17.3 secs

     total energy              =     -43.73736077 Ry
     Harris-Foulkes estimate   =     -44.04363289 Ry
     estimated scf accuracy    <       0.41320470 Ry

     iteration #  2     ecut=   400.00 Ry     beta= 0.70
     Davidson diagonalization with overlap
     ethr =  5.17E-03,  avg # of iterations =  3.0

     negative rho (up, down):  7.693E-06 0.000E+00

     total cpu time spent up to now is       22.8 secs

     total energy              =     -43.73652013 Ry
     Harris-Foulkes estimate   =     -44.12123267 Ry
     estimated scf accuracy    <       0.94340612 Ry

     iteration #  3     ecut=   400.00 Ry     beta= 0.70
     Davidson diagonalization with overlap
     ethr =  5.17E-03,  avg # of iterations =  1.0

     negative rho (up, down):  1.096E-08 0.000E+00

     total cpu time spent up to now is       27.8 secs

     total energy              =     -43.83604811 Ry
     Harris-Foulkes estimate   =     -43.85786336 Ry
     estimated scf accuracy    <       0.06103444 Ry

     iteration #  4     ecut=   400.00 Ry     beta= 0.70
     Davidson diagonalization with overlap
     ethr =  7.63E-04,  avg # of iterations =  3.0

     negative rho (up, down):  2.030E-08 0.000E+00

     total cpu time spent up to now is       33.6 secs

     total energy              =     -43.93178845 Ry
     Harris-Foulkes estimate   =     -43.95204565 Ry
     estimated scf accuracy    <       0.08609582 Ry

     iteration #  5     ecut=   400.00 Ry     beta= 0.70
     Davidson diagonalization with overlap
     ethr =  7.63E-04,  avg # of iterations =  1.0

     negative rho (up, down):  4.966E-08 0.000E+00

     total cpu time spent up to now is       38.7 secs

     total energy              =     -43.92650714 Ry
     Harris-Foulkes estimate   =     -43.93410399 Ry
     estimated scf accuracy    <       0.03443892 Ry

     iteration #  6     ecut=   400.00 Ry     beta= 0.70
     Davidson diagonalization with overlap
     ethr =  4.30E-04,  avg # of iterations =  2.0

     negative rho (up, down):  7.852E-08 0.000E+00

     total cpu time spent up to now is       44.1 secs

     total energy              =     -43.93091196 Ry
     Harris-Foulkes estimate   =     -43.93107557 Ry
     estimated scf accuracy    <       0.00314531 Ry

     iteration #  7     ecut=   400.00 Ry     beta= 0.70
     Davidson diagonalization with overlap
     ethr =  3.93E-05,  avg # of iterations = 12.0

     negative rho (up, down):  8.798E-07 0.000E+00

     total cpu time spent up to now is       51.4 secs

     total energy              =     -43.93062667 Ry
     Harris-Foulkes estimate   =     -43.93111519 Ry
     estimated scf accuracy    <       0.00230169 Ry

     iteration #  8     ecut=   400.00 Ry     beta= 0.70
     Davidson diagonalization with overlap
     ethr =  2.88E-05,  avg # of iterations =  1.0

     negative rho (up, down):  1.897E-05 0.000E+00

     total cpu time spent up to now is       56.8 secs

     total energy              =     -43.93046162 Ry
     Harris-Foulkes estimate   =     -43.93070534 Ry
     estimated scf accuracy    <       0.00086006 Ry

     iteration #  9     ecut=   400.00 Ry     beta= 0.70
     Davidson diagonalization with overlap
     ethr =  1.08E-05,  avg # of iterations =  4.0

     negative rho (up, down):  2.934E-05 0.000E+00

     total cpu time spent up to now is       62.8 secs

     total energy              =     -43.93064398 Ry
     Harris-Foulkes estimate   =     -43.93064493 Ry
     estimated scf accuracy    <       0.00001121 Ry

     iteration # 10     ecut=   400.00 Ry     beta= 0.70
     Davidson diagonalization with overlap
     ethr =  1.40E-07,  avg # of iterations = 14.0

     negative rho (up, down):  3.989E-05 0.000E+00

     total cpu time spent up to now is       70.2 secs

     total energy              =     -43.93064835 Ry
     Harris-Foulkes estimate   =     -43.93064839 Ry
     estimated scf accuracy    <       0.00000358 Ry

     iteration # 11     ecut=   400.00 Ry     beta= 0.70
     Davidson diagonalization with overlap
     ethr =  4.47E-08,  avg # of iterations =  4.0

     negative rho (up, down):  4.488E-05 0.000E+00

     total cpu time spent up to now is       76.0 secs

     total energy              =     -43.93064866 Ry
     Harris-Foulkes estimate   =     -43.93064838 Ry
     estimated scf accuracy    <       0.00000233 Ry

     iteration # 12     ecut=   400.00 Ry     beta= 0.70
     Davidson diagonalization with overlap
     ethr =  2.92E-08,  avg # of iterations =  1.0

     negative rho (up, down):  5.109E-05 0.000E+00

     total cpu time spent up to now is       81.4 secs

     total energy              =     -43.93064849 Ry
     Harris-Foulkes estimate   =     -43.93064881 Ry
     estimated scf accuracy    <       0.00000251 Ry

     iteration # 13     ecut=   400.00 Ry     beta= 0.70
     Davidson diagonalization with overlap
     ethr =  2.92E-08,  avg # of iterations =  1.0

     negative rho (up, down):  5.128E-05 0.000E+00

     total cpu time spent up to now is       86.9 secs

     total energy              =     -43.93064848 Ry
     Harris-Foulkes estimate   =     -43.93064855 Ry
     estimated scf accuracy    <       0.00000160 Ry

     iteration # 14     ecut=   400.00 Ry     beta= 0.70
     Davidson diagonalization with overlap
     ethr =  2.00E-08,  avg # of iterations =  1.0

     negative rho (up, down):  5.137E-05 0.000E+00

     total cpu time spent up to now is       92.3 secs

     total energy              =     -43.93064852 Ry
     Harris-Foulkes estimate   =     -43.93064849 Ry
     estimated scf accuracy    <       0.00000141 Ry

     iteration # 15     ecut=   400.00 Ry     beta= 0.70
     Davidson diagonalization with overlap
     ethr =  1.76E-08,  avg # of iterations =  1.0

     negative rho (up, down):  5.220E-05 0.000E+00

     total cpu time spent up to now is       97.7 secs

     total energy              =     -43.93064837 Ry
     Harris-Foulkes estimate   =     -43.93064853 Ry
     estimated scf accuracy    <       0.00000152 Ry

     iteration # 16     ecut=   400.00 Ry     beta= 0.70
     Davidson diagonalization with overlap
     ethr =  1.76E-08,  avg # of iterations =  1.0

     negative rho (up, down):  5.127E-05 0.000E+00

     total cpu time spent up to now is      103.1 secs

     total energy              =     -43.93064819 Ry
     Harris-Foulkes estimate   =     -43.93064843 Ry
     estimated scf accuracy    <       0.00000104 Ry

     iteration # 17     ecut=   400.00 Ry     beta= 0.70
     Davidson diagonalization with overlap
     ethr =  1.30E-08,  avg # of iterations =  1.0

     negative rho (up, down):  5.063E-05 0.000E+00

     total cpu time spent up to now is      108.6 secs

     total energy              =     -43.93064825 Ry
     Harris-Foulkes estimate   =     -43.93064823 Ry
     estimated scf accuracy    <       0.00000042 Ry

     iteration # 18     ecut=   400.00 Ry     beta= 0.70
     Davidson diagonalization with overlap
     ethr =  5.19E-09,  avg # of iterations =  1.0

     negative rho (up, down):  5.015E-05 0.000E+00

     total cpu time spent up to now is      114.0 secs

     total energy              =     -43.93064815 Ry
     Harris-Foulkes estimate   =     -43.93064827 Ry
     estimated scf accuracy    <       0.00000047 Ry

     iteration # 19     ecut=   400.00 Ry     beta= 0.70
     Davidson diagonalization with overlap
     ethr =  5.19E-09,  avg # of iterations =  1.0

     negative rho (up, down):  5.026E-05 0.000E+00

     total cpu time spent up to now is      119.5 secs

     total energy              =     -43.93064815 Ry
     Harris-Foulkes estimate   =     -43.93064818 Ry
     estimated scf accuracy    <       0.00000013 Ry

     iteration # 20     ecut=   400.00 Ry     beta= 0.70
     Davidson diagonalization with overlap
     ethr =  1.64E-09,  avg # of iterations =  3.0

     negative rho (up, down):  5.093E-05 0.000E+00

     total cpu time spent up to now is      125.4 secs

     total energy              =     -43.93064819 Ry
     Harris-Foulkes estimate   =     -43.93064821 Ry
     estimated scf accuracy    <       0.00000004 Ry

     iteration # 21     ecut=   400.00 Ry     beta= 0.70
     Davidson diagonalization with overlap
     ethr =  5.06E-10,  avg # of iterations =  3.0

     negative rho (up, down):  5.029E-05 0.000E+00

     total cpu time spent up to now is      131.2 secs

     total energy              =     -43.93064817 Ry
     Harris-Foulkes estimate   =     -43.93064822 Ry
     estimated scf accuracy    <       0.00000014 Ry

     iteration # 22     ecut=   400.00 Ry     beta= 0.70
     Davidson diagonalization with overlap
     ethr =  5.06E-10,  avg # of iterations =  3.0

     negative rho (up, down):  5.034E-05 0.000E+00

     total cpu time spent up to now is      137.0 secs

     total energy              =     -43.93064818 Ry
     Harris-Foulkes estimate   =     -43.93064818 Ry
     estimated scf accuracy    <       0.00000002 Ry

     iteration # 23     ecut=   400.00 Ry     beta= 0.70
     Davidson diagonalization with overlap
     ethr =  1.91E-10,  avg # of iterations =  3.0

     negative rho (up, down):  5.045E-05 0.000E+00

     total cpu time spent up to now is      141.7 secs

     End of self-consistent calculation

          k = 0.0000 0.0000 0.0000 (****** PWs)   bands (ev):

   -23.2749 -11.5077  -8.6242  -6.7170  -1.9100  -0.1896   0.1458   0.9619

     the Fermi energy is    -4.7572 ev

!    total energy              =     -43.93064818 Ry
     Harris-Foulkes estimate   =     -43.93064818 Ry
     estimated scf accuracy    <          1.4E-09 Ry

     total all-electron energy =      -152.777530 Ry

     The total energy is the sum of the following terms:

     one-electron contribution =     -59.63042799 Ry
     hartree contribution      =      31.60238784 Ry
     xc contribution           =      -8.52268991 Ry
     ewald contribution        =       2.21047010 Ry
     one-center paw contrib.   =      -9.59038823 Ry
     smearing contrib. (-TS)   =       0.00000000 Ry

     convergence has been achieved in  23 iterations

     Writing output data file pwscf.save
 
     init_run     :      9.20s CPU      9.70s WALL (       1 calls)
     electrons    :    117.23s CPU    131.90s WALL (       1 calls)

     Called by init_run:
     wfcinit      :      0.80s CPU      0.90s WALL (       1 calls)
     potinit      :      1.21s CPU      1.31s WALL (       1 calls)

     Called by electrons:
     c_bands      :     45.13s CPU     46.17s WALL (      23 calls)
     sum_band     :     30.28s CPU     32.91s WALL (      23 calls)
     v_of_rho     :     19.77s CPU     20.51s WALL (      24 calls)
     newd         :     10.19s CPU     12.65s WALL (      24 calls)
     PAW_pot      :      0.21s CPU      0.23s WALL (      24 calls)
     mix_rho      :     11.93s CPU     19.34s WALL (      23 calls)

     Called by c_bands:
     init_us_2    :      0.71s CPU      0.74s WALL (      47 calls)
     cegterg      :     44.41s CPU     45.39s WALL (      23 calls)

     Called by sum_band:
     sum_band:bec :      0.00s CPU      0.00s WALL (      23 calls)
     addusdens    :     16.76s CPU     19.08s WALL (      23 calls)

     Called by *egterg:
     h_psi        :     42.32s CPU     43.27s WALL (      96 calls)
     s_psi        :      0.33s CPU      0.33s WALL (      96 calls)
     g_psi        :      0.10s CPU      0.11s WALL (      72 calls)
     cdiaghg      :      0.02s CPU      0.02s WALL (      95 calls)

     Called by h_psi:
     h_psi:pot    :     42.02s CPU     42.98s WALL (      96 calls)
     h_psi:calbec :      0.35s CPU      0.35s WALL (      96 calls)
     vloc_psi     :     41.37s CPU     42.32s WALL (      96 calls)
     add_vuspsi   :      0.30s CPU      0.30s WALL (      96 calls)

     General routines
     calbec       :      0.41s CPU      0.41s WALL (     119 calls)
     fft          :     23.70s CPU     24.94s WALL (     311 calls)
     fftw         :     44.07s CPU     45.11s WALL (    1118 calls)
     davcio       :      1.09s CPU      7.98s WALL (     367 calls)
 
     Parallel routines
     fft_scatt_xy :     10.96s CPU     10.98s WALL (    1429 calls)
     fft_scatt_yz :     18.65s CPU     20.75s WALL (    1429 calls)
 
     PWSCF        :  2m 7.42s CPU     2m24.23s WALL

 
   This run was terminated on:  16: 0:56  18May2018            

=------------------------------------------------------------------------------=
   JOB DONE.
=------------------------------------------------------------------------------=
