
     Program PWSCF v.6.2 (svn rev. 14038) starts on 18May2018 at 14:37:51 

     This program is part of the open-source Quantum ESPRESSO suite
     for quantum simulation of materials; please cite
         "P. Giannozzi et al., J. Phys.:Condens. Matter 21 395502 (2009);
         "P. Giannozzi et al., J. Phys.:Condens. Matter 29 465901 (2017);
          URL http://www.quantum-espresso.org", 
     in publications or presentations arising from this work. More details at
     http://www.quantum-espresso.org/quote

     Parallel version (MPI), running on    28 processors

     MPI processes distributed on     1 nodes
     R & G space division:  proc/nbgrp/npool/nimage =      28
     Reading input from ../ecut2-400/3000.in
Warning: card &IONS ignored
Warning: card     POT_EXTRAPOLATION='SECOND-ORDER' ignored
Warning: card     WFC_EXTRAPOLATION='SECOND-ORDER' ignored
Warning: card     ION_TEMPERATURE = 'ANDERSEN' ignored
Warning: card / ignored

     Current dimensions of program PWSCF are:
     Max number of different atomic species (ntypx) = 10
     Max number of k-points (npk) =  40000
     Max angular momentum in pseudopotentials (lmaxx) =  3
               file H.pbe-kjpaw_psl.1.0.0.UPF: wavefunction(s)  1S renormalized
               file O.pbe-n-kjpaw_psl.1.0.0.UPF: wavefunction(s)  2S 2P renormalized

     Subspace diagonalization in iterative solution of the eigenvalue problem:
     a serial algorithm will be used

 
     Parallelization info
     --------------------
     sticks:   dense  smooth     PW     G-vecs:    dense   smooth      PW
     Min        1819    1819    455               308823   308823   38597
     Max        1820    1820    456               308826   308826   38599
     Sum       50949   50949  12745              8647083  8647083 1080751
 


     bravais-lattice index     =            1
     lattice parameter (alat)  =      20.0000  a.u.
     unit-cell volume          =    8000.0000 (a.u.)^3
     number of atoms/cell      =            3
     number of atomic types    =            2
     number of electrons       =         8.00
     number of Kohn-Sham states=            8
     kinetic-energy cutoff     =     400.0000  Ry
     charge density cutoff     =    1600.0000  Ry
     convergence threshold     =      1.0E-08
     mixing beta               =       0.7000
     number of iterations used =            8  plain     mixing
     Exchange-correlation      = SLA PW PBX PBC ( 1  4  3  4 0 0)

     celldm(1)=  20.000000  celldm(2)=   0.000000  celldm(3)=   0.000000
     celldm(4)=   0.000000  celldm(5)=   0.000000  celldm(6)=   0.000000

     crystal axes: (cart. coord. in units of alat)
               a(1) = (   1.000000   0.000000   0.000000 )  
               a(2) = (   0.000000   1.000000   0.000000 )  
               a(3) = (   0.000000   0.000000   1.000000 )  

     reciprocal axes: (cart. coord. in units 2 pi/alat)
               b(1) = (  1.000000  0.000000  0.000000 )  
               b(2) = (  0.000000  1.000000  0.000000 )  
               b(3) = (  0.000000  0.000000  1.000000 )  


     PseudoPot. # 1 for H  read from file:
     ../pslibrary/pbe/PSEUDOPOTENTIALS/H.pbe-kjpaw_psl.1.0.0.UPF
     MD5 check sum: e77ef4e89cfa2d6a63e4c80bb1a147aa
     Pseudo is Projector augmented-wave, Zval =  1.0
     Generated using "atomic" code by A. Dal Corso v.6.2 svn rev. 14038
     Shape of augmentation charge: PSQ
     Using radial grid of  929 points,  2 beta functions with: 
                l(1) =   0
                l(2) =   0
     Q(r) pseudized with 0 coefficients 


     PseudoPot. # 2 for O  read from file:
     ../pslibrary/pbe/PSEUDOPOTENTIALS/O.pbe-n-kjpaw_psl.1.0.0.UPF
     MD5 check sum: bb09017f9a02654af35f7312a94eda3e
     Pseudo is Projector augmented-wave + core cor, Zval =  6.0
     Generated using "atomic" code by A. Dal Corso v.6.2 svn rev. 14038
     Shape of augmentation charge: PSQ
     Using radial grid of 1095 points,  4 beta functions with: 
                l(1) =   0
                l(2) =   0
                l(3) =   1
                l(4) =   1
     Q(r) pseudized with 0 coefficients 


     atomic species   valence    mass     pseudopotential
        H              1.00     1.01000     H ( 1.00)
        O              6.00    16.00000     O ( 1.00)

     No symmetry found



   Cartesian axes

     site n.     atom                  positions (alat units)
         1           O   tau(   1) = (  -0.0081600   0.0022321   0.0136104  )
         2           H   tau(   2) = (   0.0014477  -0.0163690  -0.0907275  )
         3           H   tau(   3) = (   0.1278207  -0.0189915  -0.0365183  )

     number of k points=     1  Marzari-Vanderbilt smearing, width (Ry)=  0.0250
                       cart. coord. in units 2pi/alat
        k(    1) = (   0.0000000   0.0000000   0.0000000), wk =   2.0000000

     Dense  grid:  8647083 G-vectors     FFT dimensions: ( 256, 256, 256)

     Estimated max dynamical RAM per process >     337.10 MB

     Estimated total dynamical RAM >       9.22 GB

     Initial potential from superposition of free atoms
     Check: negative starting charge=   -0.000144

     starting charge    7.99998, renormalised to    8.00000

     negative rho (up, down):  1.443E-04 0.000E+00
     Starting wfc are    6 randomized atomic wfcs +    2 random wfc
     Checking if some PAW data can be deallocated... 

     total cpu time spent up to now is       10.5 secs

     Self-consistent Calculation

     iteration #  1     ecut=   400.00 Ry     beta= 0.70
     Davidson diagonalization with overlap
     ethr =  1.00E-02,  avg # of iterations =  8.0

     negative rho (up, down):  6.643E-05 0.000E+00

     total cpu time spent up to now is       17.1 secs

     total energy              =     -43.50681673 Ry
     Harris-Foulkes estimate   =     -43.89332410 Ry
     estimated scf accuracy    <       0.51208673 Ry

     iteration #  2     ecut=   400.00 Ry     beta= 0.70
     Davidson diagonalization with overlap
     ethr =  6.40E-03,  avg # of iterations =  3.0

     negative rho (up, down):  1.976E-05 0.000E+00

     total cpu time spent up to now is       22.5 secs

     total energy              =     -43.41376168 Ry
     Harris-Foulkes estimate   =     -44.22382534 Ry
     estimated scf accuracy    <       2.46507837 Ry

     iteration #  3     ecut=   400.00 Ry     beta= 0.70
     Davidson diagonalization with overlap
     ethr =  6.40E-03,  avg # of iterations =  3.0

     negative rho (up, down):  2.322E-06 0.000E+00

     total cpu time spent up to now is       27.8 secs

     total energy              =     -43.69753320 Ry
     Harris-Foulkes estimate   =     -43.70810328 Ry
     estimated scf accuracy    <       0.04539267 Ry

     iteration #  4     ecut=   400.00 Ry     beta= 0.70
     Davidson diagonalization with overlap
     ethr =  5.67E-04,  avg # of iterations =  4.0

     negative rho (up, down):  3.550E-06 0.000E+00

     total cpu time spent up to now is       33.5 secs

     total energy              =     -43.78012593 Ry
     Harris-Foulkes estimate   =     -43.78610737 Ry
     estimated scf accuracy    <       0.02940705 Ry

     iteration #  5     ecut=   400.00 Ry     beta= 0.70
     Davidson diagonalization with overlap
     ethr =  3.68E-04,  avg # of iterations =  1.0

     negative rho (up, down):  5.450E-06 0.000E+00

     total cpu time spent up to now is       38.7 secs

     total energy              =     -43.77991442 Ry
     Harris-Foulkes estimate   =     -43.78121004 Ry
     estimated scf accuracy    <       0.00977337 Ry

     iteration #  6     ecut=   400.00 Ry     beta= 0.70
     Davidson diagonalization with overlap
     ethr =  1.22E-04,  avg # of iterations =  3.0

     negative rho (up, down):  8.931E-06 0.000E+00

     total cpu time spent up to now is       44.2 secs

     total energy              =     -43.77912158 Ry
     Harris-Foulkes estimate   =     -43.78013343 Ry
     estimated scf accuracy    <       0.00613307 Ry

     iteration #  7     ecut=   400.00 Ry     beta= 0.70
     Davidson diagonalization with overlap
     ethr =  7.67E-05,  avg # of iterations =  4.0

     negative rho (up, down):  9.773E-06 0.000E+00

     total cpu time spent up to now is       49.8 secs

     total energy              =     -43.77936263 Ry
     Harris-Foulkes estimate   =     -43.77941786 Ry
     estimated scf accuracy    <       0.00202415 Ry

     iteration #  8     ecut=   400.00 Ry     beta= 0.70
     Davidson diagonalization with overlap
     ethr =  2.53E-05,  avg # of iterations = 15.0

     negative rho (up, down):  1.185E-05 0.000E+00

     total cpu time spent up to now is       57.1 secs

     total energy              =     -43.77936001 Ry
     Harris-Foulkes estimate   =     -43.77942336 Ry
     estimated scf accuracy    <       0.00149924 Ry

     iteration #  9     ecut=   400.00 Ry     beta= 0.70
     Davidson diagonalization with overlap
     ethr =  1.87E-05,  avg # of iterations =  1.0

     negative rho (up, down):  2.918E-05 0.000E+00

     total cpu time spent up to now is       62.6 secs

     total energy              =     -43.77914294 Ry
     Harris-Foulkes estimate   =     -43.77937176 Ry
     estimated scf accuracy    <       0.00114731 Ry

     iteration # 10     ecut=   400.00 Ry     beta= 0.70
     Davidson diagonalization with overlap
     ethr =  1.43E-05,  avg # of iterations =  1.0

     negative rho (up, down):  3.077E-05 0.000E+00

     total cpu time spent up to now is       68.0 secs

     total energy              =     -43.77915361 Ry
     Harris-Foulkes estimate   =     -43.77919023 Ry
     estimated scf accuracy    <       0.00027149 Ry

     iteration # 11     ecut=   400.00 Ry     beta= 0.70
     Davidson diagonalization with overlap
     ethr =  3.39E-06,  avg # of iterations =  1.0

     negative rho (up, down):  3.043E-05 0.000E+00

     total cpu time spent up to now is       73.5 secs

     total energy              =     -43.77916262 Ry
     Harris-Foulkes estimate   =     -43.77916610 Ry
     estimated scf accuracy    <       0.00012296 Ry

     iteration # 12     ecut=   400.00 Ry     beta= 0.70
     Davidson diagonalization with overlap
     ethr =  1.54E-06,  avg # of iterations =  6.0

     negative rho (up, down):  4.752E-05 0.000E+00

     total cpu time spent up to now is       79.6 secs

     total energy              =     -43.77915602 Ry
     Harris-Foulkes estimate   =     -43.77917674 Ry
     estimated scf accuracy    <       0.00006794 Ry

     iteration # 13     ecut=   400.00 Ry     beta= 0.70
     Davidson diagonalization with overlap
     ethr =  8.49E-07,  avg # of iterations =  1.0

     negative rho (up, down):  4.837E-05 0.000E+00

     total cpu time spent up to now is       85.1 secs

     total energy              =     -43.77915931 Ry
     Harris-Foulkes estimate   =     -43.77916177 Ry
     estimated scf accuracy    <       0.00000478 Ry

     iteration # 14     ecut=   400.00 Ry     beta= 0.70
     Davidson diagonalization with overlap
     ethr =  5.98E-08,  avg # of iterations =  3.0

     negative rho (up, down):  4.789E-05 0.000E+00

     total cpu time spent up to now is       91.3 secs

     total energy              =     -43.77916568 Ry
     Harris-Foulkes estimate   =     -43.77916723 Ry
     estimated scf accuracy    <       0.00000977 Ry

     iteration # 15     ecut=   400.00 Ry     beta= 0.70
     Davidson diagonalization with overlap
     ethr =  5.98E-08,  avg # of iterations =  1.0

     negative rho (up, down):  4.822E-05 0.000E+00

     total cpu time spent up to now is       96.7 secs

     total energy              =     -43.77916453 Ry
     Harris-Foulkes estimate   =     -43.77916579 Ry
     estimated scf accuracy    <       0.00000521 Ry

     iteration # 16     ecut=   400.00 Ry     beta= 0.70
     Davidson diagonalization with overlap
     ethr =  5.98E-08,  avg # of iterations =  1.0

     negative rho (up, down):  4.888E-05 0.000E+00

     total cpu time spent up to now is      102.1 secs

     total energy              =     -43.77916444 Ry
     Harris-Foulkes estimate   =     -43.77916481 Ry
     estimated scf accuracy    <       0.00000113 Ry

     iteration # 17     ecut=   400.00 Ry     beta= 0.70
     Davidson diagonalization with overlap
     ethr =  1.41E-08,  avg # of iterations =  5.0

     negative rho (up, down):  4.873E-05 0.000E+00

     total cpu time spent up to now is      108.5 secs

     total energy              =     -43.77916502 Ry
     Harris-Foulkes estimate   =     -43.77916508 Ry
     estimated scf accuracy    <       0.00000018 Ry

     iteration # 18     ecut=   400.00 Ry     beta= 0.70
     Davidson diagonalization with overlap
     ethr =  2.19E-09,  avg # of iterations =  1.0

     negative rho (up, down):  4.873E-05 0.000E+00

     total cpu time spent up to now is      114.0 secs

     total energy              =     -43.77916504 Ry
     Harris-Foulkes estimate   =     -43.77916504 Ry
     estimated scf accuracy    <       0.00000001 Ry

     iteration # 19     ecut=   400.00 Ry     beta= 0.70
     Davidson diagonalization with overlap
     ethr =  1.67E-10,  avg # of iterations =  3.0

     negative rho (up, down):  4.861E-05 0.000E+00

     total cpu time spent up to now is      120.0 secs

     total energy              =     -43.77916506 Ry
     Harris-Foulkes estimate   =     -43.77916505 Ry
     estimated scf accuracy    <       0.00000002 Ry

     iteration # 20     ecut=   400.00 Ry     beta= 0.70
     Davidson diagonalization with overlap
     ethr =  1.67E-10,  avg # of iterations =  1.0

     negative rho (up, down):  4.880E-05 0.000E+00

     total cpu time spent up to now is      125.5 secs

     total energy              =     -43.77916504 Ry
     Harris-Foulkes estimate   =     -43.77916506 Ry
     estimated scf accuracy    <       0.00000004 Ry

     iteration # 21     ecut=   400.00 Ry     beta= 0.70
     Davidson diagonalization with overlap
     ethr =  1.67E-10,  avg # of iterations =  3.0

     negative rho (up, down):  4.900E-05 0.000E+00

     total cpu time spent up to now is      131.7 secs

     total energy              =     -43.77916506 Ry
     Harris-Foulkes estimate   =     -43.77916506 Ry
     estimated scf accuracy    <       0.00000003 Ry

     iteration # 22     ecut=   400.00 Ry     beta= 0.70
     Davidson diagonalization with overlap
     ethr =  1.67E-10,  avg # of iterations =  1.0

     negative rho (up, down):  4.902E-05 0.000E+00

     total cpu time spent up to now is      137.3 secs

     total energy              =     -43.77916505 Ry
     Harris-Foulkes estimate   =     -43.77916506 Ry
     estimated scf accuracy    <       0.00000004 Ry

     iteration # 23     ecut=   400.00 Ry     beta= 0.70
     Davidson diagonalization with overlap
     ethr =  1.67E-10,  avg # of iterations =  1.0

     negative rho (up, down):  4.900E-05 0.000E+00

     total cpu time spent up to now is      142.8 secs

     total energy              =     -43.77916505 Ry
     Harris-Foulkes estimate   =     -43.77916505 Ry
     estimated scf accuracy    <       0.00000002 Ry

     iteration # 24     ecut=   400.00 Ry     beta= 0.70
     Davidson diagonalization with overlap
     ethr =  1.67E-10,  avg # of iterations =  1.0

     negative rho (up, down):  4.897E-05 0.000E+00

     total cpu time spent up to now is      147.2 secs

     End of self-consistent calculation

          k = 0.0000 0.0000 0.0000 (****** PWs)   bands (ev):

   -23.3334 -10.8019  -8.9812  -6.8705  -4.0626  -0.5627   0.1109   0.8644

     the Fermi energy is    -6.5571 ev

!    total energy              =     -43.77916505 Ry
     Harris-Foulkes estimate   =     -43.77916505 Ry
     estimated scf accuracy    <          1.7E-09 Ry

     total all-electron energy =      -152.626046 Ry

     The total energy is the sum of the following terms:

     one-electron contribution =     -57.86375200 Ry
     hartree contribution      =      30.65688593 Ry
     xc contribution           =      -8.40694271 Ry
     ewald contribution        =       1.42797306 Ry
     one-center paw contrib.   =      -9.59740681 Ry
     smearing contrib. (-TS)   =       0.00407747 Ry

     convergence has been achieved in  24 iterations

     Writing output data file pwscf.save
 
     init_run     :      9.29s CPU      9.73s WALL (       1 calls)
     electrons    :    120.91s CPU    137.38s WALL (       1 calls)

     Called by init_run:
     wfcinit      :      0.90s CPU      0.96s WALL (       1 calls)
     potinit      :      1.22s CPU      1.31s WALL (       1 calls)

     Called by electrons:
     c_bands      :     45.39s CPU     46.56s WALL (      24 calls)
     sum_band     :     31.52s CPU     34.25s WALL (      24 calls)
     v_of_rho     :     20.30s CPU     21.15s WALL (      25 calls)
     newd         :     10.53s CPU     13.14s WALL (      25 calls)
     PAW_pot      :      0.31s CPU      0.34s WALL (      25 calls)
     mix_rho      :     13.25s CPU     21.91s WALL (      24 calls)

     Called by c_bands:
     init_us_2    :      0.73s CPU      0.76s WALL (      49 calls)
     cegterg      :     44.64s CPU     45.75s WALL (      24 calls)

     Called by sum_band:
     sum_band:bec :      0.00s CPU      0.00s WALL (      24 calls)
     addusdens    :     17.55s CPU     19.96s WALL (      24 calls)

     Called by *egterg:
     h_psi        :     42.65s CPU     43.73s WALL (      97 calls)
     s_psi        :      0.33s CPU      0.33s WALL (      97 calls)
     g_psi        :      0.10s CPU      0.10s WALL (      72 calls)
     cdiaghg      :      0.02s CPU      0.02s WALL (      96 calls)

     Called by h_psi:
     h_psi:pot    :     42.35s CPU     43.44s WALL (      97 calls)
     h_psi:calbec :      0.27s CPU      0.27s WALL (      97 calls)
     vloc_psi     :     41.77s CPU     42.85s WALL (      97 calls)
     add_vuspsi   :      0.31s CPU      0.31s WALL (      97 calls)

     General routines
     calbec       :      0.33s CPU      0.33s WALL (     121 calls)
     fft          :     24.23s CPU     25.65s WALL (     324 calls)
     fftw         :     44.59s CPU     45.76s WALL (    1136 calls)
     davcio       :      1.12s CPU      9.00s WALL (     387 calls)
 
     Parallel routines
     fft_scatt_xy :     11.18s CPU     11.21s WALL (    1460 calls)
     fft_scatt_yz :     20.54s CPU     22.93s WALL (    1460 calls)
 
     PWSCF        :  2m11.21s CPU     2m29.09s WALL

 
   This run was terminated on:  14:40:20  18May2018            

=------------------------------------------------------------------------------=
   JOB DONE.
=------------------------------------------------------------------------------=
