
     Program PWSCF v.6.2 (svn rev. 14038) starts on 18May2018 at 14:25:51 

     This program is part of the open-source Quantum ESPRESSO suite
     for quantum simulation of materials; please cite
         "P. Giannozzi et al., J. Phys.:Condens. Matter 21 395502 (2009);
         "P. Giannozzi et al., J. Phys.:Condens. Matter 29 465901 (2017);
          URL http://www.quantum-espresso.org", 
     in publications or presentations arising from this work. More details at
     http://www.quantum-espresso.org/quote

     Parallel version (MPI), running on    28 processors

     MPI processes distributed on     1 nodes
     R & G space division:  proc/nbgrp/npool/nimage =      28
     Reading input from ../ecut2-400/500.in
Warning: card &IONS ignored
Warning: card     POT_EXTRAPOLATION='SECOND-ORDER' ignored
Warning: card     WFC_EXTRAPOLATION='SECOND-ORDER' ignored
Warning: card     ION_TEMPERATURE = 'ANDERSEN' ignored
Warning: card / ignored

     Current dimensions of program PWSCF are:
     Max number of different atomic species (ntypx) = 10
     Max number of k-points (npk) =  40000
     Max angular momentum in pseudopotentials (lmaxx) =  3
               file H.pbe-kjpaw_psl.1.0.0.UPF: wavefunction(s)  1S renormalized
               file O.pbe-n-kjpaw_psl.1.0.0.UPF: wavefunction(s)  2S 2P renormalized

     Subspace diagonalization in iterative solution of the eigenvalue problem:
     a serial algorithm will be used

 
     Parallelization info
     --------------------
     sticks:   dense  smooth     PW     G-vecs:    dense   smooth      PW
     Min        1819    1819    455               308823   308823   38597
     Max        1820    1820    456               308826   308826   38599
     Sum       50949   50949  12745              8647083  8647083 1080751
 


     bravais-lattice index     =            1
     lattice parameter (alat)  =      20.0000  a.u.
     unit-cell volume          =    8000.0000 (a.u.)^3
     number of atoms/cell      =            3
     number of atomic types    =            2
     number of electrons       =         8.00
     number of Kohn-Sham states=            8
     kinetic-energy cutoff     =     400.0000  Ry
     charge density cutoff     =    1600.0000  Ry
     convergence threshold     =      1.0E-08
     mixing beta               =       0.7000
     number of iterations used =            8  plain     mixing
     Exchange-correlation      = SLA PW PBX PBC ( 1  4  3  4 0 0)

     celldm(1)=  20.000000  celldm(2)=   0.000000  celldm(3)=   0.000000
     celldm(4)=   0.000000  celldm(5)=   0.000000  celldm(6)=   0.000000

     crystal axes: (cart. coord. in units of alat)
               a(1) = (   1.000000   0.000000   0.000000 )  
               a(2) = (   0.000000   1.000000   0.000000 )  
               a(3) = (   0.000000   0.000000   1.000000 )  

     reciprocal axes: (cart. coord. in units 2 pi/alat)
               b(1) = (  1.000000  0.000000  0.000000 )  
               b(2) = (  0.000000  1.000000  0.000000 )  
               b(3) = (  0.000000  0.000000  1.000000 )  


     PseudoPot. # 1 for H  read from file:
     ../pslibrary/pbe/PSEUDOPOTENTIALS/H.pbe-kjpaw_psl.1.0.0.UPF
     MD5 check sum: e77ef4e89cfa2d6a63e4c80bb1a147aa
     Pseudo is Projector augmented-wave, Zval =  1.0
     Generated using "atomic" code by A. Dal Corso v.6.2 svn rev. 14038
     Shape of augmentation charge: PSQ
     Using radial grid of  929 points,  2 beta functions with: 
                l(1) =   0
                l(2) =   0
     Q(r) pseudized with 0 coefficients 


     PseudoPot. # 2 for O  read from file:
     ../pslibrary/pbe/PSEUDOPOTENTIALS/O.pbe-n-kjpaw_psl.1.0.0.UPF
     MD5 check sum: bb09017f9a02654af35f7312a94eda3e
     Pseudo is Projector augmented-wave + core cor, Zval =  6.0
     Generated using "atomic" code by A. Dal Corso v.6.2 svn rev. 14038
     Shape of augmentation charge: PSQ
     Using radial grid of 1095 points,  4 beta functions with: 
                l(1) =   0
                l(2) =   0
                l(3) =   1
                l(4) =   1
     Q(r) pseudized with 0 coefficients 


     atomic species   valence    mass     pseudopotential
        H              1.00     1.01000     H ( 1.00)
        O              6.00    16.00000     O ( 1.00)

     No symmetry found



   Cartesian axes

     site n.     atom                  positions (alat units)
         1           O   tau(   1) = (   0.0000003  -0.0056091  -0.0005185  )
         2           H   tau(   2) = (  -0.0736509   0.0684522   0.0117589  )
         3           H   tau(   3) = (   0.0736459   0.0204041   0.0848195  )

     number of k points=     1  Marzari-Vanderbilt smearing, width (Ry)=  0.0250
                       cart. coord. in units 2pi/alat
        k(    1) = (   0.0000000   0.0000000   0.0000000), wk =   2.0000000

     Dense  grid:  8647083 G-vectors     FFT dimensions: ( 256, 256, 256)

     Estimated max dynamical RAM per process >     337.10 MB

     Estimated total dynamical RAM >       9.22 GB

     Initial potential from superposition of free atoms
     Check: negative starting charge=   -0.000142

     starting charge    7.99998, renormalised to    8.00000

     negative rho (up, down):  1.419E-04 0.000E+00
     Starting wfc are    6 randomized atomic wfcs +    2 random wfc
     Checking if some PAW data can be deallocated... 

     total cpu time spent up to now is       10.5 secs

     Self-consistent Calculation

     iteration #  1     ecut=   400.00 Ry     beta= 0.70
     Davidson diagonalization with overlap
     ethr =  1.00E-02,  avg # of iterations =  7.0

     negative rho (up, down):  6.366E-05 0.000E+00

     total cpu time spent up to now is       17.1 secs

     total energy              =     -43.75538758 Ry
     Harris-Foulkes estimate   =     -44.05921235 Ry
     estimated scf accuracy    <       0.41015152 Ry

     iteration #  2     ecut=   400.00 Ry     beta= 0.70
     Davidson diagonalization with overlap
     ethr =  5.13E-03,  avg # of iterations =  3.0

     negative rho (up, down):  9.046E-06 0.000E+00

     total cpu time spent up to now is       22.6 secs

     total energy              =     -43.76130807 Ry
     Harris-Foulkes estimate   =     -44.13604554 Ry
     estimated scf accuracy    <       0.91377909 Ry

     iteration #  3     ecut=   400.00 Ry     beta= 0.70
     Davidson diagonalization with overlap
     ethr =  5.13E-03,  avg # of iterations =  1.0

     negative rho (up, down):  4.549E-08 0.000E+00

     total cpu time spent up to now is       27.6 secs

     total energy              =     -43.85377127 Ry
     Harris-Foulkes estimate   =     -43.87601833 Ry
     estimated scf accuracy    <       0.06545218 Ry

     iteration #  4     ecut=   400.00 Ry     beta= 0.70
     Davidson diagonalization with overlap
     ethr =  8.18E-04,  avg # of iterations =  3.0

     negative rho (up, down):  7.591E-08 0.000E+00

     total cpu time spent up to now is       33.3 secs

     total energy              =     -43.95052117 Ry
     Harris-Foulkes estimate   =     -43.96721004 Ry
     estimated scf accuracy    <       0.07482586 Ry

     iteration #  5     ecut=   400.00 Ry     beta= 0.70
     Davidson diagonalization with overlap
     ethr =  8.18E-04,  avg # of iterations =  1.0

     negative rho (up, down):  2.375E-07 0.000E+00

     total cpu time spent up to now is       38.4 secs

     total energy              =     -43.94509465 Ry
     Harris-Foulkes estimate   =     -43.95218091 Ry
     estimated scf accuracy    <       0.03341128 Ry

     iteration #  6     ecut=   400.00 Ry     beta= 0.70
     Davidson diagonalization with overlap
     ethr =  4.18E-04,  avg # of iterations =  2.0

     negative rho (up, down):  2.759E-07 0.000E+00

     total cpu time spent up to now is       43.8 secs

     total energy              =     -43.94870675 Ry
     Harris-Foulkes estimate   =     -43.94878933 Ry
     estimated scf accuracy    <       0.00435413 Ry

     iteration #  7     ecut=   400.00 Ry     beta= 0.70
     Davidson diagonalization with overlap
     ethr =  5.44E-05,  avg # of iterations =  9.0

     negative rho (up, down):  2.443E-07 0.000E+00

     total cpu time spent up to now is       50.8 secs

     total energy              =     -43.94890561 Ry
     Harris-Foulkes estimate   =     -43.94884898 Ry
     estimated scf accuracy    <       0.00379848 Ry

     iteration #  8     ecut=   400.00 Ry     beta= 0.70
     Davidson diagonalization with overlap
     ethr =  4.75E-05,  avg # of iterations =  1.0

     negative rho (up, down):  7.862E-07 0.000E+00

     total cpu time spent up to now is       56.1 secs

     total energy              =     -43.94841512 Ry
     Harris-Foulkes estimate   =     -43.94892563 Ry
     estimated scf accuracy    <       0.00382967 Ry

     iteration #  9     ecut=   400.00 Ry     beta= 0.70
     Davidson diagonalization with overlap
     ethr =  4.75E-05,  avg # of iterations =  1.0

     negative rho (up, down):  3.084E-05 0.000E+00

     total cpu time spent up to now is       62.3 secs

     total energy              =     -43.94760371 Ry
     Harris-Foulkes estimate   =     -43.94845917 Ry
     estimated scf accuracy    <       0.00232963 Ry

     iteration # 10     ecut=   400.00 Ry     beta= 0.70
     Davidson diagonalization with overlap
     ethr =  2.91E-05,  avg # of iterations =  1.0

     negative rho (up, down):  5.357E-05 0.000E+00

     total cpu time spent up to now is       67.8 secs

     total energy              =     -43.94774458 Ry
     Harris-Foulkes estimate   =     -43.94779843 Ry
     estimated scf accuracy    <       0.00032021 Ry

     iteration # 11     ecut=   400.00 Ry     beta= 0.70
     Davidson diagonalization with overlap
     ethr =  4.00E-06,  avg # of iterations = 10.0

     negative rho (up, down):  4.830E-05 0.000E+00

     total cpu time spent up to now is       75.3 secs

     total energy              =     -43.94805715 Ry
     Harris-Foulkes estimate   =     -43.94807464 Ry
     estimated scf accuracy    <       0.00015811 Ry

     iteration # 12     ecut=   400.00 Ry     beta= 0.70
     Davidson diagonalization with overlap
     ethr =  1.98E-06,  avg # of iterations =  1.0

     negative rho (up, down):  5.289E-05 0.000E+00

     total cpu time spent up to now is       81.0 secs

     total energy              =     -43.94805681 Ry
     Harris-Foulkes estimate   =     -43.94805914 Ry
     estimated scf accuracy    <       0.00009691 Ry

     iteration # 13     ecut=   400.00 Ry     beta= 0.70
     Davidson diagonalization with overlap
     ethr =  1.21E-06,  avg # of iterations = 19.0

     negative rho (up, down):  5.205E-05 0.000E+00

     total cpu time spent up to now is       89.2 secs

     total energy              =     -43.94805809 Ry
     Harris-Foulkes estimate   =     -43.94805866 Ry
     estimated scf accuracy    <       0.00006749 Ry

     iteration # 14     ecut=   400.00 Ry     beta= 0.70
     Davidson diagonalization with overlap
     ethr =  8.44E-07,  avg # of iterations =  6.0

     negative rho (up, down):  5.581E-05 0.000E+00

     total cpu time spent up to now is       96.7 secs

     total energy              =     -43.94805524 Ry
     Harris-Foulkes estimate   =     -43.94805879 Ry
     estimated scf accuracy    <       0.00003777 Ry

     iteration # 15     ecut=   400.00 Ry     beta= 0.70
     Davidson diagonalization with overlap
     ethr =  4.72E-07,  avg # of iterations =  5.0

     negative rho (up, down):  5.821E-05 0.000E+00

     total cpu time spent up to now is      103.9 secs

     total energy              =     -43.94807532 Ry
     Harris-Foulkes estimate   =     -43.94806951 Ry
     estimated scf accuracy    <       0.00003034 Ry

     iteration # 16     ecut=   400.00 Ry     beta= 0.70
     Davidson diagonalization with overlap
     ethr =  3.79E-07,  avg # of iterations =  3.0

     negative rho (up, down):  5.114E-05 0.000E+00

     total cpu time spent up to now is      110.6 secs

     total energy              =     -43.94804922 Ry
     Harris-Foulkes estimate   =     -43.94808156 Ry
     estimated scf accuracy    <       0.00006844 Ry

     iteration # 17     ecut=   400.00 Ry     beta= 0.70
     Davidson diagonalization with overlap
     ethr =  3.79E-07,  avg # of iterations =  3.0

     negative rho (up, down):  5.042E-05 0.000E+00

     total cpu time spent up to now is      117.7 secs

     total energy              =     -43.94806162 Ry
     Harris-Foulkes estimate   =     -43.94806193 Ry
     estimated scf accuracy    <       0.00000125 Ry

     iteration # 18     ecut=   400.00 Ry     beta= 0.70
     Davidson diagonalization with overlap
     ethr =  1.56E-08,  avg # of iterations =  3.0

     negative rho (up, down):  5.095E-05 0.000E+00

     total cpu time spent up to now is      123.6 secs

     total energy              =     -43.94806444 Ry
     Harris-Foulkes estimate   =     -43.94806441 Ry
     estimated scf accuracy    <       0.00000199 Ry

     iteration # 19     ecut=   400.00 Ry     beta= 0.70
     Davidson diagonalization with overlap
     ethr =  1.56E-08,  avg # of iterations =  1.0

     negative rho (up, down):  5.140E-05 0.000E+00

     total cpu time spent up to now is      129.0 secs

     total energy              =     -43.94806347 Ry
     Harris-Foulkes estimate   =     -43.94806446 Ry
     estimated scf accuracy    <       0.00000229 Ry

     iteration # 20     ecut=   400.00 Ry     beta= 0.70
     Davidson diagonalization with overlap
     ethr =  1.56E-08,  avg # of iterations =  3.0

     negative rho (up, down):  5.176E-05 0.000E+00

     total cpu time spent up to now is      134.6 secs

     total energy              =     -43.94806383 Ry
     Harris-Foulkes estimate   =     -43.94806384 Ry
     estimated scf accuracy    <       0.00000003 Ry

     iteration # 21     ecut=   400.00 Ry     beta= 0.70
     Davidson diagonalization with overlap
     ethr =  3.49E-10,  avg # of iterations =  4.0

     negative rho (up, down):  5.185E-05 0.000E+00

     total cpu time spent up to now is      140.8 secs

     total energy              =     -43.94806394 Ry
     Harris-Foulkes estimate   =     -43.94806395 Ry
     estimated scf accuracy    <       0.00000003 Ry

     iteration # 22     ecut=   400.00 Ry     beta= 0.70
     Davidson diagonalization with overlap
     ethr =  3.49E-10,  avg # of iterations =  1.0

     negative rho (up, down):  5.194E-05 0.000E+00

     total cpu time spent up to now is      146.2 secs

     total energy              =     -43.94806394 Ry
     Harris-Foulkes estimate   =     -43.94806394 Ry
     estimated scf accuracy    <       0.00000001 Ry

     iteration # 23     ecut=   400.00 Ry     beta= 0.70
     Davidson diagonalization with overlap
     ethr =  1.70E-10,  avg # of iterations =  4.0

     negative rho (up, down):  5.201E-05 0.000E+00

     total cpu time spent up to now is      151.5 secs

     End of self-consistent calculation

          k = 0.0000 0.0000 0.0000 (****** PWs)   bands (ev):

   -23.5269 -11.3174  -9.0741  -6.7997  -1.8304  -0.1310   0.2237   0.9672

     the Fermi energy is    -4.8162 ev

!    total energy              =     -43.94806394 Ry
     Harris-Foulkes estimate   =     -43.94806394 Ry
     estimated scf accuracy    <          5.5E-10 Ry

     total all-electron energy =      -152.794945 Ry

     The total energy is the sum of the following terms:

     one-electron contribution =     -60.00341354 Ry
     hartree contribution      =      31.76279285 Ry
     xc contribution           =      -8.54911723 Ry
     ewald contribution        =       2.43276677 Ry
     one-center paw contrib.   =      -9.59109280 Ry
     smearing contrib. (-TS)   =       0.00000000 Ry

     convergence has been achieved in  23 iterations

     Writing output data file pwscf.save
 
     init_run     :      9.25s CPU      9.77s WALL (       1 calls)
     electrons    :    124.11s CPU    141.69s WALL (       1 calls)

     Called by init_run:
     wfcinit      :      0.88s CPU      1.01s WALL (       1 calls)
     potinit      :      1.22s CPU      1.32s WALL (       1 calls)

     Called by electrons:
     c_bands      :     49.24s CPU     51.22s WALL (      23 calls)
     sum_band     :     30.57s CPU     33.81s WALL (      23 calls)
     v_of_rho     :     20.61s CPU     21.60s WALL (      24 calls)
     newd         :     10.48s CPU     13.00s WALL (      24 calls)
     PAW_pot      :      0.36s CPU      0.41s WALL (      24 calls)
     mix_rho      :     13.18s CPU     20.30s WALL (      23 calls)

     Called by c_bands:
     init_us_2    :      0.74s CPU      0.79s WALL (      47 calls)
     cegterg      :     48.50s CPU     49.79s WALL (      23 calls)

     Called by sum_band:
     sum_band:bec :      0.00s CPU      0.00s WALL (      23 calls)
     addusdens    :     16.91s CPU     19.53s WALL (      23 calls)

     Called by *egterg:
     h_psi        :     45.67s CPU     46.90s WALL (     116 calls)
     s_psi        :      0.38s CPU      0.38s WALL (     116 calls)
     g_psi        :      0.12s CPU      0.12s WALL (      92 calls)
     cdiaghg      :      0.09s CPU      0.10s WALL (     115 calls)

     Called by h_psi:
     h_psi:pot    :     45.36s CPU     46.60s WALL (     116 calls)
     h_psi:calbec :      0.45s CPU      0.47s WALL (     116 calls)
     vloc_psi     :     44.56s CPU     45.77s WALL (     116 calls)
     add_vuspsi   :      0.35s CPU      0.36s WALL (     116 calls)

     General routines
     calbec       :      0.55s CPU      0.57s WALL (     139 calls)
     fft          :     24.43s CPU     26.03s WALL (     311 calls)
     fftw         :     47.31s CPU     48.72s WALL (    1166 calls)
     davcio       :      1.04s CPU      7.48s WALL (     367 calls)
 
     Parallel routines
     fft_scatt_xy :     11.06s CPU     11.16s WALL (    1477 calls)
     fft_scatt_yz :     22.33s CPU     24.89s WALL (    1477 calls)
 
     PWSCF        :  2m14.30s CPU     2m33.51s WALL

 
   This run was terminated on:  14:28:24  18May2018            

=------------------------------------------------------------------------------=
   JOB DONE.
=------------------------------------------------------------------------------=
