
     Program PWSCF v.6.2 (svn rev. 14038) starts on 18May2018 at 15: 1: 8 

     This program is part of the open-source Quantum ESPRESSO suite
     for quantum simulation of materials; please cite
         "P. Giannozzi et al., J. Phys.:Condens. Matter 21 395502 (2009);
         "P. Giannozzi et al., J. Phys.:Condens. Matter 29 465901 (2017);
          URL http://www.quantum-espresso.org", 
     in publications or presentations arising from this work. More details at
     http://www.quantum-espresso.org/quote

     Parallel version (MPI), running on    28 processors

     MPI processes distributed on     1 nodes
     R & G space division:  proc/nbgrp/npool/nimage =      28
     Reading input from ../ecut2-400/7500.in
Warning: card &IONS ignored
Warning: card     POT_EXTRAPOLATION='SECOND-ORDER' ignored
Warning: card     WFC_EXTRAPOLATION='SECOND-ORDER' ignored
Warning: card     ION_TEMPERATURE = 'ANDERSEN' ignored
Warning: card / ignored

     Current dimensions of program PWSCF are:
     Max number of different atomic species (ntypx) = 10
     Max number of k-points (npk) =  40000
     Max angular momentum in pseudopotentials (lmaxx) =  3
               file H.pbe-kjpaw_psl.1.0.0.UPF: wavefunction(s)  1S renormalized
               file O.pbe-n-kjpaw_psl.1.0.0.UPF: wavefunction(s)  2S 2P renormalized

     Subspace diagonalization in iterative solution of the eigenvalue problem:
     a serial algorithm will be used

 
     Parallelization info
     --------------------
     sticks:   dense  smooth     PW     G-vecs:    dense   smooth      PW
     Min        1819    1819    455               308823   308823   38597
     Max        1820    1820    456               308826   308826   38599
     Sum       50949   50949  12745              8647083  8647083 1080751
 


     bravais-lattice index     =            1
     lattice parameter (alat)  =      20.0000  a.u.
     unit-cell volume          =    8000.0000 (a.u.)^3
     number of atoms/cell      =            3
     number of atomic types    =            2
     number of electrons       =         8.00
     number of Kohn-Sham states=            8
     kinetic-energy cutoff     =     400.0000  Ry
     charge density cutoff     =    1600.0000  Ry
     convergence threshold     =      1.0E-08
     mixing beta               =       0.7000
     number of iterations used =            8  plain     mixing
     Exchange-correlation      = SLA PW PBX PBC ( 1  4  3  4 0 0)

     celldm(1)=  20.000000  celldm(2)=   0.000000  celldm(3)=   0.000000
     celldm(4)=   0.000000  celldm(5)=   0.000000  celldm(6)=   0.000000

     crystal axes: (cart. coord. in units of alat)
               a(1) = (   1.000000   0.000000   0.000000 )  
               a(2) = (   0.000000   1.000000   0.000000 )  
               a(3) = (   0.000000   0.000000   1.000000 )  

     reciprocal axes: (cart. coord. in units 2 pi/alat)
               b(1) = (  1.000000  0.000000  0.000000 )  
               b(2) = (  0.000000  1.000000  0.000000 )  
               b(3) = (  0.000000  0.000000  1.000000 )  


     PseudoPot. # 1 for H  read from file:
     ../pslibrary/pbe/PSEUDOPOTENTIALS/H.pbe-kjpaw_psl.1.0.0.UPF
     MD5 check sum: e77ef4e89cfa2d6a63e4c80bb1a147aa
     Pseudo is Projector augmented-wave, Zval =  1.0
     Generated using "atomic" code by A. Dal Corso v.6.2 svn rev. 14038
     Shape of augmentation charge: PSQ
     Using radial grid of  929 points,  2 beta functions with: 
                l(1) =   0
                l(2) =   0
     Q(r) pseudized with 0 coefficients 


     PseudoPot. # 2 for O  read from file:
     ../pslibrary/pbe/PSEUDOPOTENTIALS/O.pbe-n-kjpaw_psl.1.0.0.UPF
     MD5 check sum: bb09017f9a02654af35f7312a94eda3e
     Pseudo is Projector augmented-wave + core cor, Zval =  6.0
     Generated using "atomic" code by A. Dal Corso v.6.2 svn rev. 14038
     Shape of augmentation charge: PSQ
     Using radial grid of 1095 points,  4 beta functions with: 
                l(1) =   0
                l(2) =   0
                l(3) =   1
                l(4) =   1
     Q(r) pseudized with 0 coefficients 


     atomic species   valence    mass     pseudopotential
        H              1.00     1.01000     H ( 1.00)
        O              6.00    16.00000     O ( 1.00)

     No symmetry found



   Cartesian axes

     site n.     atom                  positions (alat units)
         1           O   tau(   1) = (   0.0000107   0.0094900   0.0006995  )
         2           H   tau(   2) = (  -0.0515698  -0.1255856  -0.0026635  )
         3           H   tau(   3) = (   0.0514010  -0.0247516   0.0799472  )

     number of k points=     1  Marzari-Vanderbilt smearing, width (Ry)=  0.0250
                       cart. coord. in units 2pi/alat
        k(    1) = (   0.0000000   0.0000000   0.0000000), wk =   2.0000000

     Dense  grid:  8647083 G-vectors     FFT dimensions: ( 256, 256, 256)

     Estimated max dynamical RAM per process >     337.10 MB

     Estimated total dynamical RAM >       9.22 GB

     Initial potential from superposition of free atoms
     Check: negative starting charge=   -0.000143

     starting charge    7.99998, renormalised to    8.00000

     negative rho (up, down):  1.426E-04 0.000E+00
     Starting wfc are    6 randomized atomic wfcs +    2 random wfc
     Checking if some PAW data can be deallocated... 

     total cpu time spent up to now is       10.5 secs

     Self-consistent Calculation

     iteration #  1     ecut=   400.00 Ry     beta= 0.70
     Davidson diagonalization with overlap
     ethr =  1.00E-02,  avg # of iterations =  7.0

     negative rho (up, down):  6.988E-05 0.000E+00

     total cpu time spent up to now is       17.2 secs

     total energy              =     -43.55904424 Ry
     Harris-Foulkes estimate   =     -43.94931540 Ry
     estimated scf accuracy    <       0.51804479 Ry

     iteration #  2     ecut=   400.00 Ry     beta= 0.70
     Davidson diagonalization with overlap
     ethr =  6.48E-03,  avg # of iterations =  3.0

     negative rho (up, down):  8.570E-06 0.000E+00

     total cpu time spent up to now is       22.5 secs

     total energy              =     -43.49650826 Ry
     Harris-Foulkes estimate   =     -44.24384200 Ry
     estimated scf accuracy    <       2.20155960 Ry

     iteration #  3     ecut=   400.00 Ry     beta= 0.70
     Davidson diagonalization with overlap
     ethr =  6.48E-03,  avg # of iterations =  1.0

     negative rho (up, down):  4.008E-08 0.000E+00

     total cpu time spent up to now is       27.6 secs

     total energy              =     -43.69249729 Ry
     Harris-Foulkes estimate   =     -43.71475094 Ry
     estimated scf accuracy    <       0.15363131 Ry

     iteration #  4     ecut=   400.00 Ry     beta= 0.70
     Davidson diagonalization with overlap
     ethr =  1.92E-03,  avg # of iterations =  3.0

     negative rho (up, down):  4.338E-08 0.000E+00

     total cpu time spent up to now is       33.3 secs

     total energy              =     -43.82970291 Ry
     Harris-Foulkes estimate   =     -43.83765426 Ry
     estimated scf accuracy    <       0.03841979 Ry

     iteration #  5     ecut=   400.00 Ry     beta= 0.70
     Davidson diagonalization with overlap
     ethr =  4.80E-04,  avg # of iterations =  1.0

     negative rho (up, down):  1.258E-07 0.000E+00

     total cpu time spent up to now is       38.5 secs

     total energy              =     -43.83067682 Ry
     Harris-Foulkes estimate   =     -43.83125736 Ry
     estimated scf accuracy    <       0.01048877 Ry

     iteration #  6     ecut=   400.00 Ry     beta= 0.70
     Davidson diagonalization with overlap
     ethr =  1.31E-04,  avg # of iterations =  9.0

     negative rho (up, down):  2.812E-07 0.000E+00

     total cpu time spent up to now is       44.9 secs

     total energy              =     -43.82994205 Ry
     Harris-Foulkes estimate   =     -43.83078448 Ry
     estimated scf accuracy    <       0.00850200 Ry

     iteration #  7     ecut=   400.00 Ry     beta= 0.70
     Davidson diagonalization with overlap
     ethr =  1.06E-04,  avg # of iterations =  1.0

     negative rho (up, down):  5.505E-07 0.000E+00

     total cpu time spent up to now is       51.0 secs

     total energy              =     -43.82962389 Ry
     Harris-Foulkes estimate   =     -43.83002331 Ry
     estimated scf accuracy    <       0.00541055 Ry

     iteration #  8     ecut=   400.00 Ry     beta= 0.70
     Davidson diagonalization with overlap
     ethr =  6.76E-05,  avg # of iterations =  1.0

     negative rho (up, down):  1.116E-06 0.000E+00

     total cpu time spent up to now is       56.4 secs

     total energy              =     -43.82939109 Ry
     Harris-Foulkes estimate   =     -43.82970364 Ry
     estimated scf accuracy    <       0.00356264 Ry

     iteration #  9     ecut=   400.00 Ry     beta= 0.70
     Davidson diagonalization with overlap
     ethr =  4.45E-05,  avg # of iterations =  1.0

     negative rho (up, down):  1.623E-06 0.000E+00

     total cpu time spent up to now is       61.8 secs

     total energy              =     -43.82930729 Ry
     Harris-Foulkes estimate   =     -43.82943695 Ry
     estimated scf accuracy    <       0.00236457 Ry

     iteration # 10     ecut=   400.00 Ry     beta= 0.70
     Davidson diagonalization with overlap
     ethr =  2.96E-05,  avg # of iterations =  1.0

     negative rho (up, down):  1.879E-06 0.000E+00

     total cpu time spent up to now is       67.4 secs

     total energy              =     -43.82934833 Ry
     Harris-Foulkes estimate   =     -43.82940160 Ry
     estimated scf accuracy    <       0.00126628 Ry

     iteration # 11     ecut=   400.00 Ry     beta= 0.70
     Davidson diagonalization with overlap
     ethr =  1.58E-05,  avg # of iterations =  1.0

     negative rho (up, down):  2.254E-06 0.000E+00

     total cpu time spent up to now is       72.8 secs

     total energy              =     -43.82932069 Ry
     Harris-Foulkes estimate   =     -43.82936158 Ry
     estimated scf accuracy    <       0.00100490 Ry

     iteration # 12     ecut=   400.00 Ry     beta= 0.70
     Davidson diagonalization with overlap
     ethr =  1.26E-05,  avg # of iterations =  1.0

     negative rho (up, down):  3.835E-05 0.000E+00

     total cpu time spent up to now is       78.3 secs

     total energy              =     -43.82899252 Ry
     Harris-Foulkes estimate   =     -43.82934051 Ry
     estimated scf accuracy    <       0.00076391 Ry

     iteration # 13     ecut=   400.00 Ry     beta= 0.70
     Davidson diagonalization with overlap
     ethr =  9.55E-06,  avg # of iterations =  7.0

     negative rho (up, down):  4.086E-05 0.000E+00

     total cpu time spent up to now is       84.8 secs

     total energy              =     -43.82927303 Ry
     Harris-Foulkes estimate   =     -43.82925570 Ry
     estimated scf accuracy    <       0.00022195 Ry

     iteration # 14     ecut=   400.00 Ry     beta= 0.70
     Davidson diagonalization with overlap
     ethr =  2.77E-06,  avg # of iterations = 11.0

     negative rho (up, down):  4.014E-05 0.000E+00

     total cpu time spent up to now is       91.6 secs

     total energy              =     -43.82929664 Ry
     Harris-Foulkes estimate   =     -43.82929122 Ry
     estimated scf accuracy    <       0.00032841 Ry

     iteration # 15     ecut=   400.00 Ry     beta= 0.70
     Davidson diagonalization with overlap
     ethr =  2.77E-06,  avg # of iterations =  1.0

     negative rho (up, down):  3.965E-05 0.000E+00

     total cpu time spent up to now is       97.0 secs

     total energy              =     -43.82933471 Ry
     Harris-Foulkes estimate   =     -43.82929740 Ry
     estimated scf accuracy    <       0.00036550 Ry

     iteration # 16     ecut=   400.00 Ry     beta= 0.70
     Davidson diagonalization with overlap
     ethr =  2.77E-06,  avg # of iterations =  1.0

     negative rho (up, down):  3.830E-05 0.000E+00

     total cpu time spent up to now is      102.5 secs

     total energy              =     -43.82937543 Ry
     Harris-Foulkes estimate   =     -43.82933726 Ry
     estimated scf accuracy    <       0.00051579 Ry

     iteration # 17     ecut=   400.00 Ry     beta= 0.70
     Davidson diagonalization with overlap
     ethr =  2.77E-06,  avg # of iterations =  1.0

     negative rho (up, down):  5.011E-05 0.000E+00

     total cpu time spent up to now is      107.9 secs

     total energy              =     -43.82914337 Ry
     Harris-Foulkes estimate   =     -43.82937872 Ry
     estimated scf accuracy    <       0.00068849 Ry

     iteration # 18     ecut=   400.00 Ry     beta= 0.70
     Davidson diagonalization with overlap
     ethr =  2.77E-06,  avg # of iterations =  3.0

     negative rho (up, down):  4.599E-05 0.000E+00

     total cpu time spent up to now is      113.6 secs

     total energy              =     -43.82918872 Ry
     Harris-Foulkes estimate   =     -43.82920246 Ry
     estimated scf accuracy    <       0.00007355 Ry

     iteration # 19     ecut=   400.00 Ry     beta= 0.70
     Davidson diagonalization with overlap
     ethr =  9.19E-07,  avg # of iterations =  3.0

     negative rho (up, down):  4.615E-05 0.000E+00

     total cpu time spent up to now is      119.9 secs

     total energy              =     -43.82920266 Ry
     Harris-Foulkes estimate   =     -43.82920926 Ry
     estimated scf accuracy    <       0.00002107 Ry

     iteration # 20     ecut=   400.00 Ry     beta= 0.70
     Davidson diagonalization with overlap
     ethr =  2.63E-07,  avg # of iterations =  2.0

     negative rho (up, down):  4.912E-05 0.000E+00

     total cpu time spent up to now is      125.4 secs

     total energy              =     -43.82920478 Ry
     Harris-Foulkes estimate   =     -43.82920508 Ry
     estimated scf accuracy    <       0.00000299 Ry

     iteration # 21     ecut=   400.00 Ry     beta= 0.70
     Davidson diagonalization with overlap
     ethr =  3.74E-08,  avg # of iterations =  1.0

     negative rho (up, down):  5.071E-05 0.000E+00

     total cpu time spent up to now is      130.9 secs

     total energy              =     -43.82920482 Ry
     Harris-Foulkes estimate   =     -43.82920496 Ry
     estimated scf accuracy    <       0.00000120 Ry

     iteration # 22     ecut=   400.00 Ry     beta= 0.70
     Davidson diagonalization with overlap
     ethr =  1.50E-08,  avg # of iterations =  3.0

     negative rho (up, down):  5.073E-05 0.000E+00

     total cpu time spent up to now is      136.8 secs

     total energy              =     -43.82920531 Ry
     Harris-Foulkes estimate   =     -43.82920533 Ry
     estimated scf accuracy    <       0.00000056 Ry

     iteration # 23     ecut=   400.00 Ry     beta= 0.70
     Davidson diagonalization with overlap
     ethr =  6.98E-09,  avg # of iterations =  1.0

     negative rho (up, down):  5.026E-05 0.000E+00

     total cpu time spent up to now is      142.2 secs

     total energy              =     -43.82920520 Ry
     Harris-Foulkes estimate   =     -43.82920531 Ry
     estimated scf accuracy    <       0.00000042 Ry

     iteration # 24     ecut=   400.00 Ry     beta= 0.70
     Davidson diagonalization with overlap
     ethr =  5.25E-09,  avg # of iterations =  1.0

     negative rho (up, down):  5.009E-05 0.000E+00

     total cpu time spent up to now is      147.8 secs

     total energy              =     -43.82920519 Ry
     Harris-Foulkes estimate   =     -43.82920522 Ry
     estimated scf accuracy    <       0.00000011 Ry

     iteration # 25     ecut=   400.00 Ry     beta= 0.70
     Davidson diagonalization with overlap
     ethr =  1.34E-09,  avg # of iterations =  1.0

     negative rho (up, down):  5.004E-05 0.000E+00

     total cpu time spent up to now is      153.2 secs

     total energy              =     -43.82920519 Ry
     Harris-Foulkes estimate   =     -43.82920520 Ry
     estimated scf accuracy    <       0.00000003 Ry

     iteration # 26     ecut=   400.00 Ry     beta= 0.70
     Davidson diagonalization with overlap
     ethr =  3.17E-10,  avg # of iterations =  2.0

     negative rho (up, down):  5.011E-05 0.000E+00

     total cpu time spent up to now is      157.9 secs

     End of self-consistent calculation

          k = 0.0000 0.0000 0.0000 (****** PWs)   bands (ev):

   -23.4612 -10.3770  -9.4114  -6.8180  -3.6469  -0.4443   0.2702   0.9167

     the Fermi energy is    -6.5047 ev

!    total energy              =     -43.82920520 Ry
     Harris-Foulkes estimate   =     -43.82920520 Ry
     estimated scf accuracy    <          2.7E-09 Ry

     total all-electron energy =      -152.676087 Ry

     The total energy is the sum of the following terms:

     one-electron contribution =     -58.44132226 Ry
     hartree contribution      =      30.96822359 Ry
     xc contribution           =      -8.45325961 Ry
     ewald contribution        =       1.68819902 Ry
     one-center paw contrib.   =      -9.59512341 Ry
     smearing contrib. (-TS)   =       0.00407747 Ry

     convergence has been achieved in  26 iterations

     Writing output data file pwscf.save
 
     init_run     :      9.25s CPU      9.75s WALL (       1 calls)
     electrons    :    129.96s CPU    148.05s WALL (       1 calls)

     Called by init_run:
     wfcinit      :      0.76s CPU      0.88s WALL (       1 calls)
     potinit      :      1.22s CPU      1.32s WALL (       1 calls)

     Called by electrons:
     c_bands      :     47.71s CPU     48.86s WALL (      26 calls)
     sum_band     :     33.85s CPU     36.97s WALL (      26 calls)
     v_of_rho     :     21.93s CPU     22.91s WALL (      27 calls)
     newd         :     11.51s CPU     14.25s WALL (      27 calls)
     PAW_pot      :      0.32s CPU      0.34s WALL (      27 calls)
     mix_rho      :     14.95s CPU     23.27s WALL (      26 calls)

     Called by c_bands:
     init_us_2    :      0.80s CPU      0.83s WALL (      53 calls)
     cegterg      :     46.90s CPU     47.98s WALL (      26 calls)

     Called by sum_band:
     sum_band:bec :      0.00s CPU      0.00s WALL (      26 calls)
     addusdens    :     18.81s CPU     21.55s WALL (      26 calls)

     Called by *egterg:
     h_psi        :     44.79s CPU     45.85s WALL (      95 calls)
     s_psi        :      0.33s CPU      0.34s WALL (      95 calls)
     g_psi        :      0.11s CPU      0.11s WALL (      68 calls)
     cdiaghg      :      0.02s CPU      0.02s WALL (      94 calls)

     Called by h_psi:
     h_psi:pot    :     44.48s CPU     45.53s WALL (      95 calls)
     h_psi:calbec :      0.28s CPU      0.29s WALL (      95 calls)
     vloc_psi     :     43.89s CPU     44.93s WALL (      95 calls)
     add_vuspsi   :      0.31s CPU      0.31s WALL (      95 calls)

     General routines
     calbec       :      0.35s CPU      0.35s WALL (     121 calls)
     fft          :     25.88s CPU     27.46s WALL (     350 calls)
     fftw         :     47.12s CPU     48.30s WALL (    1204 calls)
     davcio       :      1.21s CPU      8.76s WALL (     427 calls)
 
     Parallel routines
     fft_scatt_xy :     11.91s CPU     11.95s WALL (    1554 calls)
     fft_scatt_yz :     21.47s CPU     23.98s WALL (    1554 calls)
 
     PWSCF        :  2m20.20s CPU     2m40.80s WALL

 
   This run was terminated on:  15: 3:48  18May2018            

=------------------------------------------------------------------------------=
   JOB DONE.
=------------------------------------------------------------------------------=
