
     Program PWSCF v.6.0 (svn rev. 13079) starts on 19Apr2018 at 20:15:12 

     This program is part of the open-source Quantum ESPRESSO suite
     for quantum simulation of materials; please cite
         "P. Giannozzi et al., J. Phys.:Condens. Matter 21 395502 (2009);
          URL http://www.quantum-espresso.org", 
     in publications or presentations arising from this work. More details at
     http://www.quantum-espresso.org/quote

     Parallel version (MPI), running on    28 processors
     R & G space division:  proc/nbgrp/npool/nimage =      28
     Reading input from ../H2O-2000.in

     Current dimensions of program PWSCF are:
     Max number of different atomic species (ntypx) = 10
     Max number of k-points (npk) =  40000
     Max angular momentum in pseudopotentials (lmaxx) =  3

     Subspace diagonalization in iterative solution of the eigenvalue problem:
     a serial algorithm will be used

 
     Parallelization info
     --------------------
     sticks:   dense  smooth     PW     G-vecs:    dense   smooth      PW
     Min         273     273     67                17945    17945    2235
     Max         274     274     68                17950    17950    2240
     Sum        7645    7645   1901               502479   502479   62669
 


     bravais-lattice index     =            1
     lattice parameter (alat)  =      20.0000  a.u.
     unit-cell volume          =    8000.0000 (a.u.)^3
     number of atoms/cell      =            3
     number of atomic types    =            2
     number of electrons       =         8.00
     number of Kohn-Sham states=            8
     kinetic-energy cutoff     =      60.0000  Ry
     charge density cutoff     =     240.0000  Ry
     convergence threshold     =      1.0E-08
     mixing beta               =       0.7000
     number of iterations used =            8  plain     mixing
     Exchange-correlation      = BLYP ( 1  3  1  3 0 0)
     nstep                     =         1000


     celldm(1)=  20.000000  celldm(2)=   0.000000  celldm(3)=   0.000000
     celldm(4)=   0.000000  celldm(5)=   0.000000  celldm(6)=   0.000000

     crystal axes: (cart. coord. in units of alat)
               a(1) = (   1.000000   0.000000   0.000000 )  
               a(2) = (   0.000000   1.000000   0.000000 )  
               a(3) = (   0.000000   0.000000   1.000000 )  

     reciprocal axes: (cart. coord. in units 2 pi/alat)
               b(1) = (  1.000000  0.000000  0.000000 )  
               b(2) = (  0.000000  1.000000  0.000000 )  
               b(3) = (  0.000000  0.000000  1.000000 )  


     PseudoPot. # 1 for  H read from file:
     ./H.blyp-hgh.UPF
     MD5 check sum: c576e69559cde411e611be972c763230
     Pseudo is Norm-conserving, Zval =  1.0
     Generated in analytical, separable form
     Using radial grid of  929 points,  0 beta functions with: 

     PseudoPot. # 2 for  O read from file:
     ./O.blyp-hgh.UPF
     MD5 check sum: d0b7156309aa9befef28faac7bc56342
     Pseudo is Norm-conserving, Zval =  6.0
     Generated in analytical, separable form
     Using radial grid of 1095 points,  1 beta functions with: 
                l(1) =   0

     atomic species   valence    mass     pseudopotential
        H              1.00     1.01000      H( 1.00)
        O              6.00    16.00000      O( 1.00)

     No symmetry found



   Cartesian axes

     site n.     atom                  positions (alat units)
         1           O   tau(   1) = (   0.0000000   0.0000000   0.0112686  )
         2           H   tau(   2) = (   0.0000000   0.0721156  -0.0450744  )
         3           H   tau(   3) = (   0.0000000  -0.0721156  -0.0450744  )

     number of k points=     1  Marzari-Vanderbilt smearing, width (Ry)=  0.0250
                       cart. coord. in units 2pi/alat
        k(    1) = (   0.0000000   0.0000000   0.0000000), wk =   2.0000000

     Dense  grid:   502479 G-vectors     FFT dimensions: ( 100, 100, 100)

     Estimated max dynamical RAM per process >      17.25Mb

     Estimated total allocated dynamical RAM >     483.03Mb

     Initial potential from superposition of free atoms
     Check: negative starting charge=   -0.071145

     starting charge    7.99998, renormalised to    8.00000

     negative rho (up, down):  7.115E-02 0.000E+00
     Starting wfc are    6 randomized atomic wfcs +    2 random wfc

     total cpu time spent up to now is        1.9 secs

     per-process dynamical memory:    30.5 Mb

     Self-consistent Calculation

     iteration #  1     ecut=    60.00 Ry     beta=0.70
     Davidson diagonalization with overlap
     ethr =  1.00E-02,  avg # of iterations =  8.0

     negative rho (up, down):  2.059E-02 0.000E+00

     total cpu time spent up to now is        2.3 secs

     total energy              =     -33.66095752 Ry
     Harris-Foulkes estimate   =     -33.73037087 Ry
     estimated scf accuracy    <       0.20731731 Ry

     iteration #  2     ecut=    60.00 Ry     beta=0.70
     Davidson diagonalization with overlap
     ethr =  2.59E-03,  avg # of iterations =  2.0

     negative rho (up, down):  1.160E-02 0.000E+00

     total cpu time spent up to now is        2.4 secs

     total energy              =     -33.69154141 Ry
     Harris-Foulkes estimate   =     -33.75067961 Ry
     estimated scf accuracy    <       0.13672646 Ry

     iteration #  3     ecut=    60.00 Ry     beta=0.70
     Davidson diagonalization with overlap
     ethr =  1.71E-03,  avg # of iterations =  2.0

     negative rho (up, down):  2.425E-04 0.000E+00

     total cpu time spent up to now is        2.4 secs

     total energy              =     -33.73645651 Ry
     Harris-Foulkes estimate   =     -33.72668477 Ry
     estimated scf accuracy    <       0.00681938 Ry

     iteration #  4     ecut=    60.00 Ry     beta=0.70
     Davidson diagonalization with overlap
     ethr =  8.52E-05,  avg # of iterations =  8.0

     negative rho (up, down):  2.472E-04 0.000E+00

     total cpu time spent up to now is        2.5 secs

     total energy              =     -33.73796938 Ry
     Harris-Foulkes estimate   =     -33.73799256 Ry
     estimated scf accuracy    <       0.00005665 Ry

     iteration #  5     ecut=    60.00 Ry     beta=0.70
     Davidson diagonalization with overlap
     ethr =  7.08E-07,  avg # of iterations = 12.0

     negative rho (up, down):  1.549E-05 0.000E+00

     total cpu time spent up to now is        2.7 secs

     total energy              =     -33.73797920 Ry
     Harris-Foulkes estimate   =     -33.73798342 Ry
     estimated scf accuracy    <       0.00000504 Ry

     iteration #  6     ecut=    60.00 Ry     beta=0.70
     Davidson diagonalization with overlap
     ethr =  6.29E-08,  avg # of iterations = 10.0

     total cpu time spent up to now is        2.8 secs

     total energy              =     -33.74205619 Ry
     Harris-Foulkes estimate   =     -33.74205731 Ry
     estimated scf accuracy    <       0.00000017 Ry

     iteration #  7     ecut=    60.00 Ry     beta=0.70
     Davidson diagonalization with overlap
     ethr =  2.09E-09,  avg # of iterations =  2.0

     total cpu time spent up to now is        2.8 secs

     End of self-consistent calculation

          k = 0.0000 0.0000 0.0000 ( 62669 PWs)   bands (ev):

   -25.4812 -12.9157  -9.2080  -7.0609  -0.9110   0.4220   0.7968   1.1102

     the Fermi energy is    -5.1975 ev

!    total energy              =     -33.74205615 Ry
     Harris-Foulkes estimate   =     -33.74205623 Ry
     estimated scf accuracy    <          9.0E-09 Ry

     convergence has been achieved in   7 iterations

     Forces acting on atoms (Ry/au):

     atom    1 type  2   force =     0.00000338    0.00000165    0.05215122
     atom    2 type  1   force =    -0.00000165    0.02843773   -0.02607547
     atom    3 type  1   force =    -0.00000173   -0.02843938   -0.02607575

     Total force =     0.075479     Total SCF correction =     0.000161

     Molecular Dynamics Calculation

     Starting temperature  =  2000.00 K

     temperature is controlled by Andersen thermostat
     Collision frequency = 1.0000/timestep
     mass H                =     1.01
     mass O                =    16.00
     Time step             =    10.00 a.u.,  0.4838 femto-seconds

     Entering Dynamics:    iteration =     1
                           time      =   0.0005 pico-seconds


     Andersen thermostat:    3 collisions

ATOMIC_POSITIONS (angstrom)
O        0.000643983  -0.001826642   0.120824324
H        0.004417794   0.787406620  -0.496263296
H       -0.014619499  -0.758469714  -0.482580384


     kinetic energy (Ekin) =     0.02082804 Ry
     temperature           =  1096.16107398 K 
     Ekin + Etot (const)   =   -33.72122811 Ry

     Linear momentum :   -0.0000000000    0.0000000000   -0.0000000000

     Writing output data file pwscf.save
     Check: negative starting charge=   -0.071145
     NEW-OLD atomic charge density approx. for the potential
     Check: negative starting charge=   -0.071149

     negative rho (up, down):  2.562E-03 0.000E+00

     total cpu time spent up to now is        4.2 secs

     per-process dynamical memory:    32.7 Mb

     Self-consistent Calculation

     iteration #  1     ecut=    60.00 Ry     beta=0.70
     Davidson diagonalization with overlap
     c_bands:  1 eigenvalues not converged
     ethr =  1.00E-06,  avg # of iterations = 20.0

     negative rho (up, down):  6.212E-04 0.000E+00

     total cpu time spent up to now is        4.4 secs

     total energy              =     -33.73832938 Ry
     Harris-Foulkes estimate   =     -33.73769418 Ry
     estimated scf accuracy    <       0.00073661 Ry

     iteration #  2     ecut=    60.00 Ry     beta=0.70
     Davidson diagonalization with overlap
     ethr =  9.21E-06,  avg # of iterations =  6.0

     negative rho (up, down):  3.472E-04 0.000E+00

     total cpu time spent up to now is        4.5 secs

     total energy              =     -33.74253793 Ry
     Harris-Foulkes estimate   =     -33.74283202 Ry
     estimated scf accuracy    <       0.00058566 Ry

     iteration #  3     ecut=    60.00 Ry     beta=0.70
     Davidson diagonalization with overlap
     ethr =  7.32E-06,  avg # of iterations =  2.0

     negative rho (up, down):  1.908E-05 0.000E+00

     total cpu time spent up to now is        4.6 secs

     total energy              =     -33.73858477 Ry
     Harris-Foulkes estimate   =     -33.73859401 Ry
     estimated scf accuracy    <       0.00001160 Ry

     iteration #  4     ecut=    60.00 Ry     beta=0.70
     Davidson diagonalization with overlap
     ethr =  1.45E-07,  avg # of iterations = 13.0

     negative rho (up, down):  5.779E-07 0.000E+00

     total cpu time spent up to now is        4.7 secs

     total energy              =     -33.74266492 Ry
     Harris-Foulkes estimate   =     -33.74266494 Ry
     estimated scf accuracy    <       0.00000019 Ry

     iteration #  5     ecut=    60.00 Ry     beta=0.70
     Davidson diagonalization with overlap
     ethr =  2.40E-09,  avg # of iterations =  2.0

     total cpu time spent up to now is        4.8 secs

     total energy              =     -33.74266491 Ry
     Harris-Foulkes estimate   =     -33.74266497 Ry
     estimated scf accuracy    <       0.00000001 Ry

     iteration #  6     ecut=    60.00 Ry     beta=0.70
     Davidson diagonalization with overlap
     ethr =  1.27E-10,  avg # of iterations =  2.0

     total cpu time spent up to now is        4.8 secs

     End of self-consistent calculation

          k = 0.0000 0.0000 0.0000 ( 62669 PWs)   bands (ev):

   -25.3192 -12.7366  -9.2125  -7.0325  -0.9604   0.4037   0.7672   1.1117

     the Fermi energy is    -5.1559 ev

!    total energy              =     -33.74266490 Ry
     Harris-Foulkes estimate   =     -33.74266492 Ry
     estimated scf accuracy    <          4.5E-10 Ry

     convergence has been achieved in   6 iterations

     Forces acting on atoms (Ry/au):

     atom    1 type  2   force =     0.00097902    0.04363328    0.02061611
     atom    2 type  1   force =    -0.00021773   -0.01370077    0.00716700
     atom    3 type  1   force =    -0.00076129   -0.02993250   -0.02778312

     Total force =     0.065095     Total SCF correction =     0.000268

     Entering Dynamics:    iteration =     2
                           time      =   0.0010 pico-seconds


     Andersen thermostat:    3 collisions

ATOMIC_POSITIONS (angstrom)
O        0.004654704  -0.000754124   0.120436729
H       -0.011993413   0.784260894  -0.518515993
H       -0.061744465  -0.772314367  -0.454187572


     kinetic energy (Ekin) =     0.07395221 Ry
     temperature           =  3892.03907284 K 
     Ekin + Etot (const)   =   -33.66871269 Ry
     Message from routine dynamics:
     Total linear momentum <> 0

     Linear momentum :   -0.3027982754    0.3872247555    0.1892915408

     Writing output data file pwscf.save

     first order wave-functions extrapolation
     Check: negative starting charge=   -0.071149
     first order charge density extrapolation
     Check: negative starting charge=   -0.071116

     negative rho (up, down):  5.479E-03 0.000E+00

     total cpu time spent up to now is        5.8 secs

     per-process dynamical memory:    32.7 Mb

     Self-consistent Calculation

     iteration #  1     ecut=    60.00 Ry     beta=0.70
     Davidson diagonalization with overlap
     c_bands:  1 eigenvalues not converged
     ethr =  1.00E-06,  avg # of iterations = 20.0

     negative rho (up, down):  1.378E-03 0.000E+00

     total cpu time spent up to now is        6.0 secs

     total energy              =     -33.73739672 Ry
     Harris-Foulkes estimate   =     -33.73310713 Ry
     estimated scf accuracy    <       0.00070277 Ry

     iteration #  2     ecut=    60.00 Ry     beta=0.70
     Davidson diagonalization with overlap
     ethr =  8.78E-06,  avg # of iterations = 18.0

     negative rho (up, down):  7.740E-04 0.000E+00

     total cpu time spent up to now is        6.2 secs

     total energy              =     -33.73763197 Ry
     Harris-Foulkes estimate   =     -33.73775343 Ry
     estimated scf accuracy    <       0.00050855 Ry

     iteration #  3     ecut=    60.00 Ry     beta=0.70
     Davidson diagonalization with overlap
     ethr =  6.36E-06,  avg # of iterations =  7.0

     negative rho (up, down):  1.623E-05 0.000E+00

     total cpu time spent up to now is        6.3 secs

     total energy              =     -33.73775813 Ry
     Harris-Foulkes estimate   =     -33.73775429 Ry
     estimated scf accuracy    <       0.00002054 Ry

     iteration #  4     ecut=    60.00 Ry     beta=0.70
     Davidson diagonalization with overlap
     ethr =  2.57E-07,  avg # of iterations =  5.0

     negative rho (up, down):  3.381E-08 0.000E+00

     total cpu time spent up to now is        6.4 secs

     total energy              =     -33.74183977 Ry
     Harris-Foulkes estimate   =     -33.74183994 Ry
     estimated scf accuracy    <       0.00000027 Ry

     iteration #  5     ecut=    60.00 Ry     beta=0.70
     Davidson diagonalization with overlap
     ethr =  3.40E-09,  avg # of iterations =  2.0

     total cpu time spent up to now is        6.5 secs

     End of self-consistent calculation

          k = 0.0000 0.0000 0.0000 ( 62669 PWs)   bands (ev):

   -25.2774 -12.7373  -9.1734  -7.0234  -0.9728   0.3983   0.7589   1.1086

     the Fermi energy is    -5.1478 ev

!    total energy              =     -33.74183976 Ry
     Harris-Foulkes estimate   =     -33.74183985 Ry
     estimated scf accuracy    <          9.1E-09 Ry

     convergence has been achieved in   5 iterations

     Forces acting on atoms (Ry/au):

     atom    1 type  2   force =     0.00447517    0.06103218    0.01672374
     atom    2 type  1   force =    -0.00046415   -0.02680511    0.01553633
     atom    3 type  1   force =    -0.00401102   -0.03422707   -0.03226007

     Total force =     0.084930     Total SCF correction =     0.000763

     Entering Dynamics:    iteration =     3
                           time      =   0.0015 pico-seconds


     Andersen thermostat:    3 collisions

ATOMIC_POSITIONS (angstrom)
O        0.007934360  -0.001735640   0.120747074
H       -0.049877498   0.801141745  -0.514892021
H       -0.075815333  -0.773646455  -0.462727904


     kinetic energy (Ekin) =     0.03868466 Ry
     temperature           =  2035.93913603 K 
     Ekin + Etot (const)   =   -33.70315510 Ry
     Message from routine dynamics:
     Total linear momentum <> 0

     Linear momentum :   -0.0338002048    0.4542963862    0.0433869086

     Writing output data file pwscf.save

     second order wave-functions extrapolation
     Check: negative starting charge=   -0.071116
     second order charge density extrapolation
     Check: negative starting charge=   -0.071083

     negative rho (up, down):  2.869E-03 0.000E+00

     total cpu time spent up to now is        7.1 secs

     per-process dynamical memory:    32.7 Mb

     Self-consistent Calculation

     iteration #  1     ecut=    60.00 Ry     beta=0.70
     Davidson diagonalization with overlap
     ethr =  1.00E-06,  avg # of iterations = 14.0

     negative rho (up, down):  6.978E-04 0.000E+00

     total cpu time spent up to now is        7.3 secs

     total energy              =     -33.73719611 Ry
     Harris-Foulkes estimate   =     -33.73583185 Ry
     estimated scf accuracy    <       0.00026868 Ry

     iteration #  2     ecut=    60.00 Ry     beta=0.70
     Davidson diagonalization with overlap
     ethr =  3.36E-06,  avg # of iterations = 15.0

     negative rho (up, down):  3.699E-04 0.000E+00

     total cpu time spent up to now is        7.5 secs

     total energy              =     -33.74131596 Ry
     Harris-Foulkes estimate   =     -33.74139367 Ry
     estimated scf accuracy    <       0.00017117 Ry

     iteration #  3     ecut=    60.00 Ry     beta=0.70
     Davidson diagonalization with overlap
     ethr =  2.14E-06,  avg # of iterations =  3.0

     negative rho (up, down):  2.518E-06 0.000E+00

     total cpu time spent up to now is        7.5 secs

     total energy              =     -33.73727692 Ry
     Harris-Foulkes estimate   =     -33.73728341 Ry
     estimated scf accuracy    <       0.00001089 Ry

     iteration #  4     ecut=    60.00 Ry     beta=0.70
     Davidson diagonalization with overlap
     ethr =  1.36E-07,  avg # of iterations =  3.0

     total cpu time spent up to now is        7.6 secs

     total energy              =     -33.74135661 Ry
     Harris-Foulkes estimate   =     -33.74135664 Ry
     estimated scf accuracy    <       0.00000007 Ry

     iteration #  5     ecut=    60.00 Ry     beta=0.70
     Davidson diagonalization with overlap
     ethr =  8.18E-10,  avg # of iterations =  2.0

     total cpu time spent up to now is        7.7 secs

     End of self-consistent calculation

          k = 0.0000 0.0000 0.0000 ( 62669 PWs)   bands (ev):

   -25.1733 -12.6519  -9.1536  -7.0045  -1.0059   0.3867   0.7373   1.1025

     the Fermi energy is    -5.1263 ev

!    total energy              =     -33.74135662 Ry
     Harris-Foulkes estimate   =     -33.74135664 Ry
     estimated scf accuracy    <          4.7E-09 Ry

     convergence has been achieved in   5 iterations

     Forces acting on atoms (Ry/au):

     atom    1 type  2   force =     0.00243728    0.06460952    0.00018048
     atom    2 type  1   force =     0.00156039   -0.04136320    0.02525750
     atom    3 type  1   force =    -0.00399767   -0.02324632   -0.02543797

     Total force =     0.087950     Total SCF correction =     0.000371

     Entering Dynamics:    iteration =     4
                           time      =   0.0019 pico-seconds


     Andersen thermostat:    3 collisions

ATOMIC_POSITIONS (angstrom)
O        0.007221333  -0.002959822   0.122185265
H       -0.030651078   0.799086895  -0.549932176
H       -0.083746275  -0.752198620  -0.450470979


     kinetic energy (Ekin) =     0.04627643 Ry
     temperature           =  2435.48736669 K 
     Ekin + Etot (const)   =   -33.69508019 Ry
     Message from routine dynamics:
     Total linear momentum <> 0

     Linear momentum :   -0.4524413689   -0.3536660308   -0.4266901799

     Writing output data file pwscf.save

     second order wave-functions extrapolation
     Check: negative starting charge=   -0.071083
     second order charge density extrapolation
     Check: negative starting charge=   -0.071047

     negative rho (up, down):  3.044E-03 0.000E+00

     total cpu time spent up to now is        8.3 secs

     per-process dynamical memory:    32.7 Mb

     Self-consistent Calculation

     iteration #  1     ecut=    60.00 Ry     beta=0.70
     Davidson diagonalization with overlap
     c_bands:  1 eigenvalues not converged
     ethr =  1.00E-06,  avg # of iterations = 20.0

     negative rho (up, down):  7.418E-04 0.000E+00

     total cpu time spent up to now is        8.5 secs

     total energy              =     -33.73238216 Ry
     Harris-Foulkes estimate   =     -33.73083488 Ry
     estimated scf accuracy    <       0.00024034 Ry

     iteration #  2     ecut=    60.00 Ry     beta=0.70
     Davidson diagonalization with overlap
     ethr =  3.00E-06,  avg # of iterations = 15.0

     negative rho (up, down):  1.694E-04 0.000E+00

     total cpu time spent up to now is        8.6 secs

     total energy              =     -33.73241519 Ry
     Harris-Foulkes estimate   =     -33.73241759 Ry
     estimated scf accuracy    <       0.00002787 Ry

     iteration #  3     ecut=    60.00 Ry     beta=0.70
     Davidson diagonalization with overlap
     ethr =  3.48E-07,  avg # of iterations = 11.0

     negative rho (up, down):  2.063E-05 0.000E+00

     total cpu time spent up to now is        8.7 secs

     total energy              =     -33.73241636 Ry
     Harris-Foulkes estimate   =     -33.73242648 Ry
     estimated scf accuracy    <       0.00001421 Ry

     iteration #  4     ecut=    60.00 Ry     beta=0.70
     Davidson diagonalization with overlap
     ethr =  1.78E-07,  avg # of iterations =  2.0

     negative rho (up, down):  5.456E-07 0.000E+00

     total cpu time spent up to now is        8.8 secs

     total energy              =     -33.73649732 Ry
     Harris-Foulkes estimate   =     -33.73649757 Ry
     estimated scf accuracy    <       0.00000072 Ry

     iteration #  5     ecut=    60.00 Ry     beta=0.70
     Davidson diagonalization with overlap
     ethr =  9.01E-09,  avg # of iterations =  2.0

     total cpu time spent up to now is        8.9 secs

     End of self-consistent calculation

          k = 0.0000 0.0000 0.0000 ( 62669 PWs)   bands (ev):

   -25.2496 -12.5771  -9.2459  -7.0166  -1.0256   0.3707   0.7497   1.1154

     the Fermi energy is    -5.1357 ev

!    total energy              =     -33.73649750 Ry
     Harris-Foulkes estimate   =     -33.73649750 Ry
     estimated scf accuracy    <          8.3E-09 Ry

     convergence has been achieved in   5 iterations

     Forces acting on atoms (Ry/au):

     atom    1 type  2   force =     0.00666031    0.12141847    0.00503282
     atom    2 type  1   force =     0.00195587   -0.05562249    0.04572229
     atom    3 type  1   force =    -0.00861618   -0.06579598   -0.05075512

     Total force =     0.164255     Total SCF correction =     0.001916

     Entering Dynamics:    iteration =     5
                           time      =   0.0024 pico-seconds


     Andersen thermostat:    3 collisions

ATOMIC_POSITIONS (angstrom)
O        0.005866871  -0.004049563   0.124162176
H       -0.025202688   0.806836879  -0.557483830
H       -0.067737836  -0.742685391  -0.474236727


     kinetic energy (Ekin) =     0.02939042 Ry
     temperature           =  1546.79175370 K 
     Ekin + Etot (const)   =   -33.70710708 Ry
     Message from routine dynamics:
     Total linear momentum <> 0

     Linear momentum :    0.4694528624    0.1964001521   -0.7265981426

     Writing output data file pwscf.save

     second order wave-functions extrapolation
     Check: negative starting charge=   -0.071047
     second order charge density extrapolation
     Check: negative starting charge=   -0.071029

     negative rho (up, down):  2.577E-03 0.000E+00

     total cpu time spent up to now is        9.5 secs

     per-process dynamical memory:    32.7 Mb

     Self-consistent Calculation

     iteration #  1     ecut=    60.00 Ry     beta=0.70
     Davidson diagonalization with overlap
     ethr =  1.00E-06,  avg # of iterations = 14.0

     negative rho (up, down):  6.220E-04 0.000E+00

     total cpu time spent up to now is        9.7 secs

     total energy              =     -33.73129115 Ry
     Harris-Foulkes estimate   =     -33.73034010 Ry
     estimated scf accuracy    <       0.00027846 Ry

     iteration #  2     ecut=    60.00 Ry     beta=0.70
     Davidson diagonalization with overlap
     ethr =  3.48E-06,  avg # of iterations = 14.0

     negative rho (up, down):  3.572E-04 0.000E+00

     total cpu time spent up to now is        9.8 secs

     total energy              =     -33.73541724 Ry
     Harris-Foulkes estimate   =     -33.73553718 Ry
     estimated scf accuracy    <       0.00025533 Ry

     iteration #  3     ecut=    60.00 Ry     beta=0.70
     Davidson diagonalization with overlap
     ethr =  3.19E-06,  avg # of iterations =  2.0

     negative rho (up, down):  1.959E-07 0.000E+00

     total cpu time spent up to now is        9.9 secs

     total energy              =     -33.73138972 Ry
     Harris-Foulkes estimate   =     -33.73139630 Ry
     estimated scf accuracy    <       0.00000536 Ry

     iteration #  4     ecut=    60.00 Ry     beta=0.70
     Davidson diagonalization with overlap
     ethr =  6.70E-08,  avg # of iterations = 19.0

     total cpu time spent up to now is       10.0 secs

     total energy              =     -33.73546836 Ry
     Harris-Foulkes estimate   =     -33.73546850 Ry
     estimated scf accuracy    <       0.00000006 Ry

     iteration #  5     ecut=    60.00 Ry     beta=0.70
     Davidson diagonalization with overlap
     ethr =  7.61E-10,  avg # of iterations =  2.0

     total cpu time spent up to now is       10.1 secs

     End of self-consistent calculation

          k = 0.0000 0.0000 0.0000 ( 62669 PWs)   bands (ev):

   -25.1853 -12.4205  -9.3139  -7.0079  -1.0631   0.3559   0.7341   1.1025

     the Fermi energy is    -5.1293 ev

!    total energy              =     -33.73546823 Ry
     Harris-Foulkes estimate   =     -33.73546837 Ry
     estimated scf accuracy    <          3.9E-09 Ry

     convergence has been achieved in   5 iterations

     Forces acting on atoms (Ry/au):

     atom    1 type  2   force =     0.00365117    0.11946236   -0.01258047
     atom    2 type  1   force =     0.00223747   -0.06162411    0.05549105
     atom    3 type  1   force =    -0.00588864   -0.05783824   -0.04291057

     Total force =     0.162929     Total SCF correction =     0.000554

     Entering Dynamics:    iteration =     6
                           time      =   0.0029 pico-seconds


     Andersen thermostat:    3 collisions

ATOMIC_POSITIONS (angstrom)
O        0.006859385  -0.002953243   0.121119904
H       -0.024875649   0.788691578  -0.502412266
H       -0.083787873  -0.741907533  -0.481113877


     kinetic energy (Ekin) =     0.06017407 Ry
     temperature           =  3166.90787782 K 
     Ekin + Etot (const)   =   -33.67529415 Ry
     Message from routine dynamics:
     Total linear momentum <> 0

     Linear momentum :   -0.2914237840    0.1036684093   -0.0053082104

     Writing output data file pwscf.save

     second order wave-functions extrapolation
     Check: negative starting charge=   -0.071029
     second order charge density extrapolation
     Check: negative starting charge=   -0.071151

     negative rho (up, down):  1.562E-03 0.000E+00

     total cpu time spent up to now is       10.8 secs

     per-process dynamical memory:    32.7 Mb

     Self-consistent Calculation

     iteration #  1     ecut=    60.00 Ry     beta=0.70
     Davidson diagonalization with overlap
     ethr =  1.00E-06,  avg # of iterations = 20.0

     negative rho (up, down):  3.534E-04 0.000E+00

     total cpu time spent up to now is       11.0 secs

     total energy              =     -33.73708331 Ry
     Harris-Foulkes estimate   =     -33.73733101 Ry
     estimated scf accuracy    <       0.00083230 Ry

     iteration #  2     ecut=    60.00 Ry     beta=0.70
     Davidson diagonalization with overlap
     ethr =  1.04E-05,  avg # of iterations =  3.0

     negative rho (up, down):  1.902E-04 0.000E+00

     total cpu time spent up to now is       11.1 secs

     total energy              =     -33.73723707 Ry
     Harris-Foulkes estimate   =     -33.73758590 Ry
     estimated scf accuracy    <       0.00071133 Ry

     iteration #  3     ecut=    60.00 Ry     beta=0.70
     Davidson diagonalization with overlap
     ethr =  8.89E-06,  avg # of iterations =  2.0

     negative rho (up, down):  4.680E-06 0.000E+00

     total cpu time spent up to now is       11.2 secs

     total energy              =     -33.74146868 Ry
     Harris-Foulkes estimate   =     -33.74147212 Ry
     estimated scf accuracy    <       0.00001123 Ry

     iteration #  4     ecut=    60.00 Ry     beta=0.70
     Davidson diagonalization with overlap
     ethr =  1.40E-07,  avg # of iterations = 19.0

     negative rho (up, down):  5.111E-08 0.000E+00

     total cpu time spent up to now is       11.3 secs

     total energy              =     -33.74147092 Ry
     Harris-Foulkes estimate   =     -33.74147101 Ry
     estimated scf accuracy    <       0.00000016 Ry

     iteration #  5     ecut=    60.00 Ry     beta=0.70
     Davidson diagonalization with overlap
     ethr =  2.05E-09,  avg # of iterations =  2.0

     total cpu time spent up to now is       11.3 secs

     End of self-consistent calculation

          k = 0.0000 0.0000 0.0000 ( 62669 PWs)   bands (ev):

   -25.3654 -12.7031  -9.2685  -7.0415  -0.9602   0.4017   0.7748   1.1062

     the Fermi energy is    -5.1716 ev

!    total energy              =     -33.74147090 Ry
     Harris-Foulkes estimate   =     -33.74147095 Ry
     estimated scf accuracy    <          8.5E-09 Ry

     convergence has been achieved in   5 iterations

     Forces acting on atoms (Ry/au):

     atom    1 type  2   force =     0.00620879    0.06595919    0.02268219
     atom    2 type  1   force =     0.00020658   -0.01797222    0.01532910
     atom    3 type  1   force =    -0.00641538   -0.04798697   -0.03801129

     Total force =     0.096179     Total SCF correction =     0.000805

     Entering Dynamics:    iteration =     7
                           time      =   0.0034 pico-seconds


     Andersen thermostat:    3 collisions

ATOMIC_POSITIONS (angstrom)
O        0.006915685  -0.004265394   0.121534735
H       -0.032025262   0.799665674  -0.476910301
H       -0.077530151  -0.732095072  -0.513187419


     kinetic energy (Ekin) =     0.04503817 Ry
     temperature           =  2370.31882729 K 
     Ekin + Etot (const)   =   -33.69643273 Ry
     Message from routine dynamics:
     Total linear momentum <> 0

     Linear momentum :    0.6928291281   -0.0382954508   -0.7446137797

     Writing output data file pwscf.save

     second order wave-functions extrapolation
     Check: negative starting charge=   -0.071151
     second order charge density extrapolation
     Check: negative starting charge=   -0.071168

     negative rho (up, down):  1.451E-03 0.000E+00

     total cpu time spent up to now is       11.9 secs

     per-process dynamical memory:    32.7 Mb

     Self-consistent Calculation

     iteration #  1     ecut=    60.00 Ry     beta=0.70
     Davidson diagonalization with overlap
     ethr =  1.00E-06,  avg # of iterations =  9.0

     negative rho (up, down):  3.311E-04 0.000E+00

     total cpu time spent up to now is       12.1 secs

     total energy              =     -33.73867027 Ry
     Harris-Foulkes estimate   =     -33.73854143 Ry
     estimated scf accuracy    <       0.00008613 Ry

     iteration #  2     ecut=    60.00 Ry     beta=0.70
     Davidson diagonalization with overlap
     ethr =  1.08E-06,  avg # of iterations =  6.0

     negative rho (up, down):  1.644E-04 0.000E+00

     total cpu time spent up to now is       12.2 secs

     total energy              =     -33.74275794 Ry
     Harris-Foulkes estimate   =     -33.74278817 Ry
     estimated scf accuracy    <       0.00005324 Ry

     iteration #  3     ecut=    60.00 Ry     beta=0.70
     Davidson diagonalization with overlap
     ethr =  6.65E-07,  avg # of iterations =  2.0

     negative rho (up, down):  3.746E-06 0.000E+00

     total cpu time spent up to now is       12.3 secs

     total energy              =     -33.74276705 Ry
     Harris-Foulkes estimate   =     -33.74277175 Ry
     estimated scf accuracy    <       0.00000289 Ry

     iteration #  4     ecut=    60.00 Ry     beta=0.70
     Davidson diagonalization with overlap
     ethr =  3.61E-08,  avg # of iterations = 13.0

     negative rho (up, down):  1.243E-08 0.000E+00

     total cpu time spent up to now is       12.4 secs

     total energy              =     -33.74276770 Ry
     Harris-Foulkes estimate   =     -33.74276768 Ry
     estimated scf accuracy    <       0.00000003 Ry

     iteration #  5     ecut=    60.00 Ry     beta=0.70
     Davidson diagonalization with overlap
     ethr =  3.75E-10,  avg # of iterations =  2.0

     total cpu time spent up to now is       12.4 secs

     End of self-consistent calculation

          k = 0.0000 0.0000 0.0000 ( 62669 PWs)   bands (ev):

   -25.3288 -12.6559  -9.2826  -7.0369  -0.9665   0.4013   0.7679   1.1044

     the Fermi energy is    -5.1638 ev

!    total energy              =     -33.74276769 Ry
     Harris-Foulkes estimate   =     -33.74276771 Ry
     estimated scf accuracy    <          1.7E-09 Ry

     convergence has been achieved in   5 iterations

     Forces acting on atoms (Ry/au):

     atom    1 type  2   force =     0.00334778    0.04200959    0.01326809
     atom    2 type  1   force =     0.00039543   -0.01155221    0.01089866
     atom    3 type  1   force =    -0.00374321   -0.03045738   -0.02416675

     Total force =     0.061075     Total SCF correction =     0.000432

     Entering Dynamics:    iteration =     8
                           time      =   0.0039 pico-seconds


     Andersen thermostat:    3 collisions

ATOMIC_POSITIONS (angstrom)
O        0.009709663  -0.005575218   0.121043388
H       -0.056916359   0.788940497  -0.467806699
H       -0.096900086  -0.700620217  -0.514507305


     kinetic energy (Ekin) =     0.04586735 Ry
     temperature           =  2413.95770674 K 
     Ekin + Etot (const)   =   -33.69690034 Ry
     Message from routine dynamics:
     Total linear momentum <> 0

     Linear momentum :    0.7074862480   -0.1759687136   -0.1451020254

     Writing output data file pwscf.save

     second order wave-functions extrapolation
     Check: negative starting charge=   -0.071168
     second order charge density extrapolation
     Check: negative starting charge=   -0.071198

     negative rho (up, down):  3.303E-03 0.000E+00

     total cpu time spent up to now is       13.0 secs

     per-process dynamical memory:    32.7 Mb

     Self-consistent Calculation

     iteration #  1     ecut=    60.00 Ry     beta=0.70
     Davidson diagonalization with overlap
     c_bands:  1 eigenvalues not converged
     ethr =  1.00E-06,  avg # of iterations = 20.0

     negative rho (up, down):  8.040E-04 0.000E+00

     total cpu time spent up to now is       13.2 secs

     total energy              =     -33.73595730 Ry
     Harris-Foulkes estimate   =     -33.73428324 Ry
     estimated scf accuracy    <       0.00049076 Ry

     iteration #  2     ecut=    60.00 Ry     beta=0.70
     Davidson diagonalization with overlap
     ethr =  6.13E-06,  avg # of iterations = 16.0

     negative rho (up, down):  4.173E-04 0.000E+00

     total cpu time spent up to now is       13.3 secs

     total energy              =     -33.73604659 Ry
     Harris-Foulkes estimate   =     -33.73617656 Ry
     estimated scf accuracy    <       0.00028138 Ry

     iteration #  3     ecut=    60.00 Ry     beta=0.70
     Davidson diagonalization with overlap
     ethr =  3.52E-06,  avg # of iterations =  2.0

     negative rho (up, down):  2.417E-05 0.000E+00

     total cpu time spent up to now is       13.4 secs

     total energy              =     -33.73611394 Ry
     Harris-Foulkes estimate   =     -33.73612097 Ry
     estimated scf accuracy    <       0.00001589 Ry

     iteration #  4     ecut=    60.00 Ry     beta=0.70
     Davidson diagonalization with overlap
     ethr =  1.99E-07,  avg # of iterations =  5.0

     negative rho (up, down):  1.828E-07 0.000E+00

     total cpu time spent up to now is       13.5 secs

     total energy              =     -33.73611739 Ry
     Harris-Foulkes estimate   =     -33.73611723 Ry
     estimated scf accuracy    <       0.00000016 Ry

     iteration #  5     ecut=    60.00 Ry     beta=0.70
     Davidson diagonalization with overlap
     ethr =  2.01E-09,  avg # of iterations =  2.0

     total cpu time spent up to now is       13.6 secs

     total energy              =     -33.74019498 Ry
     Harris-Foulkes estimate   =     -33.74019493 Ry
     estimated scf accuracy    <       0.00000001 Ry

     iteration #  6     ecut=    60.00 Ry     beta=0.70
     Davidson diagonalization with overlap
     ethr =  1.32E-10,  avg # of iterations =  2.0

     total cpu time spent up to now is       13.7 secs

     End of self-consistent calculation

          k = 0.0000 0.0000 0.0000 ( 62669 PWs)   bands (ev):

   -25.5428 -12.7298  -9.3850  -7.0752  -0.9256   0.4132   0.8048   1.1068

     the Fermi energy is    -5.2154 ev

!    total energy              =     -33.74019501 Ry
     Harris-Foulkes estimate   =     -33.74019499 Ry
     estimated scf accuracy    <          9.2E-10 Ry

     convergence has been achieved in   6 iterations

     Forces acting on atoms (Ry/au):

     atom    1 type  2   force =     0.00820427    0.05955096    0.04380928
     atom    2 type  1   force =     0.00066054    0.00764057    0.00527321
     atom    3 type  1   force =    -0.00886481   -0.06719153   -0.04908249

     Total force =     0.112347     Total SCF correction =     0.000197

     Entering Dynamics:    iteration =     9
                           time      =   0.0044 pico-seconds


     Andersen thermostat:    3 collisions

ATOMIC_POSITIONS (angstrom)
O        0.009737824  -0.005244017   0.122242089
H       -0.034613512   0.778559407  -0.450094327
H       -0.119649050  -0.695485871  -0.551208997


     kinetic energy (Ekin) =     0.05211689 Ry
     temperature           =  2742.86567930 K 
     Ekin + Etot (const)   =   -33.68807811 Ry
     Message from routine dynamics:
     Total linear momentum <> 0

     Linear momentum :   -0.5142035820    0.4445513252    0.3468241923

     Writing output data file pwscf.save

     second order wave-functions extrapolation
     Check: negative starting charge=   -0.071198
     second order charge density extrapolation
     Check: negative starting charge=   -0.071237

     negative rho (up, down):  2.154E-03 0.000E+00

     total cpu time spent up to now is       14.3 secs

     per-process dynamical memory:    32.7 Mb

     Self-consistent Calculation

     iteration #  1     ecut=    60.00 Ry     beta=0.70
     Davidson diagonalization with overlap
     c_bands:  1 eigenvalues not converged
     ethr =  1.00E-06,  avg # of iterations = 20.0

     negative rho (up, down):  5.096E-04 0.000E+00

     total cpu time spent up to now is       14.5 secs

     total energy              =     -33.73764267 Ry
     Harris-Foulkes estimate   =     -33.73697848 Ry
     estimated scf accuracy    <       0.00025662 Ry

     iteration #  2     ecut=    60.00 Ry     beta=0.70
     Davidson diagonalization with overlap
     ethr =  3.21E-06,  avg # of iterations =  7.0

     negative rho (up, down):  5.487E-05 0.000E+00

     total cpu time spent up to now is       14.6 secs

     total energy              =     -33.73766372 Ry
     Harris-Foulkes estimate   =     -33.73766591 Ry
     estimated scf accuracy    <       0.00002239 Ry

     iteration #  3     ecut=    60.00 Ry     beta=0.70
     Davidson diagonalization with overlap
     c_bands:  1 eigenvalues not converged
     ethr =  2.80E-07,  avg # of iterations = 20.0

     negative rho (up, down):  3.760E-06 0.000E+00

     total cpu time spent up to now is       14.8 secs

     total energy              =     -33.73766592 Ry
     Harris-Foulkes estimate   =     -33.73766931 Ry
     estimated scf accuracy    <       0.00000684 Ry

     iteration #  4     ecut=    60.00 Ry     beta=0.70
     Davidson diagonalization with overlap
     ethr =  8.55E-08,  avg # of iterations =  2.0

     negative rho (up, down):  1.820E-08 0.000E+00

     total cpu time spent up to now is       14.8 secs

     total energy              =     -33.74174527 Ry
     Harris-Foulkes estimate   =     -33.74174547 Ry
     estimated scf accuracy    <       0.00000068 Ry

     iteration #  5     ecut=    60.00 Ry     beta=0.70
     Davidson diagonalization with overlap
     ethr =  8.48E-09,  avg # of iterations =  2.0

     total cpu time spent up to now is       14.9 secs

     End of self-consistent calculation

          k = 0.0000 0.0000 0.0000 ( 62669 PWs)   bands (ev):

   -25.5266 -12.6346  -9.4504  -7.0756  -0.9317   0.4126   0.8024   1.1062

     the Fermi energy is    -5.2118 ev

!    total energy              =     -33.74174547 Ry
     Harris-Foulkes estimate   =     -33.74174541 Ry
     estimated scf accuracy    <          4.5E-09 Ry

     convergence has been achieved in   5 iterations

     Forces acting on atoms (Ry/au):

     atom    1 type  2   force =     0.00417543   -0.00446418    0.02649882
     atom    2 type  1   force =    -0.00009887    0.03832365   -0.01165999
     atom    3 type  1   force =    -0.00407656   -0.03385947   -0.01483882

     Total force =     0.061053     Total SCF correction =     0.000515

     Entering Dynamics:    iteration =    10
                           time      =   0.0048 pico-seconds


     Andersen thermostat:    3 collisions

ATOMIC_POSITIONS (angstrom)
O        0.010260752  -0.006009696   0.121113409
H       -0.012269793   0.813554422  -0.452620681
H       -0.150276780  -0.718351324  -0.530802578


     kinetic energy (Ekin) =     0.06012195 Ry
     temperature           =  3164.16456874 K 
     Ekin + Etot (const)   =   -33.68162352 Ry
     Message from routine dynamics:
     Total linear momentum <> 0

     Linear momentum :   -0.2795595481   -0.1059488859    0.2826361259

     Writing output data file pwscf.save

     second order wave-functions extrapolation
     Check: negative starting charge=   -0.071237
     second order charge density extrapolation
     Check: negative starting charge=   -0.071167

     negative rho (up, down):  3.242E-03 0.000E+00

     total cpu time spent up to now is       15.5 secs

     per-process dynamical memory:    32.7 Mb

     Self-consistent Calculation

     iteration #  1     ecut=    60.00 Ry     beta=0.70
     Davidson diagonalization with overlap
     c_bands:  1 eigenvalues not converged
     ethr =  1.00E-06,  avg # of iterations = 20.0

     negative rho (up, down):  7.928E-04 0.000E+00

     total cpu time spent up to now is       15.7 secs

     total energy              =     -33.73924713 Ry
     Harris-Foulkes estimate   =     -33.73742675 Ry
     estimated scf accuracy    <       0.00040233 Ry

     iteration #  2     ecut=    60.00 Ry     beta=0.70
     Davidson diagonalization with overlap
     ethr =  5.03E-06,  avg # of iterations =  7.0

     negative rho (up, down):  2.985E-04 0.000E+00

     total cpu time spent up to now is       15.9 secs

     total energy              =     -33.73929862 Ry
     Harris-Foulkes estimate   =     -33.73933546 Ry
     estimated scf accuracy    <       0.00010213 Ry

     iteration #  3     ecut=    60.00 Ry     beta=0.70
     Davidson diagonalization with overlap
     ethr =  1.28E-06,  avg # of iterations =  9.0

     negative rho (up, down):  1.575E-05 0.000E+00

     total cpu time spent up to now is       16.0 secs

     total energy              =     -33.73931990 Ry
     Harris-Foulkes estimate   =     -33.73933917 Ry
     estimated scf accuracy    <       0.00003507 Ry

     iteration #  4     ecut=    60.00 Ry     beta=0.70
     Davidson diagonalization with overlap
     ethr =  4.38E-07,  avg # of iterations =  3.0

     negative rho (up, down):  5.027E-08 0.000E+00

     total cpu time spent up to now is       16.0 secs

     total energy              =     -33.74340423 Ry
     Harris-Foulkes estimate   =     -33.74340461 Ry
     estimated scf accuracy    <       0.00000044 Ry

     iteration #  5     ecut=    60.00 Ry     beta=0.70
     Davidson diagonalization with overlap
     ethr =  5.52E-09,  avg # of iterations =  2.0

     total cpu time spent up to now is       16.1 secs

     total energy              =     -33.74340426 Ry
     Harris-Foulkes estimate   =     -33.74340437 Ry
     estimated scf accuracy    <       0.00000001 Ry

     iteration #  6     ecut=    60.00 Ry     beta=0.70
     Davidson diagonalization with overlap
     ethr =  1.51E-10,  avg # of iterations =  2.0

     total cpu time spent up to now is       16.2 secs

     End of self-consistent calculation

          k = 0.0000 0.0000 0.0000 ( 62669 PWs)   bands (ev):

   -25.2846 -12.6318  -9.2689  -7.0294  -0.9746   0.3996   0.7589   1.1055

     the Fermi energy is    -5.1519 ev

!    total energy              =     -33.74340427 Ry
     Harris-Foulkes estimate   =     -33.74340427 Ry
     estimated scf accuracy    <          4.7E-10 Ry

     convergence has been achieved in   6 iterations

     Forces acting on atoms (Ry/au):

     atom    1 type  2   force =     0.00362453    0.02631718    0.00547591
     atom    2 type  1   force =     0.00024720   -0.00965597    0.00826255
     atom    3 type  1   force =    -0.00387173   -0.01666121   -0.01373846

     Total force =     0.037130     Total SCF correction =     0.000067

     Entering Dynamics:    iteration =    11
                           time      =   0.0053 pico-seconds


     Andersen thermostat:    3 collisions

ATOMIC_POSITIONS (angstrom)
O        0.012444240  -0.007813345   0.120179755
H       -0.036027659   0.845004854  -0.442910039
H       -0.161108819  -0.721229093  -0.525722655


     kinetic energy (Ekin) =     0.04166836 Ry
     temperature           =  2192.96881062 K 
     Ekin + Etot (const)   =   -33.70173591 Ry
     Message from routine dynamics:
     Total linear momentum <> 0

     Linear momentum :    0.4323612374   -0.3498623888    0.6878926438

     Writing output data file pwscf.save

     second order wave-functions extrapolation
     Check: negative starting charge=   -0.071167
     second order charge density extrapolation
     Check: negative starting charge=   -0.071096

     negative rho (up, down):  2.687E-03 0.000E+00

     total cpu time spent up to now is       16.8 secs

     per-process dynamical memory:    32.7 Mb

     Self-consistent Calculation

     iteration #  1     ecut=    60.00 Ry     beta=0.70
     Davidson diagonalization with overlap
     ethr =  1.00E-06,  avg # of iterations = 11.0

     negative rho (up, down):  6.514E-04 0.000E+00

     total cpu time spent up to now is       17.1 secs

     total energy              =     -33.73795266 Ry
     Harris-Foulkes estimate   =     -33.73674487 Ry
     estimated scf accuracy    <       0.00014164 Ry

     iteration #  2     ecut=    60.00 Ry     beta=0.70
     Davidson diagonalization with overlap
     ethr =  1.77E-06,  avg # of iterations = 15.0

     negative rho (up, down):  2.990E-04 0.000E+00

     total cpu time spent up to now is       17.2 secs

     total energy              =     -33.73797390 Ry
     Harris-Foulkes estimate   =     -33.73799744 Ry
     estimated scf accuracy    <       0.00006022 Ry

     iteration #  3     ecut=    60.00 Ry     beta=0.70
     Davidson diagonalization with overlap
     ethr =  7.53E-07,  avg # of iterations =  2.0

     negative rho (up, down):  2.381E-06 0.000E+00

     total cpu time spent up to now is       17.3 secs

     total energy              =     -33.73798499 Ry
     Harris-Foulkes estimate   =     -33.73799351 Ry
     estimated scf accuracy    <       0.00001034 Ry

     iteration #  4     ecut=    60.00 Ry     beta=0.70
     Davidson diagonalization with overlap
     ethr =  1.29E-07,  avg # of iterations =  3.0

     total cpu time spent up to now is       17.4 secs

     total energy              =     -33.74206452 Ry
     Harris-Foulkes estimate   =     -33.74206461 Ry
     estimated scf accuracy    <       0.00000006 Ry

     iteration #  5     ecut=    60.00 Ry     beta=0.70
     Davidson diagonalization with overlap
     ethr =  6.90E-10,  avg # of iterations =  2.0

     total cpu time spent up to now is       17.4 secs

     End of self-consistent calculation

          k = 0.0000 0.0000 0.0000 ( 62669 PWs)   bands (ev):

   -25.1562 -12.6097  -9.1766  -7.0031  -1.0098   0.3866   0.7322   1.1017

     the Fermi energy is    -5.1227 ev

!    total energy              =     -33.74206442 Ry
     Harris-Foulkes estimate   =     -33.74206455 Ry
     estimated scf accuracy    <          3.5E-09 Ry

     convergence has been achieved in   5 iterations

     Forces acting on atoms (Ry/au):

     atom    1 type  2   force =     0.00318946    0.05280176   -0.00273787
     atom    2 type  1   force =     0.00131435   -0.03948518    0.02097681
     atom    3 type  1   force =    -0.00450381   -0.01331658   -0.01823895

     Total force =     0.073053     Total SCF correction =     0.000311

     Entering Dynamics:    iteration =    12
                           time      =   0.0058 pico-seconds


     Andersen thermostat:    3 collisions

ATOMIC_POSITIONS (angstrom)
O        0.013388589  -0.011502417   0.119046590
H       -0.075154013   0.870222577  -0.451935477
H       -0.136942451  -0.688006071  -0.498746080


     kinetic energy (Ekin) =     0.08567867 Ry
     temperature           =  4509.19176555 K 
     Ekin + Etot (const)   =   -33.65638576 Ry
     Message from routine dynamics:
     Total linear momentum <> 0

     Linear momentum :    0.0925581774   -0.1014894771    0.4356956473

     Writing output data file pwscf.save

     second order wave-functions extrapolation
     Check: negative starting charge=   -0.071096
     second order charge density extrapolation
     Check: negative starting charge=   -0.070990

     negative rho (up, down):  3.248E-03 0.000E+00

     total cpu time spent up to now is       18.0 secs

     per-process dynamical memory:    32.7 Mb

     Self-consistent Calculation

     iteration #  1     ecut=    60.00 Ry     beta=0.70
     Davidson diagonalization with overlap
     ethr =  1.00E-06,  avg # of iterations = 13.0

     negative rho (up, down):  7.860E-04 0.000E+00

     total cpu time spent up to now is       18.2 secs

     total energy              =     -33.72731563 Ry
     Harris-Foulkes estimate   =     -33.72600051 Ry
     estimated scf accuracy    <       0.00108022 Ry

     iteration #  2     ecut=    60.00 Ry     beta=0.70
     Davidson diagonalization with overlap
     ethr =  1.35E-05,  avg # of iterations =  6.0

     negative rho (up, down):  3.974E-04 0.000E+00

     total cpu time spent up to now is       18.3 secs

     total energy              =     -33.72745575 Ry
     Harris-Foulkes estimate   =     -33.72774648 Ry
     estimated scf accuracy    <       0.00058288 Ry

     iteration #  3     ecut=    60.00 Ry     beta=0.70
     Davidson diagonalization with overlap
     ethr =  7.29E-06,  avg # of iterations =  4.0

     negative rho (up, down):  2.704E-05 0.000E+00

     total cpu time spent up to now is       18.4 secs

     total energy              =     -33.72759633 Ry
     Harris-Foulkes estimate   =     -33.72761859 Ry
     estimated scf accuracy    <       0.00004653 Ry

     iteration #  4     ecut=    60.00 Ry     beta=0.70
     Davidson diagonalization with overlap
     ethr =  5.82E-07,  avg # of iterations = 10.0

     negative rho (up, down):  9.499E-07 0.000E+00

     total cpu time spent up to now is       18.5 secs

     total energy              =     -33.72760441 Ry
     Harris-Foulkes estimate   =     -33.72760532 Ry
     estimated scf accuracy    <       0.00000038 Ry

     iteration #  5     ecut=    60.00 Ry     beta=0.70
     Davidson diagonalization with overlap
     ethr =  4.70E-09,  avg # of iterations =  2.0

     total cpu time spent up to now is       18.6 secs

     total energy              =     -33.73168169 Ry
     Harris-Foulkes estimate   =     -33.73168205 Ry
     estimated scf accuracy    <       0.00000002 Ry

     iteration #  6     ecut=    60.00 Ry     beta=0.70
     Davidson diagonalization with overlap
     ethr =  2.79E-10,  avg # of iterations =  2.0

     total cpu time spent up to now is       18.6 secs

     End of self-consistent calculation

          k = 0.0000 0.0000 0.0000 ( 62669 PWs)   bands (ev):

   -25.3230 -12.6890  -9.1917  -7.0230  -1.0218   0.3651   0.7618   1.1039

     the Fermi energy is    -5.1627 ev

!    total energy              =     -33.73168151 Ry
     Harris-Foulkes estimate   =     -33.73168169 Ry
     estimated scf accuracy    <          1.0E-09 Ry

     convergence has been achieved in   6 iterations

     Forces acting on atoms (Ry/au):

     atom    1 type  2   force =     0.01485578    0.15959297    0.04624261
     atom    2 type  1   force =     0.00623784   -0.06973738    0.04105433
     atom    3 type  1   force =    -0.02109362   -0.08985559   -0.08729695

     Total force =     0.224847     Total SCF correction =     0.000366

     Entering Dynamics:    iteration =    13
                           time      =   0.0063 pico-seconds


     Andersen thermostat:    3 collisions

ATOMIC_POSITIONS (angstrom)
O        0.014508195  -0.008872296   0.118235559
H       -0.065809851   0.873459524  -0.440109733
H       -0.164022946  -0.732908307  -0.497723808


     kinetic energy (Ekin) =     0.05003631 Ry
     temperature           =  2633.36611209 K 
     Ekin + Etot (const)   =   -33.68164521 Ry
     Message from routine dynamics:
     Total linear momentum <> 0

     Linear momentum :    0.0152856839   -0.2740319679    0.4360418128

     Writing output data file pwscf.save

     second order wave-functions extrapolation
     Check: negative starting charge=   -0.070990
     second order charge density extrapolation
     Check: negative starting charge=   -0.070968

     negative rho (up, down):  1.782E-03 0.000E+00

     total cpu time spent up to now is       19.3 secs

     per-process dynamical memory:    32.7 Mb

     Self-consistent Calculation

     iteration #  1     ecut=    60.00 Ry     beta=0.70
     Davidson diagonalization with overlap
     c_bands:  1 eigenvalues not converged
     ethr =  1.00E-06,  avg # of iterations = 20.0

     negative rho (up, down):  4.190E-04 0.000E+00

     total cpu time spent up to now is       19.5 secs

     total energy              =     -33.73394336 Ry
     Harris-Foulkes estimate   =     -33.73355147 Ry
     estimated scf accuracy    <       0.00005039 Ry

     iteration #  2     ecut=    60.00 Ry     beta=0.70
     Davidson diagonalization with overlap
     c_bands:  1 eigenvalues not converged
     ethr =  6.30E-07,  avg # of iterations = 20.0

     negative rho (up, down):  1.233E-04 0.000E+00

     total cpu time spent up to now is       19.7 secs

     total energy              =     -33.73394519 Ry
     Harris-Foulkes estimate   =     -33.73395251 Ry
     estimated scf accuracy    <       0.00001281 Ry

     iteration #  3     ecut=    60.00 Ry     beta=0.70
     Davidson diagonalization with overlap
     ethr =  1.60E-07,  avg # of iterations =  5.0

     negative rho (up, down):  2.169E-07 0.000E+00

     total cpu time spent up to now is       19.7 secs

     total energy              =     -33.73802346 Ry
     Harris-Foulkes estimate   =     -33.73802815 Ry
     estimated scf accuracy    <       0.00000618 Ry

     iteration #  4     ecut=    60.00 Ry     beta=0.70
     Davidson diagonalization with overlap
     ethr =  7.73E-08,  avg # of iterations =  2.0

     total cpu time spent up to now is       19.8 secs

     total energy              =     -33.73802459 Ry
     Harris-Foulkes estimate   =     -33.73802466 Ry
     estimated scf accuracy    <       0.00000002 Ry

     iteration #  5     ecut=    60.00 Ry     beta=0.70
     Davidson diagonalization with overlap
     ethr =  2.76E-10,  avg # of iterations =  3.0

     total cpu time spent up to now is       19.9 secs

     End of self-consistent calculation

          k = 0.0000 0.0000 0.0000 ( 62669 PWs)   bands (ev):

   -25.0724 -12.6614  -9.0452  -6.9803  -1.0443   0.3691   0.7157   1.1044

     the Fermi energy is    -5.0996 ev

!    total energy              =     -33.73802449 Ry
     Harris-Foulkes estimate   =     -33.73802461 Ry
     estimated scf accuracy    <          1.9E-09 Ry

     convergence has been achieved in   5 iterations

     Forces acting on atoms (Ry/au):

     atom    1 type  2   force =     0.00559480    0.09115608    0.00424930
     atom    2 type  1   force =     0.00345287   -0.06952698    0.03061593
     atom    3 type  1   force =    -0.00904766   -0.02162910   -0.03486522

     Total force =     0.126124     Total SCF correction =     0.000162

     Entering Dynamics:    iteration =    14
                           time      =   0.0068 pico-seconds


     Andersen thermostat:    3 collisions

ATOMIC_POSITIONS (angstrom)
O        0.010241780  -0.007989158   0.118028521
H       -0.029774663   0.877148422  -0.441139666
H       -0.132471363  -0.750587507  -0.493414075


     kinetic energy (Ekin) =     0.05470467 Ry
     temperature           =  2879.05811772 K 
     Ekin + Etot (const)   =   -33.68331982 Ry
     Message from routine dynamics:
     Total linear momentum <> 0

     Linear momentum :   -0.0011041586   -0.3610396423   -0.6086403521

     Writing output data file pwscf.save

     second order wave-functions extrapolation
     Check: negative starting charge=   -0.070968
     second order charge density extrapolation
     Check: negative starting charge=   -0.070936

     negative rho (up, down):  4.085E-03 0.000E+00

     total cpu time spent up to now is       20.5 secs

     per-process dynamical memory:    32.7 Mb

     Self-consistent Calculation

     iteration #  1     ecut=    60.00 Ry     beta=0.70
     Davidson diagonalization with overlap
     c_bands:  1 eigenvalues not converged
     ethr =  1.00E-06,  avg # of iterations = 20.0

     negative rho (up, down):  1.010E-03 0.000E+00

     total cpu time spent up to now is       21.6 secs

     total energy              =     -33.73336902 Ry
     Harris-Foulkes estimate   =     -33.73036798 Ry
     estimated scf accuracy    <       0.00017564 Ry

     iteration #  2     ecut=    60.00 Ry     beta=0.70
     Davidson diagonalization with overlap
     ethr =  2.20E-06,  avg # of iterations = 15.0

     negative rho (up, down):  5.297E-05 0.000E+00

     total cpu time spent up to now is       21.8 secs

     total energy              =     -33.73343992 Ry
     Harris-Foulkes estimate   =     -33.73338702 Ry
     estimated scf accuracy    <       0.00001473 Ry

     iteration #  3     ecut=    60.00 Ry     beta=0.70
     Davidson diagonalization with overlap
     ethr =  1.84E-07,  avg # of iterations =  5.0

     negative rho (up, down):  3.305E-06 0.000E+00

     total cpu time spent up to now is       21.9 secs

     total energy              =     -33.73751768 Ry
     Harris-Foulkes estimate   =     -33.73752091 Ry
     estimated scf accuracy    <       0.00000207 Ry

     iteration #  4     ecut=    60.00 Ry     beta=0.70
     Davidson diagonalization with overlap
     ethr =  2.58E-08,  avg # of iterations =  2.0

     total cpu time spent up to now is       21.9 secs

     total energy              =     -33.73751798 Ry
     Harris-Foulkes estimate   =     -33.73751845 Ry
     estimated scf accuracy    <       0.00000045 Ry

     iteration #  5     ecut=    60.00 Ry     beta=0.70
     Davidson diagonalization with overlap
     ethr =  5.65E-09,  avg # of iterations =  2.0

     total cpu time spent up to now is       22.0 secs

     End of self-consistent calculation

          k = 0.0000 0.0000 0.0000 ( 62669 PWs)   bands (ev):

   -25.0159 -12.7075  -8.9611  -6.9673  -1.0523   0.3675   0.7047   1.1074

     the Fermi energy is    -5.0833 ev

!    total energy              =     -33.73751801 Ry
     Harris-Foulkes estimate   =     -33.73751808 Ry
     estimated scf accuracy    <          4.3E-09 Ry

     convergence has been achieved in   5 iterations

     Forces acting on atoms (Ry/au):

     atom    1 type  2   force =     0.00639124    0.08441794    0.00392890
     atom    2 type  1   force =    -0.00011383   -0.07349175    0.02772698
     atom    3 type  1   force =    -0.00627741   -0.01092619   -0.03165588

     Total force =     0.120472     Total SCF correction =     0.000106

     Entering Dynamics:    iteration =    15
                           time      =   0.0073 pico-seconds


     Andersen thermostat:    3 collisions

ATOMIC_POSITIONS (angstrom)
O        0.010821557  -0.008527452   0.116551180
H       -0.052536395   0.864389652  -0.425211795
H       -0.118894218  -0.729301302  -0.485938524


     kinetic energy (Ekin) =     0.04751245 Ry
     temperature           =  2500.53798742 K 
     Ekin + Etot (const)   =   -33.69000556 Ry
     Message from routine dynamics:
     Total linear momentum <> 0

     Linear momentum :    1.2499289919   -0.1132066384   -0.3479209607

     Writing output data file pwscf.save

     second order wave-functions extrapolation
     Check: negative starting charge=   -0.070936
     second order charge density extrapolation
     Check: negative starting charge=   -0.070998

     negative rho (up, down):  2.106E-03 0.000E+00

     total cpu time spent up to now is       22.6 secs

     per-process dynamical memory:    32.7 Mb

     Self-consistent Calculation

     iteration #  1     ecut=    60.00 Ry     beta=0.70
     Davidson diagonalization with overlap
     c_bands:  1 eigenvalues not converged
     ethr =  1.00E-06,  avg # of iterations = 20.0

     negative rho (up, down):  4.980E-04 0.000E+00

     total cpu time spent up to now is       22.9 secs

     total energy              =     -33.73331664 Ry
     Harris-Foulkes estimate   =     -33.73288647 Ry
     estimated scf accuracy    <       0.00038439 Ry

     iteration #  2     ecut=    60.00 Ry     beta=0.70
     Davidson diagonalization with overlap
     ethr =  4.80E-06,  avg # of iterations =  8.0

     negative rho (up, down):  2.833E-04 0.000E+00

     total cpu time spent up to now is       23.1 secs

     total energy              =     -33.73339655 Ry
     Harris-Foulkes estimate   =     -33.73357324 Ry
     estimated scf accuracy    <       0.00037265 Ry

     iteration #  3     ecut=    60.00 Ry     beta=0.70
     Davidson diagonalization with overlap
     ethr =  4.66E-06,  avg # of iterations =  2.0

     negative rho (up, down):  2.140E-06 0.000E+00

     total cpu time spent up to now is       23.1 secs

     total energy              =     -33.73347078 Ry
     Harris-Foulkes estimate   =     -33.73347470 Ry
     estimated scf accuracy    <       0.00000378 Ry

     iteration #  4     ecut=    60.00 Ry     beta=0.70
     Davidson diagonalization with overlap
     ethr =  4.72E-08,  avg # of iterations =  8.0

     negative rho (up, down):  1.219E-07 0.000E+00

     total cpu time spent up to now is       23.2 secs

     total energy              =     -33.73754925 Ry
     Harris-Foulkes estimate   =     -33.73754930 Ry
     estimated scf accuracy    <       0.00000008 Ry

     iteration #  5     ecut=    60.00 Ry     beta=0.70
     Davidson diagonalization with overlap
     ethr =  1.06E-09,  avg # of iterations =  2.0

     total cpu time spent up to now is       23.3 secs

     End of self-consistent calculation

          k = 0.0000 0.0000 0.0000 ( 62669 PWs)   bands (ev):

   -25.2387 -12.8941  -8.9983  -7.0072  -0.9838   0.3896   0.7518   1.1218

     the Fermi energy is    -5.1281 ev

!    total energy              =     -33.73754935 Ry
     Harris-Foulkes estimate   =     -33.73754927 Ry
     estimated scf accuracy    <          4.8E-09 Ry

     convergence has been achieved in   5 iterations

     Forces acting on atoms (Ry/au):

     atom    1 type  2   force =     0.01152830    0.10293676    0.04216183
     atom    2 type  1   force =     0.00093798   -0.05522986    0.01798490
     atom    3 type  1   force =    -0.01246628   -0.04770690   -0.06014673

     Total force =     0.148088     Total SCF correction =     0.001228

     Entering Dynamics:    iteration =    16
                           time      =   0.0077 pico-seconds


     Andersen thermostat:    3 collisions

ATOMIC_POSITIONS (angstrom)
O        0.012307192  -0.008734067   0.114984569
H       -0.088883399   0.880879232  -0.420754590
H       -0.106082011  -0.742517772  -0.465578122


     kinetic energy (Ekin) =     0.04384313 Ry
     temperature           =  2307.42500827 K 
     Ekin + Etot (const)   =   -33.69370622 Ry
     Message from routine dynamics:
     Total linear momentum <> 0

     Linear momentum :    0.3886441273    0.0520847052   -0.0984122384

     Writing output data file pwscf.save

     second order wave-functions extrapolation
     Check: negative starting charge=   -0.070998
     second order charge density extrapolation
     Check: negative starting charge=   -0.070915

     negative rho (up, down):  1.797E-03 0.000E+00

     total cpu time spent up to now is       23.9 secs

     per-process dynamical memory:    32.7 Mb

     Self-consistent Calculation

     iteration #  1     ecut=    60.00 Ry     beta=0.70
     Davidson diagonalization with overlap
     c_bands:  1 eigenvalues not converged
     ethr =  1.00E-06,  avg # of iterations = 20.0

     negative rho (up, down):  4.205E-04 0.000E+00

     total cpu time spent up to now is       24.1 secs

     total energy              =     -33.72966467 Ry
     Harris-Foulkes estimate   =     -33.72940518 Ry
     estimated scf accuracy    <       0.00039289 Ry

     iteration #  2     ecut=    60.00 Ry     beta=0.70
     Davidson diagonalization with overlap
     ethr =  4.91E-06,  avg # of iterations =  6.0

     negative rho (up, down):  2.057E-04 0.000E+00

     total cpu time spent up to now is       24.2 secs

     total energy              =     -33.73378767 Ry
     Harris-Foulkes estimate   =     -33.73389997 Ry
     estimated scf accuracy    <       0.00021331 Ry

     iteration #  3     ecut=    60.00 Ry     beta=0.70
     Davidson diagonalization with overlap
     ethr =  2.67E-06,  avg # of iterations =  2.0

     negative rho (up, down):  6.214E-06 0.000E+00

     total cpu time spent up to now is       24.3 secs

     total energy              =     -33.72976073 Ry
     Harris-Foulkes estimate   =     -33.72976987 Ry
     estimated scf accuracy    <       0.00001751 Ry

     iteration #  4     ecut=    60.00 Ry     beta=0.70
     Davidson diagonalization with overlap
     ethr =  2.19E-07,  avg # of iterations = 11.0

     negative rho (up, down):  1.035E-08 0.000E+00

     total cpu time spent up to now is       24.4 secs

     total energy              =     -33.73384111 Ry
     Harris-Foulkes estimate   =     -33.73384145 Ry
     estimated scf accuracy    <       0.00000016 Ry

     iteration #  5     ecut=    60.00 Ry     beta=0.70
     Davidson diagonalization with overlap
     ethr =  1.99E-09,  avg # of iterations =  2.0

     total cpu time spent up to now is       24.5 secs

     End of self-consistent calculation

          k = 0.0000 0.0000 0.0000 ( 62669 PWs)   bands (ev):

   -25.1801 -12.9424  -8.8926  -6.9902  -1.0090   0.3758   0.7408   1.1044

     the Fermi energy is    -5.1266 ev

!    total energy              =     -33.73384105 Ry
     Harris-Foulkes estimate   =     -33.73384116 Ry
     estimated scf accuracy    <          7.5E-09 Ry

     convergence has been achieved in   5 iterations

     Forces acting on atoms (Ry/au):

     atom    1 type  2   force =     0.01011406    0.12765459    0.04740485
     atom    2 type  1   force =     0.00403494   -0.07410010    0.02230505
     atom    3 type  1   force =    -0.01414900   -0.05355449   -0.06970990

     Total force =     0.180493     Total SCF correction =     0.000444

     Entering Dynamics:    iteration =    17
                           time      =   0.0082 pico-seconds


     Andersen thermostat:    3 collisions

ATOMIC_POSITIONS (angstrom)
O        0.011093408  -0.009028235   0.116635436
H       -0.103669025   0.885827516  -0.414577613
H       -0.072068138  -0.742805976  -0.497907455


     kinetic energy (Ekin) =     0.05064864 Ry
     temperature           =  2665.59285145 K 
     Ekin + Etot (const)   =   -33.68319241 Ry
     Message from routine dynamics:
     Total linear momentum <> 0

     Linear momentum :    0.7663200516   -0.2976110138    0.3759603629

     Writing output data file pwscf.save

     second order wave-functions extrapolation
     Check: negative starting charge=   -0.070915
     second order charge density extrapolation
     Check: negative starting charge=   -0.070915

     negative rho (up, down):  2.977E-03 0.000E+00

     total cpu time spent up to now is       25.1 secs

     per-process dynamical memory:    32.7 Mb

     Self-consistent Calculation

     iteration #  1     ecut=    60.00 Ry     beta=0.70
     Davidson diagonalization with overlap
     ethr =  1.00E-06,  avg # of iterations = 13.0

     negative rho (up, down):  7.267E-04 0.000E+00

     total cpu time spent up to now is       25.3 secs

     total energy              =     -33.73180557 Ry
     Harris-Foulkes estimate   =     -33.73070274 Ry
     estimated scf accuracy    <       0.00090289 Ry

     iteration #  2     ecut=    60.00 Ry     beta=0.70
     Davidson diagonalization with overlap
     ethr =  1.13E-05,  avg # of iterations =  5.0

     negative rho (up, down):  4.209E-04 0.000E+00

     total cpu time spent up to now is       25.4 secs

     total energy              =     -33.73604270 Ry
     Harris-Foulkes estimate   =     -33.73643644 Ry
     estimated scf accuracy    <       0.00081987 Ry

     iteration #  3     ecut=    60.00 Ry     beta=0.70
     Davidson diagonalization with overlap
     ethr =  1.02E-05,  avg # of iterations =  2.0

     negative rho (up, down):  5.377E-06 0.000E+00

     total cpu time spent up to now is       25.5 secs

     total energy              =     -33.73213919 Ry
     Harris-Foulkes estimate   =     -33.73214396 Ry
     estimated scf accuracy    <       0.00001370 Ry

     iteration #  4     ecut=    60.00 Ry     beta=0.70
     Davidson diagonalization with overlap
     ethr =  1.71E-07,  avg # of iterations =  4.0

     negative rho (up, down):  9.535E-08 0.000E+00

     total cpu time spent up to now is       25.6 secs

     total energy              =     -33.73621949 Ry
     Harris-Foulkes estimate   =     -33.73621960 Ry
     estimated scf accuracy    <       0.00000017 Ry

     iteration #  5     ecut=    60.00 Ry     beta=0.70
     Davidson diagonalization with overlap
     ethr =  2.12E-09,  avg # of iterations =  2.0

     total cpu time spent up to now is       25.7 secs

     End of self-consistent calculation

          k = 0.0000 0.0000 0.0000 ( 62669 PWs)   bands (ev):

   -25.0737 -12.8023  -8.9258  -6.9745  -1.0366   0.3701   0.7187   1.1053

     the Fermi energy is    -5.0993 ev

!    total energy              =     -33.73621949 Ry
     Harris-Foulkes estimate   =     -33.73621952 Ry
     estimated scf accuracy    <          9.3E-09 Ry

     convergence has been achieved in   5 iterations

     Forces acting on atoms (Ry/au):

     atom    1 type  2   force =     0.00183259    0.10111564    0.02206489
     atom    2 type  1   force =     0.00584667   -0.07532189    0.02447505
     atom    3 type  1   force =    -0.00767926   -0.02579375   -0.04653994

     Total force =     0.141108     Total SCF correction =     0.001017

     Entering Dynamics:    iteration =    18
                           time      =   0.0087 pico-seconds


     Andersen thermostat:    3 collisions

ATOMIC_POSITIONS (angstrom)
O        0.007313583  -0.007090016   0.116479733
H       -0.076600836   0.864278922  -0.400298545
H       -0.039257898  -0.751961834  -0.509719938


     kinetic energy (Ekin) =     0.04975703 Ry
     temperature           =  2618.66794453 K 
     Ekin + Etot (const)   =   -33.68646247 Ry
     Message from routine dynamics:
     Total linear momentum <> 0

     Linear momentum :    0.2104050539    0.3171937073   -0.3456242386

     Writing output data file pwscf.save

     second order wave-functions extrapolation
     Check: negative starting charge=   -0.070915
     second order charge density extrapolation
     Check: negative starting charge=   -0.071003

     negative rho (up, down):  3.893E-03 0.000E+00

     total cpu time spent up to now is       26.3 secs

     per-process dynamical memory:    32.7 Mb

     Self-consistent Calculation

     iteration #  1     ecut=    60.00 Ry     beta=0.70
     Davidson diagonalization with overlap
     ethr =  1.00E-06,  avg # of iterations = 15.0

     negative rho (up, down):  9.614E-04 0.000E+00

     total cpu time spent up to now is       26.5 secs

     total energy              =     -33.73611350 Ry
     Harris-Foulkes estimate   =     -33.73364987 Ry
     estimated scf accuracy    <       0.00043477 Ry

     iteration #  2     ecut=    60.00 Ry     beta=0.70
     Davidson diagonalization with overlap
     ethr =  5.43E-06,  avg # of iterations = 15.0

     negative rho (up, down):  5.481E-04 0.000E+00

     total cpu time spent up to now is       26.6 secs

     total energy              =     -33.73621450 Ry
     Harris-Foulkes estimate   =     -33.73636274 Ry
     estimated scf accuracy    <       0.00035922 Ry

     iteration #  3     ecut=    60.00 Ry     beta=0.70
     Davidson diagonalization with overlap
     ethr =  4.49E-06,  avg # of iterations =  2.0

     negative rho (up, down):  1.157E-05 0.000E+00

     total cpu time spent up to now is       26.7 secs

     total energy              =     -33.73629305 Ry
     Harris-Foulkes estimate   =     -33.73629651 Ry
     estimated scf accuracy    <       0.00000895 Ry

     iteration #  4     ecut=    60.00 Ry     beta=0.70
     Davidson diagonalization with overlap
     ethr =  1.12E-07,  avg # of iterations =  7.0

     negative rho (up, down):  2.008E-07 0.000E+00

     total cpu time spent up to now is       26.8 secs

     total energy              =     -33.74037245 Ry
     Harris-Foulkes estimate   =     -33.74037270 Ry
     estimated scf accuracy    <       0.00000014 Ry

     iteration #  5     ecut=    60.00 Ry     beta=0.70
     Davidson diagonalization with overlap
     ethr =  1.80E-09,  avg # of iterations =  2.0

     total cpu time spent up to now is       26.9 secs

     End of self-consistent calculation

          k = 0.0000 0.0000 0.0000 ( 62669 PWs)   bands (ev):

   -25.1250 -12.8958  -8.9199  -6.9873  -0.9912   0.3941   0.7309   1.1142

     the Fermi energy is    -5.1054 ev

!    total energy              =     -33.74037233 Ry
     Harris-Foulkes estimate   =     -33.74037249 Ry
     estimated scf accuracy    <          6.3E-09 Ry

     convergence has been achieved in   5 iterations

     Forces acting on atoms (Ry/au):

     atom    1 type  2   force =     0.00341091    0.04957661    0.02538898
     atom    2 type  1   force =     0.00089546   -0.04425512    0.00496807
     atom    3 type  1   force =    -0.00430637   -0.00532148   -0.03035706

     Total force =     0.077888     Total SCF correction =     0.001307

     Entering Dynamics:    iteration =    19
                           time      =   0.0092 pico-seconds


     Andersen thermostat:    3 collisions

ATOMIC_POSITIONS (angstrom)
O        0.006894060  -0.005965457   0.116694466
H       -0.095200124   0.855444231  -0.403644258
H       -0.014012712  -0.760941934  -0.509775940


     kinetic energy (Ekin) =     0.02211294 Ry
     temperature           =  1163.78436099 K 
     Ekin + Etot (const)   =   -33.71825939 Ry
     Message from routine dynamics:
     Total linear momentum <> 0

     Linear momentum :    0.0881341507   -0.0591275946   -0.4905512400

     Writing output data file pwscf.save

     second order wave-functions extrapolation
     Message from extrapolate_wfcs: 
     the matrix <psi(t-dt)|psi(t)> has  1 small (< 0.1) eigenvalues
     Check: negative starting charge=   -0.071003
     second order charge density extrapolation
     Check: negative starting charge=   -0.071011

     negative rho (up, down):  1.572E-03 0.000E+00

     total cpu time spent up to now is       27.5 secs

     per-process dynamical memory:    32.7 Mb

     Self-consistent Calculation

     iteration #  1     ecut=    60.00 Ry     beta=0.70
     Davidson diagonalization with overlap
     ethr =  1.00E-06,  avg # of iterations = 13.0

     negative rho (up, down):  3.607E-04 0.000E+00

     total cpu time spent up to now is       27.6 secs

     total energy              =     -33.73687119 Ry
     Harris-Foulkes estimate   =     -33.73663785 Ry
     estimated scf accuracy    <       0.00006915 Ry

     iteration #  2     ecut=    60.00 Ry     beta=0.70
     Davidson diagonalization with overlap
     ethr =  8.64E-07,  avg # of iterations = 16.0

     negative rho (up, down):  1.593E-04 0.000E+00

     total cpu time spent up to now is       27.7 secs

     total energy              =     -33.73687723 Ry
     Harris-Foulkes estimate   =     -33.73689358 Ry
     estimated scf accuracy    <       0.00003241 Ry

     iteration #  3     ecut=    60.00 Ry     beta=0.70
     Davidson diagonalization with overlap
     ethr =  4.05E-07,  avg # of iterations =  2.0

     negative rho (up, down):  6.660E-08 0.000E+00

     total cpu time spent up to now is       27.8 secs

     total energy              =     -33.74096002 Ry
     Harris-Foulkes estimate   =     -33.74096458 Ry
     estimated scf accuracy    <       0.00000466 Ry

     iteration #  4     ecut=    60.00 Ry     beta=0.70
     Davidson diagonalization with overlap
     ethr =  5.82E-08,  avg # of iterations =  3.0

     total cpu time spent up to now is       27.9 secs

     total energy              =     -33.74096076 Ry
     Harris-Foulkes estimate   =     -33.74096087 Ry
     estimated scf accuracy    <       0.00000002 Ry

     iteration #  5     ecut=    60.00 Ry     beta=0.70
     Davidson diagonalization with overlap
     ethr =  2.86E-10,  avg # of iterations =  3.0

     total cpu time spent up to now is       28.0 secs

     End of self-consistent calculation

          k = 0.0000 0.0000 0.0000 ( 62669 PWs)   bands (ev):

   -25.1103 -12.8866  -8.9185  -6.9853  -0.9917   0.3951   0.7281   1.1130

     the Fermi energy is    -5.1027 ev

!    total energy              =     -33.74096081 Ry
     Harris-Foulkes estimate   =     -33.74096077 Ry
     estimated scf accuracy    <          1.5E-09 Ry

     convergence has been achieved in   5 iterations

     Forces acting on atoms (Ry/au):

     atom    1 type  2   force =     0.00197216    0.03506575    0.02071175
     atom    2 type  1   force =     0.00148323   -0.03862073    0.00168591
[...]
     Davidson diagonalization with overlap
     ethr =  5.85E-06,  avg # of iterations = 15.0

     negative rho (up, down):  4.987E-04 0.000E+00

     total cpu time spent up to now is     1320.6 secs

     total energy              =     -33.74142074 Ry
     Harris-Foulkes estimate   =     -33.74157367 Ry
     estimated scf accuracy    <       0.00033586 Ry

     iteration #  3     ecut=    60.00 Ry     beta=0.70
     Davidson diagonalization with overlap
     ethr =  4.20E-06,  avg # of iterations =  3.0

     negative rho (up, down):  1.779E-05 0.000E+00

     total cpu time spent up to now is     1320.7 secs

     total energy              =     -33.73741687 Ry
     Harris-Foulkes estimate   =     -33.73742397 Ry
     estimated scf accuracy    <       0.00001157 Ry

     iteration #  4     ecut=    60.00 Ry     beta=0.70
     Davidson diagonalization with overlap
     ethr =  1.45E-07,  avg # of iterations =  9.0

     negative rho (up, down):  7.046E-08 0.000E+00

     total cpu time spent up to now is     1320.8 secs

     total energy              =     -33.74149679 Ry
     Harris-Foulkes estimate   =     -33.74149685 Ry
     estimated scf accuracy    <       0.00000016 Ry

     iteration #  5     ecut=    60.00 Ry     beta=0.70
     Davidson diagonalization with overlap
     ethr =  2.04E-09,  avg # of iterations =  2.0

     total cpu time spent up to now is     1320.8 secs

     End of self-consistent calculation

          k = 0.0000 0.0000 0.0000 ( 62669 PWs)   bands (ev):

   -25.4640 -12.4289  -9.5565  -7.0688  -0.9640   0.4005   0.7701   1.1015

     the Fermi energy is    -5.1997 ev

!    total energy              =     -33.74149675 Ry
     Harris-Foulkes estimate   =     -33.74149684 Ry
     estimated scf accuracy    <          6.8E-09 Ry

     convergence has been achieved in   5 iterations

     Forces acting on atoms (Ry/au):

     atom    1 type  2   force =    -0.00780036    0.01446024   -0.00108935
     atom    2 type  1   force =    -0.00743036    0.02124341    0.00204725
     atom    3 type  1   force =     0.01523072   -0.03570365   -0.00095790

     Total force =     0.047848     Total SCF correction =     0.000958

     Entering Dynamics:    iteration =   996
                           time      =   0.4818 pico-seconds


     Andersen thermostat:    3 collisions

ATOMIC_POSITIONS (angstrom)
O        0.055244777   0.033598349   0.090794061
H       -0.822138530   0.358124184  -0.292768018
H       -0.053026250  -0.890375251  -0.210348725


     kinetic energy (Ekin) =     0.05119930 Ry
     temperature           =  2694.57339130 K 
     Ekin + Etot (const)   =   -33.69029745 Ry
     Message from routine dynamics:
     Total linear momentum <> 0

     Linear momentum :    0.3121539618   -0.1776778671   -0.0370320293

     Writing output data file pwscf.save

     second order wave-functions extrapolation
     Check: negative starting charge=   -0.071188
     second order charge density extrapolation
     Check: negative starting charge=   -0.071221

     negative rho (up, down):  1.375E-03 0.000E+00

     total cpu time spent up to now is     1321.5 secs

     per-process dynamical memory:    32.7 Mb

     Self-consistent Calculation

     iteration #  1     ecut=    60.00 Ry     beta=0.70
     Davidson diagonalization with overlap
     ethr =  1.00E-06,  avg # of iterations = 13.0

     negative rho (up, down):  3.135E-04 0.000E+00

     total cpu time spent up to now is     1321.7 secs

     total energy              =     -33.73627631 Ry
     Harris-Foulkes estimate   =     -33.73614805 Ry
     estimated scf accuracy    <       0.00002372 Ry

     iteration #  2     ecut=    60.00 Ry     beta=0.70
     Davidson diagonalization with overlap
     ethr =  2.96E-07,  avg # of iterations =  9.0

     negative rho (up, down):  8.550E-05 0.000E+00

     total cpu time spent up to now is     1321.8 secs

     total energy              =     -33.74035285 Ry
     Harris-Foulkes estimate   =     -33.74035874 Ry
     estimated scf accuracy    <       0.00000529 Ry

     iteration #  3     ecut=    60.00 Ry     beta=0.70
     Davidson diagonalization with overlap
     ethr =  6.61E-08,  avg # of iterations =  2.0

     negative rho (up, down):  1.560E-06 0.000E+00

     total cpu time spent up to now is     1321.9 secs

     total energy              =     -33.74035223 Ry
     Harris-Foulkes estimate   =     -33.74035511 Ry
     estimated scf accuracy    <       0.00000244 Ry

     iteration #  4     ecut=    60.00 Ry     beta=0.70
     Davidson diagonalization with overlap
     ethr =  3.05E-08,  avg # of iterations =  2.0

     total cpu time spent up to now is     1322.0 secs

     total energy              =     -33.74035277 Ry
     Harris-Foulkes estimate   =     -33.74035277 Ry
     estimated scf accuracy    <       0.00000003 Ry

     iteration #  5     ecut=    60.00 Ry     beta=0.70
     Davidson diagonalization with overlap
     ethr =  3.20E-10,  avg # of iterations =  2.0

     total cpu time spent up to now is     1322.0 secs

     End of self-consistent calculation

          k = 0.0000 0.0000 0.0000 ( 62669 PWs)   bands (ev):

   -25.3608 -12.2396  -9.6210  -7.0539  -1.0076   0.3847   0.7493   1.1002

     the Fermi energy is    -5.1749 ev

!    total energy              =     -33.74035276 Ry
     Harris-Foulkes estimate   =     -33.74035278 Ry
     estimated scf accuracy    <          8.5E-10 Ry

     convergence has been achieved in   5 iterations

     Forces acting on atoms (Ry/au):

     atom    1 type  2   force =    -0.03776961    0.02104677   -0.01512530
     atom    2 type  1   force =     0.02088127    0.01426240    0.01518699
     atom    3 type  1   force =     0.01688834   -0.03530917   -0.00006169

     Total force =     0.067085     Total SCF correction =     0.000278

     Entering Dynamics:    iteration =   997
                           time      =   0.4823 pico-seconds


     Andersen thermostat:    3 collisions

ATOMIC_POSITIONS (angstrom)
O        0.053037283   0.033724213   0.090119406
H       -0.793899372   0.359033609  -0.291829888
H       -0.046295208  -0.893278566  -0.200599252


     kinetic energy (Ekin) =     0.02256193 Ry
     temperature           =  1187.41400747 K 
     Ekin + Etot (const)   =   -33.71779084 Ry
     Message from routine dynamics:
     Total linear momentum <> 0

     Linear momentum :   -0.4574726933   -0.3197915144   -0.4654832489

     Writing output data file pwscf.save

     second order wave-functions extrapolation
     Check: negative starting charge=   -0.071221
     second order charge density extrapolation
     Check: negative starting charge=   -0.071212

     negative rho (up, down):  1.478E-03 0.000E+00

     total cpu time spent up to now is     1322.6 secs

     per-process dynamical memory:    32.7 Mb

     Self-consistent Calculation

     iteration #  1     ecut=    60.00 Ry     beta=0.70
     Davidson diagonalization with overlap
     ethr =  1.00E-06,  avg # of iterations =  7.0

     negative rho (up, down):  3.392E-04 0.000E+00

     total cpu time spent up to now is     1322.8 secs

     total energy              =     -33.73696382 Ry
     Harris-Foulkes estimate   =     -33.73693504 Ry
     estimated scf accuracy    <       0.00030344 Ry

     iteration #  2     ecut=    60.00 Ry     beta=0.70
     Davidson diagonalization with overlap
     ethr =  3.79E-06,  avg # of iterations =  4.0

     negative rho (up, down):  1.814E-04 0.000E+00

     total cpu time spent up to now is     1322.9 secs

     total energy              =     -33.73701693 Ry
     Harris-Foulkes estimate   =     -33.73713853 Ry
     estimated scf accuracy    <       0.00024795 Ry

     iteration #  3     ecut=    60.00 Ry     beta=0.70
     Davidson diagonalization with overlap
     ethr =  3.10E-06,  avg # of iterations =  2.0

     negative rho (up, down):  2.916E-06 0.000E+00

     total cpu time spent up to now is     1323.0 secs

     total energy              =     -33.73706818 Ry
     Harris-Foulkes estimate   =     -33.73707300 Ry
     estimated scf accuracy    <       0.00000506 Ry

     iteration #  4     ecut=    60.00 Ry     beta=0.70
     Davidson diagonalization with overlap
     ethr =  6.33E-08,  avg # of iterations =  3.0

     negative rho (up, down):  7.997E-08 0.000E+00

     total cpu time spent up to now is     1323.1 secs

     total energy              =     -33.74114625 Ry
     Harris-Foulkes estimate   =     -33.74114672 Ry
     estimated scf accuracy    <       0.00000007 Ry

     iteration #  5     ecut=    60.00 Ry     beta=0.70
     Davidson diagonalization with overlap
     ethr =  8.38E-10,  avg # of iterations =  2.0

     total cpu time spent up to now is     1323.1 secs

     End of self-consistent calculation

          k = 0.0000 0.0000 0.0000 ( 62669 PWs)   bands (ev):

   -25.4877 -12.4180  -9.5810  -7.0733  -0.9613   0.4013   0.7759   1.1015

     the Fermi energy is    -5.2056 ev

!    total energy              =     -33.74114628 Ry
     Harris-Foulkes estimate   =     -33.74114627 Ry
     estimated scf accuracy    <          4.9E-09 Ry

     convergence has been achieved in   5 iterations

     Forces acting on atoms (Ry/au):

     atom    1 type  2   force =    -0.00241621    0.01018525    0.00051654
     atom    2 type  1   force =    -0.01259318    0.02533709   -0.00004535
     atom    3 type  1   force =     0.01500940   -0.03552234   -0.00047120

     Total force =     0.048967     Total SCF correction =     0.000980

     Entering Dynamics:    iteration =   998
                           time      =   0.4828 pico-seconds


     Andersen thermostat:    3 collisions

ATOMIC_POSITIONS (angstrom)
O        0.054534707   0.034460893   0.092093366
H       -0.802409894   0.358390499  -0.266677528
H       -0.061506262  -0.904305634  -0.257022267


     kinetic energy (Ekin) =     0.08739784 Ry
     temperature           =  4599.67056738 K 
     Ekin + Etot (const)   =   -33.65374844 Ry
     Message from routine dynamics:
     Total linear momentum <> 0

     Linear momentum :   -0.0710630133    1.1351047104    0.1855277262

     Writing output data file pwscf.save

     second order wave-functions extrapolation
     Check: negative starting charge=   -0.071212
     second order charge density extrapolation
     Check: negative starting charge=   -0.071245

     negative rho (up, down):  2.714E-03 0.000E+00

     total cpu time spent up to now is     1323.8 secs

     per-process dynamical memory:    32.7 Mb

     Self-consistent Calculation

     iteration #  1     ecut=    60.00 Ry     beta=0.70
     Davidson diagonalization with overlap
     ethr =  1.00E-06,  avg # of iterations = 14.0

     negative rho (up, down):  6.585E-04 0.000E+00

     total cpu time spent up to now is     1324.0 secs

     total energy              =     -33.73616045 Ry
     Harris-Foulkes estimate   =     -33.73497161 Ry
     estimated scf accuracy    <       0.00045216 Ry

     iteration #  2     ecut=    60.00 Ry     beta=0.70
     Davidson diagonalization with overlap
     ethr =  5.65E-06,  avg # of iterations = 17.0

     negative rho (up, down):  8.804E-05 0.000E+00

     total cpu time spent up to now is     1324.1 secs

     total energy              =     -33.73619875 Ry
     Harris-Foulkes estimate   =     -33.73620210 Ry
     estimated scf accuracy    <       0.00003948 Ry

     iteration #  3     ecut=    60.00 Ry     beta=0.70
     Davidson diagonalization with overlap
     ethr =  4.94E-07,  avg # of iterations = 10.0

     negative rho (up, down):  9.429E-06 0.000E+00

     total cpu time spent up to now is     1324.2 secs

     total energy              =     -33.73620146 Ry
     Harris-Foulkes estimate   =     -33.73621101 Ry
     estimated scf accuracy    <       0.00001684 Ry

     iteration #  4     ecut=    60.00 Ry     beta=0.70
     Davidson diagonalization with overlap
     ethr =  2.11E-07,  avg # of iterations =  2.0

     negative rho (up, down):  8.175E-08 0.000E+00

     total cpu time spent up to now is     1324.3 secs

     total energy              =     -33.74028268 Ry
     Harris-Foulkes estimate   =     -33.74028366 Ry
     estimated scf accuracy    <       0.00000117 Ry

     iteration #  5     ecut=    60.00 Ry     beta=0.70
     Davidson diagonalization with overlap
     ethr =  1.47E-08,  avg # of iterations =  2.0

     total cpu time spent up to now is     1324.4 secs

     End of self-consistent calculation

          k = 0.0000 0.0000 0.0000 ( 62669 PWs)   bands (ev):

   -25.3514 -12.1946  -9.6496  -7.0535  -1.0133   0.3836   0.7469   1.0979

     the Fermi energy is    -5.1742 ev

!    total energy              =     -33.74028291 Ry
     Harris-Foulkes estimate   =     -33.74028293 Ry
     estimated scf accuracy    <          9.9E-09 Ry

     convergence has been achieved in   5 iterations

     Forces acting on atoms (Ry/au):

     atom    1 type  2   force =    -0.00795742   -0.03748187   -0.01638983
     atom    2 type  1   force =    -0.01491712    0.02982252    0.00151587
     atom    3 type  1   force =     0.02287454    0.00765935    0.01487396

     Total force =     0.060450     Total SCF correction =     0.000950

     Entering Dynamics:    iteration =   999
                           time      =   0.4833 pico-seconds


     Andersen thermostat:    3 collisions

ATOMIC_POSITIONS (angstrom)
O        0.055968717   0.033304813   0.088399441
H       -0.802214314   0.362306328  -0.242894247
H       -0.084418822  -0.889907332  -0.222287921


     kinetic energy (Ekin) =     0.04666975 Ry
     temperature           =  2456.18713693 K 
     Ekin + Etot (const)   =   -33.69361316 Ry
     Message from routine dynamics:
     Total linear momentum <> 0

     Linear momentum :    0.0286531724    0.2722510973    0.1287677066

     Writing output data file pwscf.save

     second order wave-functions extrapolation
     Check: negative starting charge=   -0.071245
     second order charge density extrapolation
     Check: negative starting charge=   -0.071245

     negative rho (up, down):  4.044E-03 0.000E+00

     total cpu time spent up to now is     1325.0 secs

     per-process dynamical memory:    32.7 Mb

     Self-consistent Calculation

     iteration #  1     ecut=    60.00 Ry     beta=0.70
     Davidson diagonalization with overlap
     ethr =  1.00E-06,  avg # of iterations = 19.0

     negative rho (up, down):  1.002E-03 0.000E+00

     total cpu time spent up to now is     1325.2 secs

     total energy              =     -33.73570221 Ry
     Harris-Foulkes estimate   =     -33.73303858 Ry
     estimated scf accuracy    <       0.00043494 Ry

     iteration #  2     ecut=    60.00 Ry     beta=0.70
     Davidson diagonalization with overlap
     ethr =  5.44E-06,  avg # of iterations = 14.0

     negative rho (up, down):  5.558E-04 0.000E+00

     total cpu time spent up to now is     1325.3 secs

     total energy              =     -33.73580820 Ry
     Harris-Foulkes estimate   =     -33.73592758 Ry
     estimated scf accuracy    <       0.00031283 Ry

     iteration #  3     ecut=    60.00 Ry     beta=0.70
     Davidson diagonalization with overlap
     ethr =  3.91E-06,  avg # of iterations =  3.0

     negative rho (up, down):  1.094E-05 0.000E+00

     total cpu time spent up to now is     1325.4 secs

     total energy              =     -33.73588198 Ry
     Harris-Foulkes estimate   =     -33.73588327 Ry
     estimated scf accuracy    <       0.00001145 Ry

     iteration #  4     ecut=    60.00 Ry     beta=0.70
     Davidson diagonalization with overlap
     ethr =  1.43E-07,  avg # of iterations =  4.0

     negative rho (up, down):  1.664E-08 0.000E+00

     total cpu time spent up to now is     1325.5 secs

     total energy              =     -33.73996208 Ry
     Harris-Foulkes estimate   =     -33.73996201 Ry
     estimated scf accuracy    <       0.00000010 Ry

     iteration #  5     ecut=    60.00 Ry     beta=0.70
     Davidson diagonalization with overlap
     ethr =  1.24E-09,  avg # of iterations =  3.0

     total cpu time spent up to now is     1325.6 secs

     End of self-consistent calculation

          k = 0.0000 0.0000 0.0000 ( 62669 PWs)   bands (ev):

   -25.5168 -12.3340  -9.6626  -7.0805  -0.9678   0.3980   0.7803   1.0999

     the Fermi energy is    -5.2141 ev

!    total energy              =     -33.73996204 Ry
     Harris-Foulkes estimate   =     -33.73996212 Ry
     estimated scf accuracy    <          6.2E-09 Ry

     convergence has been achieved in   5 iterations

     Forces acting on atoms (Ry/au):

     atom    1 type  2   force =     0.00306143   -0.00818549   -0.00078889
     atom    2 type  1   force =    -0.02362367    0.03519779   -0.00216450
     atom    3 type  1   force =     0.02056223   -0.02701230    0.00295340

     Total force =     0.055135     Total SCF correction =     0.000674

     Entering Dynamics:    iteration =  1000
                           time      =   0.4838 pico-seconds


     Andersen thermostat:    3 collisions

ATOMIC_POSITIONS (angstrom)
O        0.055236228   0.031899595   0.088373980
H       -0.816013427   0.348401179  -0.244963464
H       -0.059015933  -0.853741300  -0.219815374


     kinetic energy (Ekin) =     0.04548902 Ry
     temperature           =  2394.04648207 K 
     Ekin + Etot (const)   =   -33.69447302 Ry
     Message from routine dynamics:
     Total linear momentum <> 0

     Linear momentum :    0.1311001247    0.2225751998   -0.6300125242

     The maximum number of steps has been reached.

     End of molecular dynamics calculation

     diffusion coefficients :
     atom     1   D =       0.00000017 cm^2/s
     atom     2   D =       0.00003072 cm^2/s
     atom     3   D =       0.00000268 cm^2/s

     < D > =       0.00001119 cm^2/s

     Writing output data file pwscf.save
 
     init_run     :      0.28s CPU      0.76s WALL (       1 calls)
     electrons    :    582.70s CPU    755.17s WALL (    1000 calls)
     update_pot   :    279.57s CPU    394.23s WALL (     999 calls)
     forces       :     61.66s CPU     68.25s WALL (    1000 calls)

     Called by init_run:
     wfcinit      :      0.09s CPU      0.34s WALL (       1 calls)
     potinit      :      0.05s CPU      0.19s WALL (       1 calls)

     Called by electrons:
     c_bands      :    270.75s CPU    280.34s WALL (    5203 calls)
     sum_band     :     41.65s CPU     43.66s WALL (    5203 calls)
     v_of_rho     :    125.01s CPU    128.97s WALL (    6202 calls)
     mix_rho      :     57.95s CPU    100.44s WALL (    5203 calls)

     Called by c_bands:
     init_us_2    :      1.57s CPU      1.79s WALL (   10407 calls)
     cegterg      :    268.51s CPU    273.54s WALL (    5203 calls)

     Called by sum_band:

     Called by *egterg:
     h_psi        :    220.52s CPU    224.29s WALL (   42326 calls)
     g_psi        :      2.53s CPU      2.58s WALL (   37122 calls)
     cdiaghg      :     10.01s CPU     10.34s WALL (   41325 calls)

     Called by h_psi:
     h_psi:pot    :    218.34s CPU    222.06s WALL (   42326 calls)
     h_psi:calbec :      3.68s CPU      4.32s WALL (   42326 calls)
     vloc_psi     :    213.76s CPU    216.83s WALL (   42326 calls)
     add_vuspsi   :      0.69s CPU      0.71s WALL (   42326 calls)

     General routines
     calbec       :     21.26s CPU     28.60s WALL (   47324 calls)
     fft          :     86.37s CPU     90.75s WALL (   70223 calls)
     fftw         :    213.94s CPU    217.87s WALL (  380922 calls)
     davcio       :      6.24s CPU     42.47s WALL (   33431 calls)
 
     Parallel routines
     fft_scatter  :    110.04s CPU    115.72s WALL (  451145 calls)
 
     PWSCF        : 16m 2.94s CPU    22m 6.25s WALL

 
   This run was terminated on:  20:37:18  19Apr2018            

=------------------------------------------------------------------------------=
   JOB DONE.
=------------------------------------------------------------------------------=
